/*--------------------------------*- C++ -*----------------------------------*\
| =========                 |                                                 |
| \\      /  F ield         | OpenFOAM: The Open Source CFD Toolbox           |
|  \\    /   O peration     | Version:  2412                                  |
|   \\  /    A nd           | Website:  www.openfoam.com                      |
|    \\/     M anipulation  |                                                 |
\*---------------------------------------------------------------------------*/
FoamFile
{
    version     2.0;
    format      ascii;
    arch        "LSB;label=32;scalar=64";
    class       volScalarField;
    location    "1.5";
    object      alpha.water;
}
// * * * * * * * * * * * * * * * * * * * * * * * * * * * * * * * * * * * * * //

dimensions      [0 0 0 0 0 0 0];

internalField   nonuniform List<scalar> 
40000
(
5.42427e-173
3.18721e-170
3.67548e-168
1.62639e-167
2.41737e-167
2.55013e-167
2.42395e-167
2.21625e-167
1.9811e-167
1.73808e-167
1.49749e-167
1.26681e-167
1.05166e-167
8.56184e-168
6.82836e-168
5.33095e-168
4.06885e-168
3.03696e-168
2.21412e-168
1.57315e-168
1.08669e-168
7.28681e-169
4.73127e-169
2.96579e-169
1.78916e-169
1.0355e-169
5.73411e-170
3.03232e-170
1.5318e-170
7.39925e-171
3.41491e-171
1.50101e-171
6.24976e-172
2.44722e-172
8.93989e-173
3.02531e-173
9.44282e-174
2.71373e-174
7.17162e-175
1.73772e-175
3.84105e-176
7.69788e-177
1.39069e-177
2.25372e-178
3.26283e-179
4.20423e-180
4.80328e-181
4.84538e-182
4.2938e-183
3.31998e-184
2.21801e-185
1.26119e-186
5.97702e-188
2.27115e-189
6.89139e-191
1.83023e-192
4.94197e-194
1.33735e-195
3.42856e-197
7.86345e-199
1.47344e-200
1.78311e-202
3.70518e-205
1.00827e-208
9.00598e-211
1.44973e-212
2.31228e-214
3.62165e-216
5.55631e-218
8.32945e-220
1.21713e-221
1.7294e-223
2.38365e-225
3.17923e-227
4.09339e-229
5.07534e-231
6.04504e-233
6.8992e-235
7.52579e-237
7.82548e-239
7.73527e-241
7.2473e-243
6.41588e-245
5.34863e-247
4.18334e-249
3.05707e-251
2.07768e-253
1.30636e-255
7.55321e-258
3.98774e-260
1.9065e-262
8.17173e-265
3.10192e-267
1.02681e-269
2.90545e-272
6.84068e-275
1.28969e-277
1.83542e-280
1.77915e-283
9.37935e-287
4.23367e-287
1.14906e-283
1.36081e-280
1.03255e-277
5.75729e-275
2.53356e-272
9.19532e-270
2.83616e-267
7.59732e-265
1.79691e-262
3.80166e-260
7.27046e-258
1.26783e-255
2.0307e-253
3.00624e-251
4.13565e-249
5.31213e-247
6.39779e-245
7.25224e-243
7.76414e-241
7.87541e-239
7.59096e-237
6.97234e-235
6.11894e-233
5.14411e-231
4.15307e-229
3.22795e-227
2.42125e-225
1.75696e-223
1.23635e-221
8.45732e-220
5.63753e-218
3.67093e-216
2.34086e-214
1.46547e-212
9.03214e-211
5.63766e-209
1.34151e-206
6.77415e-203
9.27013e-201
5.84057e-199
2.75732e-197
1.12567e-195
4.27747e-194
1.60319e-192
6.12594e-191
2.07581e-189
5.60573e-188
1.20406e-186
2.14306e-185
3.23415e-184
4.20649e-183
4.76511e-182
4.73552e-181
4.1512e-180
3.22428e-179
2.22777e-178
1.37461e-177
7.60693e-177
3.79442e-176
1.7161e-175
7.0805e-175
2.67847e-174
9.31611e-174
2.98306e-173
8.81058e-173
2.41101e-172
6.15641e-172
1.47858e-171
3.36402e-171
7.28942e-171
1.50913e-170
2.98733e-170
5.6485e-170
1.01994e-169
1.76215e-169
2.92107e-169
4.66052e-169
7.17931e-169
1.0709e-168
1.55067e-168
2.18295e-168
2.99459e-168
4.01228e-168
5.25693e-168
6.73374e-168
8.44236e-168
1.03704e-167
1.24936e-167
1.47718e-167
1.71561e-167
1.95879e-167
2.19954e-167
2.42426e-167
2.58191e-167
2.48254e-167
1.68137e-167
3.77875e-168
3.1157e-170
5.15813e-173
6.30297e-170
9.32859e-167
9.75247e-165
3.19778e-164
4.27975e-164
4.409e-164
4.18355e-164
3.84247e-164
3.45801e-164
3.05745e-164
2.65705e-164
2.26916e-164
1.90357e-164
1.56758e-164
1.26623e-164
1.00234e-164
7.76753e-165
5.89517e-165
4.37733e-165
3.17288e-165
2.23976e-165
1.53758e-165
1.02402e-165
6.59671e-166
4.09746e-166
2.44625e-166
1.39989e-166
7.66409e-167
4.01531e-167
2.01569e-167
9.69369e-168
4.45463e-168
1.9467e-168
8.03433e-169
3.10656e-169
1.11706e-169
3.71762e-170
1.14289e-170
3.24255e-171
8.47178e-172
2.02956e-172
4.43338e-173
8.78168e-174
1.57002e-174
2.52399e-175
3.63717e-176
4.68479e-177
5.37777e-178
5.48374e-179
4.94667e-180
3.92431e-181
2.71298e-182
1.60887e-183
7.95652e-185
3.19472e-186
1.09124e-187
3.94864e-189
1.56348e-190
6.34386e-192
2.57321e-193
1.03236e-194
4.07474e-196
1.57731e-197
5.97513e-199
2.21125e-200
7.98219e-202
2.8065e-203
9.59705e-205
3.18715e-206
1.02637e-207
3.20014e-209
9.6449e-211
2.8052e-212
7.85983e-214
2.11765e-215
5.476e-217
1.35634e-218
3.21105e-220
7.24978e-222
1.55724e-223
3.17403e-225
6.12171e-227
1.11381e-228
1.9053e-230
3.0529e-232
4.56298e-234
6.33193e-236
8.11442e-238
9.54431e-240
1.02303e-241
9.90871e-244
8.58431e-246
6.56941e-248
4.3716e-250
2.47831e-252
1.16416e-254
4.35405e-257
1.21823e-259
2.28056e-262
2.19841e-265
1.54711e-265
1.85477e-262
1.05493e-259
3.91422e-257
1.07368e-254
2.32916e-252
4.16878e-250
6.33794e-248
8.36106e-246
9.7278e-244
1.0111e-241
9.48692e-240
8.10526e-238
6.35162e-236
4.594e-234
3.08346e-232
1.9297e-230
1.13078e-228
6.2278e-227
3.23475e-225
1.58941e-223
7.40889e-222
3.28492e-220
1.38868e-218
5.61014e-217
2.17052e-215
8.05835e-214
2.87644e-212
9.88978e-211
3.28095e-209
1.05203e-207
3.26571e-206
9.82936e-205
2.87297e-203
8.16645e-202
2.26079e-200
6.1043e-199
1.60995e-197
4.15437e-196
1.05098e-194
2.61413e-193
6.42374e-192
1.57416e-190
3.92902e-189
1.05601e-187
3.08562e-186
7.78863e-185
1.5925e-183
2.70354e-182
3.92686e-181
4.96218e-180
5.5082e-179
5.40424e-178
4.70694e-177
3.6519e-176
2.53159e-175
1.57276e-174
8.78475e-174
4.42869e-173
2.02474e-172
8.442e-172
3.22794e-171
1.13668e-170
3.69387e-170
1.10884e-169
3.08097e-169
7.96281e-169
1.9285e-168
4.41166e-168
9.5981e-168
1.99548e-167
3.97449e-167
7.58506e-167
1.38523e-166
2.4203e-166
4.05372e-166
6.52632e-166
1.01317e-165
1.52149e-165
2.21667e-165
3.14078e-165
4.33392e-165
5.83781e-165
7.69334e-165
9.92962e-165
1.2547e-164
1.55377e-164
1.88754e-164
2.25129e-164
2.6382e-164
3.03948e-164
3.44459e-164
3.84048e-164
4.20388e-164
4.46235e-164
4.35899e-164
3.25255e-164
9.72434e-165
8.84207e-167
5.95142e-170
6.82021e-168
5.72142e-164
3.75734e-162
1.07009e-161
1.37701e-161
1.40578e-161
1.33437e-161
1.23037e-161
1.1136e-161
9.9147e-162
8.68529e-162
7.48416e-162
6.34119e-162
5.27966e-162
4.31646e-162
3.46219e-162
2.72178e-162
2.09833e-162
1.58492e-162
1.17027e-162
8.4273e-163
5.911e-163
4.02865e-163
2.66013e-163
1.69626e-163
1.04122e-163
6.13539e-164
3.46384e-164
1.87434e-164
9.73614e-165
4.85576e-165
2.32026e-165
1.05747e-165
4.56564e-166
1.85228e-166
7.00721e-167
2.45953e-167
7.9949e-168
2.40533e-168
6.68633e-169
1.71055e-169
4.00563e-170
8.54e-171
1.65036e-171
2.8813e-172
4.53316e-173
6.4147e-174
8.15134e-175
9.28922e-176
9.48165e-177
8.65641e-178
7.0552e-179
5.1176e-180
3.28693e-181
1.87107e-182
1.00213e-183
5.46858e-185
2.98791e-186
1.61669e-187
8.60722e-189
4.49113e-190
2.29058e-191
1.13969e-192
5.52345e-194
2.6041e-195
1.19293e-196
5.30372e-198
2.28592e-199
9.53982e-201
3.85019e-202
1.5008e-203
5.64251e-205
2.04314e-206
7.11436e-208
2.37836e-209
7.62026e-211
2.33564e-212
6.83472e-214
1.9054e-215
5.04888e-217
1.2684e-218
3.01286e-220
6.7461e-222
1.41917e-223
2.7946e-225
5.12989e-227
8.73712e-229
1.37336e-230
1.9801e-232
2.59994e-234
3.08269e-236
3.26701e-238
3.05617e-240
2.48395e-242
1.71834e-244
9.83889e-247
4.47919e-249
1.52242e-251
3.44944e-254
3.98289e-257
3.07047e-257
2.96294e-254
1.37221e-251
4.15709e-249
9.31808e-247
1.65207e-244
2.41633e-242
3.00113e-240
3.23314e-238
3.07056e-236
2.60397e-234
1.9925e-232
1.38756e-230
8.8584e-229
5.21693e-227
2.84953e-225
1.45039e-223
6.90826e-222
3.0906e-220
1.30306e-218
5.19344e-217
1.96206e-215
7.04423e-214
2.40899e-212
7.8641e-211
2.45554e-209
7.34748e-208
2.11049e-206
5.82897e-205
1.55037e-203
3.9769e-202
9.85188e-201
2.36005e-199
5.47381e-198
1.23066e-196
2.68507e-195
5.69163e-194
1.17348e-192
2.35622e-191
4.6141e-190
8.82865e-189
1.65479e-187
3.04973e-186
5.56007e-185
1.01337e-183
1.8792e-182
3.30991e-181
5.16949e-180
7.14105e-179
8.77152e-178
9.61142e-177
9.4142e-176
8.25489e-175
6.48869e-174
4.5787e-173
2.90529e-172
1.66104e-171
8.57899e-171
4.01654e-170
1.71234e-169
6.68367e-169
2.4014e-168
7.97275e-168
2.44992e-167
6.97195e-167
1.84109e-166
4.53454e-166
1.04969e-165
2.30232e-165
4.81682e-165
9.65582e-165
1.85852e-164
3.43399e-164
6.08147e-164
1.03193e-163
1.68102e-163
2.63626e-163
3.99278e-163
5.85906e-163
8.3545e-163
1.16038e-162
1.57185e-162
2.08148e-162
2.70054e-162
3.4361e-162
4.28535e-162
5.24373e-162
6.30127e-162
7.44204e-162
8.64421e-162
9.88039e-162
1.11182e-161
1.2318e-161
1.34109e-161
1.41914e-161
1.39384e-161
1.07874e-161
3.71822e-162
5.38478e-164
6.46821e-168
1.99734e-166
1.27783e-161
6.03682e-160
1.56919e-159
1.96668e-159
1.99599e-159
1.89626e-159
1.75487e-159
1.5967e-159
1.43079e-159
1.26279e-159
1.09741e-159
9.38631e-160
7.89696e-160
6.53062e-160
5.30404e-160
4.2268e-160
3.30735e-160
2.53884e-160
1.90764e-160
1.39972e-160
1.00183e-160
6.97761e-161
4.71516e-161
3.08132e-161
1.94098e-161
1.17521e-161
6.82616e-162
3.80558e-162
2.04008e-162
1.05215e-162
5.21093e-163
2.46767e-163
1.10978e-163
4.70023e-164
1.8597e-164
6.8385e-165
2.33306e-165
7.38312e-166
2.16403e-166
5.85148e-167
1.45144e-167
3.28424e-168
6.74866e-169
1.25522e-169
2.10819e-170
3.19183e-171
4.35089e-172
5.33569e-173
5.88464e-174
5.83673e-175
5.20772e-176
4.1812e-177
3.02147e-178
1.97382e-179
1.22075e-180
7.5435e-182
4.61284e-183
2.77326e-184
1.63277e-185
9.39034e-187
5.26603e-188
2.87544e-189
1.52686e-190
7.87544e-192
3.94145e-193
1.91196e-194
8.97995e-196
4.07908e-197
1.78995e-198
7.57847e-200
3.09188e-201
1.21386e-202
4.57911e-204
1.65723e-205
5.74441e-207
1.90364e-208
6.01944e-210
1.81239e-211
5.18415e-213
1.40527e-214
3.60012e-216
8.69064e-218
1.97028e-219
4.17973e-221
8.26261e-223
1.51498e-224
2.56275e-226
3.97508e-228
5.61322e-230
7.15515e-232
8.14944e-234
8.19002e-236
7.14846e-238
5.30836e-240
3.26116e-242
1.59203e-244
5.79795e-247
1.40578e-249
1.73102e-252
1.38133e-252
1.23562e-249
5.32241e-247
1.50077e-244
3.13144e-242
5.16785e-240
7.03442e-238
8.12936e-236
8.14689e-234
7.19565e-232
5.67356e-230
4.03519e-228
2.61119e-226
1.54859e-224
8.46946e-223
4.29475e-221
2.02876e-219
8.96487e-218
3.71955e-216
1.45385e-214
5.36951e-213
1.879e-211
6.24567e-210
1.97646e-208
5.96717e-207
1.72215e-205
4.7597e-204
1.26191e-202
3.21442e-201
7.87842e-200
1.86053e-198
4.23897e-197
9.32904e-196
1.98549e-194
4.09103e-193
8.16943e-192
1.58271e-190
2.97801e-189
5.44816e-188
9.70303e-187
1.68466e-185
2.85643e-184
4.74106e-183
7.73184e-182
1.24668e-180
2.007e-179
3.07592e-178
4.26255e-177
5.31312e-176
5.95586e-175
6.00243e-174
5.43765e-173
4.42819e-172
3.24309e-171
2.13788e-170
1.27019e-169
6.81394e-169
3.30858e-168
1.45907e-167
5.87085e-167
2.16761e-166
7.38504e-166
2.33072e-165
6.82303e-165
1.85319e-164
4.67861e-164
1.10373e-163
2.45275e-163
5.17722e-163
1.04499e-162
2.02566e-162
3.77784e-162
6.77507e-162
1.1662e-161
1.92584e-161
3.05709e-161
4.67813e-161
6.9233e-161
9.94137e-161
1.38917e-160
1.8936e-160
2.52068e-160
3.28444e-160
4.19854e-160
5.27014e-160
6.49124e-160
7.85276e-160
9.33879e-160
1.09259e-159
1.25835e-159
1.42741e-159
1.59545e-159
1.75722e-159
1.90387e-159
2.00924e-159
1.98109e-159
1.5729e-159
5.95475e-160
1.21003e-161
1.88537e-166
4.61214e-165
1.54322e-159
5.60564e-158
1.35414e-157
1.66216e-157
1.68004e-157
1.59839e-157
1.48476e-157
1.35791e-157
1.22445e-157
1.08857e-157
9.53827e-158
8.23362e-158
6.99799e-158
5.85217e-158
4.8113e-158
3.88526e-158
3.08445e-158
2.40536e-158
1.83835e-158
1.37373e-158
1.00278e-158
7.13343e-159
4.93042e-159
3.3e-159
2.13186e-159
1.32541e-159
7.91458e-160
4.54222e-160
2.5107e-160
1.33769e-160
6.85898e-161
3.37058e-161
1.57656e-161
6.95825e-162
2.87344e-162
1.10433e-162
3.94387e-163
1.30901e-163
4.03276e-164
1.14836e-164
3.00422e-165
7.17728e-166
1.5585e-166
3.06536e-167
5.44763e-168
8.73126e-169
1.26039e-169
1.63727e-170
1.91332e-171
2.01182e-172
1.90463e-173
1.62524e-174
1.25169e-175
8.73968e-177
5.75721e-178
3.76824e-179
2.43229e-180
1.53982e-181
9.52792e-183
5.74979e-184
3.37887e-185
1.93122e-186
1.07244e-187
5.78022e-189
3.02075e-190
1.5291e-191
7.48957e-193
3.54569e-194
1.6206e-195
7.14264e-197
3.03179e-198
1.23769e-199
4.85255e-201
1.82434e-202
6.56597e-204
2.2583e-205
7.40827e-207
2.31316e-208
6.85907e-210
1.92676e-211
5.11353e-213
1.27836e-214
3.00051e-216
6.58799e-218
1.34753e-219
2.5558e-221
4.47105e-223
7.17002e-225
1.04652e-226
1.37851e-228
1.62205e-230
1.68368e-232
1.51745e-234
1.16326e-236
7.37538e-239
3.71471e-241
1.39523e-243
3.48697e-246
4.42025e-249
3.59e-249
3.10728e-246
1.29637e-243
3.54091e-241
7.15648e-239
1.14382e-236
1.50764e-234
1.68679e-232
1.63624e-230
1.39856e-228
1.06691e-226
7.34008e-225
4.59342e-223
2.63383e-221
1.39237e-219
6.82288e-218
3.11368e-216
1.32885e-214
5.32334e-213
2.00834e-211
7.15704e-210
2.41577e-208
7.74246e-207
2.36151e-205
6.869e-204
1.9091e-202
5.07893e-201
1.29552e-199
3.17334e-198
7.47509e-197
1.69563e-195
3.70865e-194
7.83048e-193
1.59788e-191
3.15465e-190
6.03207e-189
1.11822e-187
2.01175e-186
3.51593e-185
5.9757e-184
9.88852e-183
1.59551e-181
2.51529e-180
3.88702e-179
5.91968e-178
8.95337e-177
1.28338e-175
1.66779e-174
1.95502e-173
2.06441e-172
1.96168e-171
1.6764e-170
1.28824e-169
8.90544e-169
5.54325e-168
3.11135e-167
1.5778e-166
7.24762e-166
3.0263e-165
1.15429e-164
4.04615e-164
1.31135e-163
3.94552e-163
1.10329e-162
2.86692e-162
6.93418e-162
1.56966e-161
3.35367e-161
6.82144e-161
1.32988e-160
2.49531e-160
4.51328e-160
7.86245e-160
1.31642e-159
2.1171e-159
3.27693e-159
4.89598e-159
7.08404e-159
9.95937e-159
1.36453e-158
1.82633e-158
2.39012e-158
3.06558e-158
3.86241e-158
4.7844e-158
5.82153e-158
6.96431e-158
8.19819e-158
9.50318e-158
1.08541e-157
1.2221e-157
1.35699e-157
1.48607e-157
1.60264e-157
1.68693e-157
1.66841e-157
1.35271e-157
5.52546e-158
1.47107e-159
4.48265e-165
2.40456e-163
1.21671e-157
3.48205e-156
7.87944e-156
9.49909e-156
9.57311e-156
9.1257e-156
8.51059e-156
7.82416e-156
7.09946e-156
6.35736e-156
5.61619e-156
4.89246e-156
4.20041e-156
3.55179e-156
2.95558e-156
2.41828e-156
1.94762e-156
1.54276e-156
1.19915e-156
9.12454e-157
6.79229e-157
4.93448e-157
3.48815e-157
2.39114e-157
1.58423e-157
1.01142e-157
6.20949e-158
3.66873e-158
2.09098e-158
1.15086e-158
6.10874e-159
3.11466e-159
1.51498e-159
6.96678e-160
3.00215e-160
1.20561e-160
4.50605e-161
1.56833e-161
5.07747e-162
1.52224e-162
4.1983e-163
1.05833e-163
2.42633e-164
5.04085e-165
9.46495e-166
1.60278e-166
2.44374e-167
3.35091e-168
4.12995e-169
4.57509e-170
4.55793e-171
4.08798e-172
3.30573e-173
2.42008e-174
1.66377e-175
1.13414e-176
7.61383e-178
5.00784e-179
3.2161e-180
2.01233e-181
1.22497e-182
7.24634e-184
4.16148e-185
2.31796e-186
1.25107e-187
6.53664e-189
3.30279e-190
1.61213e-191
7.59322e-193
3.44699e-194
1.50625e-195
6.32728e-197
2.5514e-198
9.86097e-200
3.64695e-201
1.28838e-202
4.33948e-204
1.39064e-205
4.2306e-207
1.21882e-208
3.31634e-210
8.49724e-212
2.04349e-213
4.59575e-215
9.62598e-217
1.86904e-218
3.34638e-220
5.491e-222
8.19859e-224
1.10448e-225
1.32884e-227
1.41004e-229
1.29885e-231
1.01741e-233
6.58994e-236
3.39004e-238
1.30018e-240
3.31702e-243
4.28998e-246
3.52928e-246
2.98984e-243
1.22116e-240
3.26519e-238
6.45926e-236
1.01033e-233
1.30299e-231
1.42615e-229
1.35307e-227
1.13093e-225
8.43476e-224
5.67198e-222
3.46863e-220
1.94309e-218
1.0033e-216
4.80066e-215
2.13866e-213
8.90744e-212
3.48125e-210
1.28092e-208
4.45049e-207
1.46408e-205
4.57154e-204
1.35793e-202
3.84513e-201
1.0399e-199
2.69083e-198
6.67283e-197
1.58829e-195
3.63382e-194
8.00197e-193
1.69815e-191
3.4771e-190
6.87716e-189
1.31527e-187
2.43486e-186
4.36727e-185
7.59682e-184
1.28276e-182
2.10461e-181
3.35881e-180
5.22144e-179
7.92265e-178
1.17716e-176
1.7215e-175
2.49541e-174
3.41094e-173
4.22031e-172
4.7051e-171
4.7196e-170
4.25508e-169
3.44635e-168
2.50782e-167
1.64065e-166
9.66184e-166
5.13087e-165
2.46245e-164
1.071e-163
4.23708e-163
1.5326e-162
5.10176e-162
1.57324e-161
4.51358e-161
1.20589e-160
2.99854e-160
6.94952e-160
1.50974e-159
3.1018e-159
6.08054e-159
1.1451e-158
2.07985e-158
3.64824e-158
6.17338e-158
1.00533e-157
1.57444e-157
2.37618e-157
3.46631e-157
4.90384e-157
6.7507e-157
9.06968e-157
1.19212e-156
1.534e-156
1.93695e-156
2.40556e-156
2.94083e-156
3.53524e-156
4.18246e-156
4.87378e-156
5.59781e-156
6.3407e-156
7.08644e-156
7.81724e-156
8.51248e-156
9.13819e-156
9.59326e-156
9.51173e-156
7.8563e-156
3.43423e-156
1.16716e-157
2.24081e-163
1.79952e-161
6.8595e-156
1.56185e-154
3.32302e-154
3.94045e-154
3.96232e-154
3.78604e-154
3.54571e-154
3.27723e-154
2.99258e-154
2.69935e-154
2.40432e-154
2.11375e-154
1.83321e-154
1.56742e-154
1.3202e-154
1.09449e-154
8.94229e-155
7.1951e-155
5.68773e-155
4.40702e-155
3.34559e-155
2.48239e-155
1.79499e-155
1.26053e-155
8.56799e-156
5.61943e-156
3.54865e-156
2.15947e-156
1.26964e-156
7.2216e-157
3.96955e-157
2.10071e-157
1.06298e-157
5.09565e-158
2.29274e-158
9.62731e-159
3.76865e-159
1.37664e-159
4.68815e-160
1.48132e-160
4.31168e-161
1.14814e-161
2.7824e-162
6.11355e-163
1.21441e-163
2.17564e-164
3.50814e-165
5.08366e-166
6.61415e-167
7.72378e-168
8.09785e-169
7.62889e-170
6.46675e-171
4.95055e-172
3.54269e-173
2.51099e-174
1.7512e-175
1.19559e-176
7.9632e-178
5.16301e-179
3.25382e-180
1.99106e-181
1.18186e-182
6.79907e-184
3.78747e-185
2.04108e-186
1.06306e-187
5.34556e-189
2.59232e-190
1.21098e-191
5.44248e-193
2.35017e-194
9.73705e-196
3.8648e-197
1.46722e-198
5.31833e-200
1.83716e-201
6.03567e-203
1.88167e-204
5.55328e-206
1.54733e-207
4.05854e-209
9.98828e-211
2.29808e-212
4.92286e-214
9.77312e-216
1.7886e-217
2.99916e-219
4.57501e-221
6.29521e-223
7.73436e-225
8.37885e-227
7.878e-229
6.29748e-231
4.16174e-233
2.18388e-235
8.54201e-238
2.22196e-240
2.92903e-243
2.4395e-243
2.02614e-240
8.11337e-238
2.12661e-235
4.12327e-233
6.32009e-231
7.98586e-229
8.56208e-227
7.95571e-225
6.51096e-223
4.7537e-221
3.12855e-219
1.87202e-217
1.02584e-215
5.18003e-214
2.42325e-212
1.05513e-210
4.29389e-209
1.63918e-207
5.88923e-206
1.99726e-204
6.4109e-203
1.95242e-201
5.65412e-200
1.56023e-198
4.11021e-197
1.0355e-195
2.49896e-194
5.78552e-193
1.28682e-191
2.75335e-190
5.67431e-189
1.12767e-187
2.16344e-186
4.01104e-185
7.19352e-184
1.24912e-182
2.102e-181
3.43092e-180
5.4367e-179
8.3727e-178
1.25488e-176
1.83416e-175
2.62308e-174
3.68922e-173
5.13771e-172
6.71482e-171
7.92354e-170
8.40717e-169
8.01031e-168
6.84803e-167
5.25176e-166
3.6145e-165
2.2349e-164
1.24351e-163
6.23951e-163
2.83042e-162
1.16424e-161
4.35908e-161
1.49365e-160
4.71684e-160
1.38263e-159
3.77925e-159
9.63967e-159
2.29219e-158
5.08754e-158
1.06019e-157
2.0937e-157
3.95429e-157
7.19088e-157
1.26381e-156
2.14895e-156
3.53049e-156
5.58942e-156
8.52076e-156
1.25347e-155
1.78491e-155
2.46855e-155
3.32716e-155
4.38315e-155
5.65765e-155
7.15825e-155
8.89806e-155
1.08928e-154
1.31423e-154
1.56081e-154
1.8261e-154
2.10638e-154
2.39704e-154
2.69261e-154
2.98695e-154
3.27336e-154
3.54427e-154
3.78725e-154
3.96489e-154
3.9395e-154
3.31024e-154
1.54216e-154
6.61678e-156
1.56597e-161
1.00555e-159
2.90455e-154
5.28048e-153
1.05816e-152
1.23524e-152
1.23981e-152
1.18777e-152
1.1173e-152
1.03842e-152
9.54387e-153
8.67262e-153
7.78923e-153
6.91153e-153
6.0557e-153
5.23594e-153
4.46415e-153
3.7502e-153
3.1086e-153
2.54084e-153
2.04285e-153
1.61194e-153
1.24812e-153
9.46034e-154
6.99928e-154
5.03721e-154
3.51432e-154
2.36929e-154
1.54006e-154
9.65952e-155
5.86256e-155
3.44818e-155
1.96391e-155
1.07934e-155
5.68532e-156
2.84327e-156
1.337e-156
5.87652e-157
2.41216e-157
9.25968e-158
3.32171e-158
1.10786e-158
3.40875e-159
9.60501e-160
2.4651e-160
5.74021e-161
1.20904e-161
2.29708e-162
3.92721e-163
6.03002e-164
8.30419e-165
1.02499e-165
1.13391e-166
1.1249e-167
1.00187e-168
8.03744e-170
6.00163e-171
4.4337e-172
3.22034e-173
2.28775e-174
1.58407e-175
1.06669e-176
6.97548e-178
4.42502e-179
2.72064e-180
1.61984e-181
9.33154e-183
5.19668e-184
2.79501e-185
1.45041e-186
7.25407e-188
3.49273e-189
1.617e-190
7.18876e-192
3.06474e-193
1.25107e-194
4.88229e-196
1.81833e-197
6.45086e-199
2.17562e-200
6.96002e-202
2.10695e-203
6.01957e-205
1.61836e-206
4.08104e-208
9.61792e-210
2.10977e-211
4.28769e-213
8.03068e-215
1.37775e-216
2.14971e-218
3.02486e-220
3.79944e-222
4.20703e-224
4.04207e-226
3.30105e-228
2.22823e-230
1.19404e-232
4.7682e-235
1.26599e-237
1.70287e-240
1.43707e-240
1.16901e-237
4.58459e-235
1.17672e-232
2.23374e-230
3.35147e-228
4.14445e-226
4.34775e-224
3.95192e-222
3.16314e-220
2.25811e-218
1.45274e-216
8.49522e-215
4.54825e-213
2.24325e-211
1.0247e-209
4.35535e-208
1.7296e-206
6.441e-205
2.25665e-203
7.46027e-202
2.33337e-200
6.92153e-199
1.95152e-197
5.24053e-196
1.34284e-194
3.28905e-193
7.71279e-192
1.73418e-190
3.74392e-189
7.77094e-188
1.55262e-186
2.98951e-185
5.5532e-184
9.96171e-183
1.72735e-181
2.89781e-180
4.70729e-179
7.41046e-178
1.13155e-176
1.67764e-175
2.41833e-174
3.39651e-173
4.66344e-172
6.29168e-171
8.39769e-170
1.04715e-168
1.1757e-167
1.18421e-166
1.06888e-165
8.64116e-165
6.25767e-164
4.06254e-163
2.36795e-162
1.24178e-161
5.87388e-161
2.51331e-160
9.75849e-160
3.45189e-159
1.11865e-158
3.34616e-158
9.31047e-158
2.42149e-157
5.8898e-157
1.33787e-156
2.84105e-156
5.67473e-156
1.07653e-155
1.95776e-155
3.43591e-155
5.8396e-155
9.61883e-155
1.53317e-154
2.35814e-154
3.49712e-154
5.01206e-154
6.96412e-154
9.41302e-154
1.24194e-153
1.60408e-153
2.0331e-153
2.52908e-153
3.09468e-153
3.73401e-153
4.4458e-153
5.21576e-153
6.03412e-153
6.88919e-153
7.76698e-153
8.6515e-153
9.52511e-153
1.03691e-152
1.11628e-152
1.18723e-152
1.23938e-152
1.23377e-152
1.05374e-152
5.22078e-153
2.81511e-154
8.71444e-160
3.92993e-158
9.49507e-153
1.37885e-151
2.60446e-151
2.99524e-151
3.00065e-151
2.88237e-151
2.72387e-151
2.54607e-151
2.35565e-151
2.15686e-151
1.95367e-151
1.74991e-151
1.54919e-151
1.35475e-151
1.16939e-151
9.95585e-152
8.37369e-152
6.95355e-152
5.68693e-152
4.57041e-152
3.61015e-152
2.79599e-152
2.11733e-152
1.56233e-152
1.11948e-152
7.76414e-153
5.19927e-153
3.36435e-153
2.1097e-153
1.28419e-153
7.58411e-154
4.33171e-154
2.37702e-154
1.24135e-154
6.1075e-155
2.81363e-155
1.2128e-155
4.9001e-156
1.8547e-156
6.541e-157
2.13149e-157
6.36818e-158
1.73467e-158
4.29122e-159
9.60897e-160
1.9416e-160
3.53012e-161
5.76137e-162
8.42561e-163
1.10294e-163
1.29185e-164
1.35425e-165
1.27166e-166
1.07281e-167
8.38961e-169
6.48159e-170
4.9194e-171
3.64811e-172
2.63405e-173
1.84766e-174
1.2573e-175
8.29143e-177
5.29445e-178
3.27089e-179
1.95351e-180
1.12695e-181
6.27394e-183
3.36751e-184
1.74084e-185
8.65792e-187
4.13768e-188
1.89775e-189
8.34192e-191
3.50918e-192
1.41051e-193
5.40799e-195
1.97419e-196
6.84803e-198
2.25227e-199
7.00671e-201
2.05639e-202
5.6772e-204
1.46959e-205
3.55406e-207
7.9975e-209
1.6668e-210
3.20053e-212
5.6276e-214
8.9969e-216
1.29677e-217
1.66803e-219
1.89094e-221
1.85958e-223
1.55405e-225
1.07318e-227
5.88202e-230
2.4019e-232
6.51945e-235
8.96176e-238
7.67341e-238
6.10394e-235
2.34073e-232
5.87369e-230
1.08988e-227
1.59807e-225
1.93084e-223
1.97862e-221
1.7564e-219
1.37259e-217
9.56453e-216
6.00464e-214
3.42558e-212
1.78871e-210
8.60159e-209
3.82972e-207
1.58608e-205
6.13522e-204
2.22467e-202
7.58653e-201
2.44024e-199
7.42304e-198
2.14059e-196
5.86465e-195
1.5296e-193
3.80488e-192
9.04221e-191
2.05619e-189
4.4807e-188
9.36946e-187
1.88245e-185
3.63821e-184
6.77163e-183
1.21504e-181
2.10377e-180
3.51811e-179
5.68711e-178
8.89389e-177
1.34664e-175
1.97575e-174
2.81162e-173
3.8861e-172
5.22769e-171
6.8678e-170
8.85709e-169
1.12895e-167
1.3384e-166
1.4248e-165
1.35756e-164
1.15678e-163
8.81331e-163
6.00674e-162
3.66671e-161
2.00859e-160
9.89915e-160
4.40249e-159
1.77248e-158
6.48195e-158
2.16183e-157
6.61342e-157
1.8705e-156
4.93214e-156
1.21868e-155
2.82256e-155
6.11656e-155
1.24132e-154
2.37428e-154
4.32343e-154
7.56546e-154
1.28046e-153
2.10278e-153
3.35227e-153
5.17919e-153
7.73221e-153
1.11466e-152
1.55541e-152
2.10787e-152
2.7835e-152
3.59415e-152
4.5504e-152
5.6625e-152
6.92453e-152
8.33977e-152
9.91682e-152
1.16501e-151
1.34997e-151
1.5441e-151
1.74464e-151
1.94837e-151
2.15173e-151
2.35089e-151
2.54187e-151
2.72039e-151
2.87952e-151
2.9977e-151
2.99003e-151
2.59361e-151
1.36506e-151
9.24014e-153
3.59613e-158
1.21781e-156
2.43159e-151
2.8159e-150
5.01731e-150
5.69581e-150
5.68786e-150
5.47359e-150
5.19654e-150
4.88619e-150
4.552e-150
4.2005e-150
3.83808e-150
3.47112e-150
3.1057e-150
2.74749e-150
2.40156e-150
2.0726e-150
1.76917e-150
1.49285e-150
1.24217e-150
1.01697e-150
8.1968e-151
6.48851e-151
5.03138e-151
3.80855e-151
2.80493e-151
2.00311e-151
1.38345e-151
9.24647e-152
5.99769e-152
3.78224e-152
2.31829e-152
1.37725e-152
7.88065e-153
4.30229e-153
2.21779e-153
1.07257e-153
4.8633e-154
2.07182e-154
8.28967e-155
3.0975e-155
1.07125e-155
3.40119e-156
9.85736e-157
2.59749e-157
6.20143e-158
1.3368e-158
2.59322e-159
4.51399e-160
7.03522e-161
9.80277e-162
1.22026e-162
1.35692e-163
1.34863e-164
1.20117e-165
9.87752e-167
8.00926e-168
6.37459e-169
4.95135e-170
3.73999e-171
2.7412e-172
1.94685e-173
1.3385e-174
8.90122e-176
5.7214e-177
3.5518e-178
2.12787e-179
1.22919e-180
6.84033e-182
3.66343e-183
1.88621e-184
9.32582e-186
4.42224e-187
2.00854e-188
8.72532e-190
3.61971e-191
1.43163e-192
5.38849e-194
1.92629e-195
6.52619e-197
2.0905e-198
6.31483e-200
1.79365e-201
4.77512e-203
1.18724e-204
2.74565e-206
5.879e-208
1.15939e-209
2.09308e-211
3.43463e-213
5.07979e-215
6.70292e-217
7.79283e-219
7.85732e-221
6.73064e-223
4.76304e-225
2.67454e-227
1.11861e-229
3.10899e-232
4.37451e-235
3.80634e-235
2.95586e-232
1.10652e-229
2.7101e-227
4.90716e-225
7.01991e-223
8.27306e-221
8.26725e-219
7.15464e-217
5.44953e-215
3.70011e-213
2.26281e-211
1.25712e-209
6.39038e-208
2.99071e-206
1.29546e-204
5.21788e-203
1.96226e-201
6.91487e-200
2.29078e-198
7.15509e-197
2.11261e-195
5.91062e-194
1.57035e-192
3.96981e-191
9.56633e-190
2.20116e-188
4.84353e-187
1.0207e-185
2.06273e-184
4.00248e-183
7.46553e-182
1.33999e-180
2.31677e-179
3.86197e-178
6.21224e-177
9.65042e-176
1.44887e-174
2.10386e-173
2.95694e-172
4.02636e-171
5.31857e-170
6.82952e-169
8.55415e-168
1.05072e-166
1.27378e-165
1.42997e-164
1.4377e-163
1.29078e-162
1.03434e-161
7.39898e-161
4.72888e-160
2.70481e-159
1.38787e-158
6.408e-158
2.67159e-157
1.00936e-156
3.46812e-156
1.08811e-155
3.13566e-155
8.3692e-155
2.08739e-154
4.89131e-154
1.07688e-153
2.22279e-153
4.30524e-153
7.87684e-153
1.37551e-152
2.31406e-152
3.7736e-152
5.98164e-152
9.21876e-152
1.37891e-151
1.99602e-151
2.7944e-151
3.79378e-151
5.01156e-151
6.46288e-151
8.16454e-151
1.01299e-150
1.23739e-150
1.48726e-150
1.76272e-150
2.06524e-150
2.39338e-150
2.73863e-150
3.09631e-150
3.46139e-150
3.82825e-150
4.19082e-150
4.54274e-150
4.8776e-150
5.18879e-150
5.46643e-150
5.68011e-150
5.68443e-150
4.99742e-150
2.79125e-150
2.37463e-151
1.12821e-156
2.93511e-155
4.90464e-150
4.51393e-149
7.61339e-149
8.60456e-149
8.50932e-149
8.16343e-149
7.77991e-149
7.36003e-149
6.9061e-149
6.42483e-149
5.9239e-149
5.4113e-149
4.89496e-149
4.38235e-149
3.8804e-149
3.39587e-149
2.94278e-149
2.52399e-149
2.13726e-149
1.78302e-149
1.4669e-149
1.18729e-149
9.43209e-150
7.32923e-150
5.55294e-150
4.088e-150
2.91591e-150
2.01599e-150
1.35466e-150
8.8621e-151
5.64426e-151
3.49141e-151
2.08544e-151
1.19173e-151
6.44695e-152
3.27941e-152
1.56739e-152
7.0553e-153
2.99048e-153
1.18654e-153
4.36548e-154
1.47665e-154
4.56583e-155
1.28537e-155
3.2824e-156
7.574e-157
1.57316e-157
2.93143e-158
4.88757e-159
7.27777e-160
9.66725e-161
1.14504e-161
1.20962e-162
1.14226e-163
9.91966e-165
8.47394e-166
7.09859e-167
5.79534e-168
4.59474e-169
3.5301e-170
2.62469e-171
1.88684e-172
1.3105e-173
8.78791e-175
5.68562e-176
3.54645e-177
2.13102e-178
1.23249e-179
6.85447e-181
3.66201e-182
1.87734e-183
9.22414e-185
4.3382e-186
1.95024e-187
8.36771e-189
3.42098e-190
1.33028e-191
4.91061e-193
1.71713e-194
5.67443e-196
1.76755e-197
5.1749e-199
1.41947e-200
3.6349e-202
8.65456e-204
1.9072e-205
3.86962e-207
7.18498e-209
1.21222e-210
1.84281e-212
2.49864e-214
2.98413e-216
3.09001e-218
2.71763e-220
1.97403e-222
1.13747e-224
4.8807e-227
1.39126e-229
2.00697e-232
1.77781e-232
1.34552e-229
4.90889e-227
1.17153e-224
2.06658e-222
2.87948e-220
3.30449e-218
3.21475e-216
2.70774e-214
2.00675e-212
1.32537e-210
7.88188e-209
4.25678e-207
2.10288e-205
9.56081e-204
4.02184e-202
1.57258e-200
5.73884e-199
1.96167e-197
6.30108e-196
1.90742e-194
5.4557e-193
1.47793e-191
3.80002e-190
9.2918e-189
2.16459e-187
4.81202e-186
1.02239e-184
2.07897e-183
4.05123e-182
7.57444e-181
1.36026e-179
2.34878e-178
3.90324e-177
6.24807e-176
9.6417e-175
1.43539e-173
2.06296e-172
2.86427e-171
3.84456e-170
4.99303e-169
6.28218e-168
7.67306e-167
9.12891e-166
1.06396e-164
1.2214e-163
1.29285e-162
1.22237e-161
1.02975e-160
7.72804e-160
5.16949e-159
3.08624e-158
1.64786e-157
7.89165e-157
3.40191e-156
1.32532e-155
4.68486e-155
1.50826e-154
4.44037e-154
1.20254e-153
3.02213e-153
7.1146e-153
1.57772e-152
3.29512e-152
6.46605e-152
1.19333e-151
2.08574e-151
3.48915e-151
5.63737e-151
8.84705e-151
1.35181e-150
2.01108e-150
2.90795e-150
4.07574e-150
5.53508e-150
7.30466e-150
9.39976e-150
1.18319e-149
1.46183e-149
1.77687e-149
2.12997e-149
2.51557e-149
2.93319e-149
3.38505e-149
3.86846e-149
4.36953e-149
4.88145e-149
5.39733e-149
5.90974e-149
6.41076e-149
6.89239e-149
7.34694e-149
7.76798e-149
8.15167e-149
8.49615e-149
8.58664e-149
7.58551e-149
4.47967e-149
4.80464e-150
2.7249e-155
5.49704e-154
7.77275e-149
5.65437e-148
9.18442e-148
1.06967e-147
1.02143e-147
9.55209e-148
9.09523e-148
8.65498e-148
8.18306e-148
7.67849e-148
7.14772e-148
6.59818e-148
6.0376e-148
5.47327e-148
4.91218e-148
4.36159e-148
3.83902e-148
3.34831e-148
2.88663e-148
2.45496e-148
2.06246e-148
1.7077e-148
1.39074e-148
1.11025e-148
8.6627e-149
6.58344e-149
4.8581e-149
3.48112e-149
2.42794e-149
1.6507e-149
1.09412e-149
7.05657e-150
4.40572e-150
2.63949e-150
1.50143e-150
8.05198e-151
4.06692e-151
1.93917e-151
8.72888e-152
3.68705e-152
1.44703e-152
5.22987e-153
1.7306e-153
5.22236e-154
1.43151e-154
3.54897e-155
7.92324e-156
1.58683e-156
2.84207e-157
4.54176e-158
6.46596e-159
8.1943e-160
9.24272e-161
9.29615e-162
8.56497e-163
7.73932e-164
6.85008e-165