/*--------------------------------*- C++ -*----------------------------------*\
| =========                 |                                                 |
| \\      /  F ield         | OpenFOAM: The Open Source CFD Toolbox           |
|  \\    /   O peration     | Version:  2412                                  |
|   \\  /    A nd           | Website:  www.openfoam.com                      |
|    \\/     M anipulation  |                                                 |
\*---------------------------------------------------------------------------*/
FoamFile
{
    version     2.0;
    format      ascii;
    arch        "LSB;label=32;scalar=64";
    class       surfaceScalarField;
    location    "1.5";
    object      alphaPhi0.water;
}
// * * * * * * * * * * * * * * * * * * * * * * * * * * * * * * * * * * * * * //

dimensions      [0 3 -1 0 0 0 0];

oriented        oriented;

internalField   nonuniform List<scalar> 
79600
(
-4.67262e-181
7.73653e-184
-9.10059e-179
3.21924e-181
-4.59182e-178
1.27664e-179
-6.78001e-178
-6.30728e-177
-6.75042e-178
-6.76994e-176
-5.92476e-178
-8.9142e-176
-4.93979e-178
-8.97137e-176
-3.98274e-178
-8.38364e-176
-3.11247e-178
-7.60109e-176
-2.35086e-178
-6.76109e-176
-1.70682e-178
-5.91309e-176
-1.181e-178
-5.0878e-176
-7.67841e-179
-4.30287e-176
-4.56463e-179
-3.5785e-176
-2.34167e-179
-2.90209e-176
-8.45601e-180
-2.31906e-176
1.03541e-180
-1.81102e-176
7.91045e-180
-1.38474e-176
1.1006e-179
-1.03529e-176
1.15647e-179
-7.55145e-177
1.05896e-179
-5.36076e-177
8.85361e-180
-3.69839e-177
6.89146e-180
-2.47346e-177
5.03883e-180
-1.59881e-177
3.47457e-180
-9.95606e-178
2.26301e-180
-5.95394e-178
1.39281e-180
-3.41003e-178
8.10368e-181
-1.86686e-178
4.46609e-181
-9.77123e-179
2.33682e-181
-4.8952e-179
1.16108e-181
-2.34651e-179
5.46495e-182
-1.07336e-179
2.42509e-182
-4.66227e-180
1.00777e-182
-1.90962e-180
3.89209e-183
-7.31621e-181
1.38762e-183
-2.60245e-181
4.54847e-184
-8.55315e-182
1.36873e-184
-2.59194e-182
3.77718e-185
-7.23448e-183
9.53293e-186
-1.85544e-183
2.18953e-186
-4.35301e-184
4.54932e-187
-9.28791e-185
8.50249e-188
-1.79197e-185
1.42255e-188
-3.11093e-186
2.12207e-189
-4.83986e-187
2.81207e-190
-6.72425e-188
3.29802e-191
-8.3159e-189
3.40914e-192
-9.12372e-190
3.09031e-193
-8.84656e-191
2.44005e-194
-7.54439e-192
1.66189e-195
-5.62054e-193
9.61785e-197
-3.62011e-194
4.63177e-198
-1.98536e-195
1.78561e-199
-8.99005e-197
5.48841e-201
-3.26024e-198
1.47423e-202
-9.89963e-200
4.01959e-204
-3.10899e-201
1.09664e-205
-1.04109e-202
2.83003e-207
-3.4404e-204
6.52336e-209
-1.07075e-205
1.22653e-210
-2.95355e-207
1.48701e-212
-6.181e-209
3.09044e-215
-2.31449e-211
8.39909e-219
1.08119e-221
7.48033e-221
2.18931e-223
1.19863e-222
5.51695e-225
1.89982e-224
1.19866e-226
2.95185e-226
2.37647e-228
4.48456e-228
4.40984e-230
6.64519e-230
7.75162e-232
9.58022e-232
1.29858e-233
1.34043e-233
2.07932e-235
1.81566e-235
3.18588e-237
2.37497e-237
4.67073e-239
2.99238e-239
6.54771e-241
3.6225e-241
8.76727e-243
4.20256e-243
1.11976e-244
4.66006e-245
1.36203e-246
4.92568e-247
1.57498e-248
4.94897e-249
1.72781e-250
4.71244e-251
1.79409e-252
4.23923e-253
1.75868e-254
3.59052e-255
1.62286e-256
2.85261e-257
1.4053e-258
2.11721e-259
1.13806e-260
1.46128e-261
8.58618e-263
9.33022e-264
6.00865e-265
5.47841e-266
3.88054e-267
2.93773e-268
2.29913e-269
1.42696e-270
1.24091e-271
6.21724e-273
6.05079e-274
2.40096e-275
2.63904e-276
8.09641e-278
1.01707e-278
2.33879e-280
3.4111e-281
5.64116e-283
9.76027e-284
1.0961e-285
2.31955e-286
1.62571e-288
4.4065e-289
1.68272e-291
6.30799e-292
1.01708e-294
6.13974e-295
2.11705e-298
3.24431e-298
-1.38372e-295
1.46517e-298
-6.34277e-292
3.97144e-295
-8.37111e-289
4.68883e-292
-6.64211e-286
3.54044e-289
-3.78608e-283
1.96083e-286
-1.68473e-280
8.55478e-284
-6.14431e-278
3.07242e-281
-1.89671e-275
9.35966e-279
-5.07086e-273
2.4715e-276
-1.19454e-270
5.75059e-274
-2.51304e-268
1.19431e-271
-4.77269e-266
2.23715e-269
-8.25558e-264
3.81224e-267
-1.31035e-261
5.95267e-265
-1.9206e-259
8.56943e-263
-2.61389e-257
1.14332e-260
-3.31918e-255
1.42016e-258
-3.9494e-253
1.64895e-256
-4.42043e-251
1.7962e-254
-4.67046e-249
1.84143e-252
-4.67338e-247
1.78173e-250
-4.44227e-245
1.63135e-248
-4.02282e-243
1.4168e-246
-3.48022e-241
1.16959e-244
-2.88398e-239
9.1948e-243
-2.29519e-237
6.89592e-241
-1.7587e-235
4.94134e-239
-1.30079e-233
3.38722e-237
-9.31005e-232
2.2235e-235
-6.46424e-230
1.39836e-233
-4.36508e-228
8.41906e-232
-2.8739e-226
4.8421e-230
-1.84953e-224
2.64926e-228
-1.16646e-222
1.36761e-226
-7.22969e-221
6.55039e-225
-4.53016e-219
2.80226e-223
-1.08032e-216
9.83444e-222
-5.45827e-213
5.81777e-220
-7.46199e-211
-3.37276e-209
-4.68861e-209
-2.30114e-207
-2.20385e-207
-9.15196e-206
-8.94364e-206
-3.06863e-204
-3.37289e-204
-9.48179e-203
-1.25258e-202
-2.84819e-201
-4.73459e-201
-8.92688e-200
-1.58446e-199
-2.9585e-198
-4.219e-198
-8.31721e-197
-8.92109e-197
-1.86626e-195
-1.56059e-195
-3.4413e-194
-2.31084e-194
-5.38767e-193
-2.94395e-193
-7.27211e-192
-3.26078e-192
-8.55551e-191
-3.1629e-191
-8.83993e-190
-2.70138e-190
-8.06771e-189
-2.04054e-189
-6.53225e-188
-1.36853e-188
-4.70802e-187
-8.18016e-188
-3.02919e-186
-4.37593e-187
-1.74537e-185
-2.10532e-186
-9.04323e-185
-9.16261e-186
-4.23628e-184
-3.629e-185
-1.80488e-183
-1.31442e-184
-7.03422e-183
-4.36515e-184
-2.51921e-182
-1.3306e-183
-8.30898e-182
-3.72906e-183
-2.52644e-181
-9.64869e-183
-7.09854e-181
-2.32052e-182
-1.85234e-180
-5.22653e-182
-4.52294e-180
-1.10974e-181
-1.0418e-179
-2.23173e-181
-2.27893e-179
-4.26084e-181
-4.75612e-179
-7.72071e-181
-9.49485e-179
-1.32475e-180
-1.81376e-178
-2.14815e-180
-3.31278e-178
-3.29061e-180
-5.78472e-178
-4.75863e-180
-9.6702e-178
-6.48349e-180
-1.55226e-177
-8.28517e-180
-2.40146e-177
-9.83289e-180
-3.59061e-177
-1.05994e-179
-5.20395e-177
-9.82759e-180
-7.33296e-177
-6.54155e-180
-1.00591e-176
3.47706e-181
-1.34555e-176
9.62766e-180
-1.75847e-176
2.45281e-179
-2.25008e-176
4.6533e-179
-2.81728e-176
7.7107e-179
-3.45754e-176
1.17544e-178
-4.15904e-176
1.68916e-178
-4.91969e-176
2.31711e-178
-5.71124e-176
3.05918e-178
-6.52658e-176
3.91061e-178
-7.34871e-176
4.85856e-178
-8.15965e-176
5.86655e-178
-8.88202e-176
6.77087e-178
-9.05172e-176
6.914e-178
-7.09665e-176
4.72716e-178
-8.59984e-177
9.31301e-179
1.3068e-179
4.48637e-181
3.18472e-181
7.41635e-184
-9.85353e-178
1.56474e-180
-8.85719e-176
8.04184e-178
5.37443e-176
-4.1705e-173
8.67528e-175
-2.33324e-172
2.20973e-174
-3.5926e-172
3.39906e-174
-3.86466e-172
4.30141e-174
-3.71873e-172
4.9402e-174
-3.43612e-172
5.33437e-174
-3.10545e-172
5.49905e-174
-2.7569e-172
5.45579e-174
-2.40602e-172
5.23425e-174
-2.06408e-172
4.87022e-174
-1.73995e-172
4.40251e-174
-1.44036e-172
3.87036e-174
-1.16989e-172
3.31028e-174
-9.31636e-173
2.75454e-174
-7.26591e-173
2.23272e-174
-5.55268e-173
1.76224e-174
-4.15396e-173
1.35209e-174
-3.03519e-173
1.00652e-174
-2.16089e-173
7.26212e-175
-1.49704e-173
5.06768e-175
-1.00674e-173
3.4111e-175
-6.55224e-174
2.20817e-175
-4.11359e-174
1.3707e-175
-2.48316e-174
8.13772e-176
-1.43715e-174
4.61262e-176
-7.95875e-175
2.49719e-176
-4.21842e-175
1.29306e-176
-2.14313e-175
6.40335e-177
-1.04369e-175
3.02519e-177
-4.86126e-176
1.35705e-177
-2.15558e-176
5.74067e-178
-9.03663e-177
2.27195e-178
-3.552e-177
8.35056e-179
-1.29881e-177
2.83698e-179
-4.39503e-178
8.89197e-180
-1.37339e-178
2.56894e-180
-3.95967e-179
6.82647e-181
-1.05112e-179
1.66139e-181
-2.55784e-180
3.68265e-182
-5.67228e-181
7.39387e-183
-1.13948e-181
1.33841e-183
-2.0629e-182
2.17618e-184
-3.35142e-183
3.1683e-185
-4.86818e-184
4.11857e-186
-6.30071e-185
4.76643e-187
-7.24e-186
4.89493e-188
-7.35572e-187
4.44226e-189
-6.57317e-188
3.54177e-190
-5.12812e-189
2.45817e-191
-3.45218e-190
1.46195e-192
-1.96476e-191
7.24295e-194
-9.09139e-193
2.91031e-195
-3.14205e-194
9.93738e-197
-5.84351e-196
3.59056e-198
2.14609e-201
1.41804e-199
2.61374e-202
5.73247e-201
1.782e-203
2.31396e-202
1.0179e-204
9.22779e-204
5.27659e-206
3.61603e-205
2.55639e-207
1.38799e-206
1.17357e-208
5.20717e-208
5.14187e-210
1.90597e-209
2.16126e-211
6.7959e-211
8.73426e-213
2.35688e-212
3.39796e-214
7.93849e-214
1.2733e-215
2.59291e-215
4.59604e-217
8.19983e-217
1.59748e-218
2.50662e-218
5.34332e-220
7.39445e-220
1.7184e-221
2.10134e-221
5.30768e-223
5.74197e-223
1.57254e-224
1.5058e-224
4.46272e-226
3.78215e-226
1.21121e-227
9.07914e-228
3.13845e-229
2.07827e-229
7.74961e-231
4.52542e-231
1.81981e-232
9.34937e-233
4.05494e-234
1.82746e-234
8.55254e-236
3.36915e-236
1.70294e-237
5.83895e-238
3.19165e-239
9.47698e-240
5.61217e-241
1.43456e-241
9.22512e-243
2.01578e-243
1.41179e-244
2.61534e-245
2.00225e-246
3.11392e-247
2.61775e-248
3.37813e-249
3.13583e-250
3.31104e-251
3.41744e-252
2.90241e-253
3.35981e-254
2.2472e-255
2.94978e-256
1.51284e-257
2.28411e-258
8.6766e-260
1.5356e-260
4.12385e-262
8.78194e-263
1.56105e-264
4.15539e-265
4.42391e-267
1.56324e-267
8.40326e-270
4.39311e-270
8.26946e-273
8.24845e-273
7.68171e-277
7.96363e-276
-5.42981e-273
5.60499e-276
-6.54067e-270
6.7108e-273
-3.7044e-267
3.80644e-270
-1.36513e-264
1.40647e-267
-3.71437e-262
3.83635e-265
-7.98642e-260
8.26358e-263
-1.41598e-257
1.46643e-260
-2.13157e-255
2.20717e-258
-2.78326e-253
2.87822e-256
-3.20409e-251
3.30506e-254
-3.29417e-249
3.38508e-252
-3.05647e-247
3.12472e-250
-2.58158e-245
2.62204e-248
-1.99946e-243
2.01465e-246
-1.42897e-241
1.42619e-244
-9.47475e-240
9.35186e-243
-5.85624e-238
5.70675e-241
-3.38852e-236
3.2542e-239
-1.8424e-234
1.74045e-237
-9.44539e-233
8.7594e-236
-4.58004e-231
4.16072e-234
-2.10654e-229
1.87031e-232
-9.21423e-228
7.97597e-231
-3.84239e-226
3.23408e-229
-1.53105e-224
1.24942e-227
-5.84195e-223
4.60764e-226
-2.1389e-221
1.62488e-224
-7.52882e-220
5.48818e-223
-2.55253e-218
1.77798e-221
-8.35013e-217
5.53189e-220
-2.64016e-215
1.65481e-218
-8.08149e-214
4.76371e-217
-2.39863e-212
1.32058e-215
-6.91362e-211
3.52678e-214
-1.93807e-209
9.0738e-213
-5.29176e-208
2.24794e-211
-1.4095e-206
5.35612e-210
-3.66854e-205
1.22473e-208
-9.34933e-204
2.6768e-207
-2.33987e-202
5.5493e-206
-5.77855e-201
1.07787e-204
-1.42149e-199
1.91068e-203
-3.55757e-198
2.88858e-202
-9.57688e-197
2.77237e-201
-2.79964e-195
-4.26202e-196
-7.0624e-194
-2.85545e-194
-1.44156e-192
-8.62311e-193
-2.44054e-191
-1.90195e-191
-3.53127e-190
-3.38071e-190
-4.44049e-189
-5.05788e-189
-4.89985e-188
-6.51192e-188
-4.7738e-187
-7.3069e-187
-4.12446e-186
-7.20342e-186
-3.17093e-185
-6.27397e-185
-2.17591e-184
-4.84848e-184
-1.33666e-183
-3.33676e-183
-7.37443e-183
-2.05234e-182
-3.66804e-182
-1.13249e-181
-1.65273e-181
-5.63112e-181
-6.7835e-181
-2.53656e-180
-2.55038e-180
-1.04144e-179
-8.82001e-180
-3.92025e-179
-2.81148e-179
-1.35876e-178
-8.26784e-179
-4.34501e-178
-2.24758e-178
-1.28305e-177
-5.67559e-178
-3.50661e-177
-1.34113e-177
-8.91725e-177
-2.98897e-177
-2.12658e-176
-6.32564e-177
-4.79532e-176
-1.27722e-176
-1.02948e-175
-2.46635e-176
-2.11386e-175
-4.55519e-176
-4.16069e-175
-8.03547e-176
-7.8495e-175
-1.35336e-175
-1.41735e-174
-2.18021e-175
-2.44893e-174
-3.36812e-175
-4.05698e-174
-5.00452e-175
-6.46228e-174
-7.17299e-175
-9.93053e-174
-9.94399e-175
-1.47703e-173
-1.33617e-174
-2.13255e-173
-1.74201e-174
-2.99612e-173
-2.20774e-174
-4.10151e-173
-2.72453e-174
-5.4837e-173
-3.27534e-174
-7.1767e-173
-3.83107e-174
-9.20322e-173
-4.36006e-174
-1.15593e-172
-4.82629e-174
-1.42349e-172
-5.19145e-174
-1.72025e-172
-5.41755e-174
-2.04183e-172
-5.46981e-174
-2.38201e-172
-5.31999e-174
-2.73316e-172
-4.94751e-174
-3.08597e-172
-4.33521e-174
-3.42831e-172
-3.45398e-174
-3.7339e-172
-2.26099e-174
-3.91221e-172
-8.85628e-175
-3.66161e-172
-5.32223e-176
-2.37409e-172
8.92629e-176
-4.15017e-173
9.42523e-178
7.76725e-178
1.48949e-180
-2.59015e-175
2.00193e-178
5.2183e-175
-6.44692e-173
1.43438e-172
-2.424e-170
8.04974e-172
-9.23344e-170
1.59005e-171
-1.30447e-169
2.20385e-171
-1.37307e-169
2.64659e-171
-1.31679e-169
2.9518e-171
-1.21965e-169
3.13347e-171
-1.10741e-169
3.1994e-171
-9.88914e-170
3.15974e-171
-8.68982e-170
3.0287e-171
-7.51268e-170
2.82369e-171
-6.38759e-170
2.56385e-171
-5.3381e-170
2.26873e-171
-4.38155e-170
1.95694e-171
-3.52929e-170
1.64525e-171
-2.78705e-170
1.34985e-171
-2.15924e-170
1.0804e-171
-1.63968e-170
8.42094e-172
-1.21766e-170
6.3791e-172
-8.82195e-171
4.69215e-172
-6.22835e-171
3.34407e-172
-4.27455e-171
2.30298e-172
-2.8432e-171
1.52794e-172
-1.82672e-171
9.73682e-173
-1.12994e-171
5.94398e-173
-6.70944e-172
3.46985e-173
-3.81669e-172
1.93789e-173
-2.08082e-172
1.03717e-173
-1.08914e-172
5.32105e-174
-5.47533e-173
2.61146e-174
-2.63851e-173
1.22062e-174
-1.21338e-173
5.39728e-175
-5.28815e-174
2.23949e-175
-2.16548e-174
8.65354e-176
-8.26357e-175
3.09857e-176
-2.92277e-175
1.02625e-176
-9.56235e-176
3.14217e-177
-2.89225e-176
8.87891e-178
-8.07239e-177
2.30641e-178
-2.06983e-177
5.47795e-179
-4.84555e-178
1.18327e-179
-1.02923e-178
2.31429e-180
-1.97296e-179
4.08493e-181
-3.39848e-180
6.49087e-182
-5.24078e-181
9.26687e-183
-7.21002e-182
1.18685e-183
-8.81726e-183
1.36178e-184
-9.5454e-184
1.39808e-185
-9.09958e-185
1.28251e-186
-7.58026e-186
1.04921e-187
-5.44852e-187
7.63131e-189
-3.29892e-188
4.90967e-190
-1.59366e-189
2.79656e-191
-5.17148e-191
1.49716e-192
7.44896e-197
8.15758e-194
1.53019e-196
4.44554e-195
1.6571e-197
2.39647e-196
1.34475e-198
1.26971e-197
9.56447e-200
6.5856e-199
6.25423e-201
3.33479e-200
3.83784e-202
1.64538e-201
2.2332e-203
7.89788e-203
1.23951e-204
3.68315e-204
6.58569e-206
1.66672e-205
3.35653e-207
7.31012e-207
1.64298e-208
3.10372e-208
7.72815e-210
1.27409e-209
3.49362e-211
5.0503e-211
1.51754e-212
1.93036e-212
6.33072e-214
7.10456e-214
2.53456e-215
2.51391e-215
9.7294e-217
8.53825e-217
3.57707e-218
2.77869e-218
1.25799e-219
8.64887e-220
4.22583e-221
2.56958e-221
1.35377e-222
7.27137e-223
4.12864e-224
1.95532e-224
1.19633e-225
4.98397e-226
3.28659e-227
1.20087e-227
8.53997e-229
2.72693e-229
2.09337e-230
5.8165e-231
4.82678e-232
1.16107e-232
1.04349e-233
2.16004e-234
2.10751e-235
3.72774e-236
3.9604e-237
5.93602e-238
6.89277e-239
8.6685e-240
1.1052e-240
1.15261e-241
1.62269e-242
1.38365e-243
2.16611e-244
1.4844e-245
2.60683e-246
1.40543e-247
2.79969e-248
1.15598e-249
2.64997e-250
8.09184e-252
2.17597e-252
4.6881e-254
1.51851e-254
2.15967e-256
8.75819e-257
7.42968e-259
4.01047e-259
1.70517e-261
1.36908e-261
1.99998e-264
3.11113e-264
1.5437e-268
3.59767e-267
-1.48832e-264
2.7737e-267
-1.43072e-261
2.67296e-264
-6.57425e-259
1.23447e-261
-1.97355e-256
3.72407e-259
-4.3804e-254
8.30026e-257
-7.68664e-252
1.46116e-254
-1.11229e-249
2.11878e-252
-1.36634e-247
2.60513e-250
-1.4554e-245
2.7741e-248
-1.36628e-243
2.60016e-246
-1.145e-241
2.17279e-244
-8.65569e-240
1.63562e-242
-5.95358e-238
1.11872e-240
-3.75315e-236
7.00281e-239
-2.18203e-234
4.03665e-237
-1.1763e-232
2.15419e-235
-5.90775e-231
1.06926e-233
-2.77581e-229
4.95686e-232
-1.22474e-227
2.15395e-230
-5.09144e-226
8.80212e-229
-2.00033e-224
3.39258e-227
-7.44776e-223
1.23655e-225
-2.6346e-221
4.27234e-224
-8.87523e-220
1.40229e-222
-2.85337e-218
4.38105e-221
-8.77245e-217
1.30515e-219
-2.58391e-215
3.71354e-218
-7.30442e-214
1.01062e-216
-1.98499e-212
2.63403e-215
-5.19355e-211
6.58212e-214
-1.31019e-209
1.57845e-212
-3.19127e-208
3.63529e-211
-7.51476e-207
8.04478e-210
-1.71288e-205
1.71105e-208
-3.78368e-204
3.4974e-207
-8.10936e-203
6.86634e-206
-1.68834e-201
1.29335e-204
-3.4189e-200
2.33263e-203
-6.744e-199
4.01468e-202
-1.29828e-197
6.55627e-201
-2.44546e-196
1.00595e-199
-4.52407e-195
1.4227e-198
-8.27016e-194
1.77583e-197
-1.5097e-192
1.70859e-196
-2.80105e-191
3.52698e-196
-4.93087e-190
-4.71381e-191
-7.68873e-189
-1.5395e-189
-1.0593e-187
-3.24915e-188
-1.29637e-186
-5.41787e-187
-1.41382e-185
-7.57803e-186
-1.37688e-184
-9.12439e-185
-1.19917e-183
-9.58624e-184
-9.35282e-183
-8.8599e-183
-6.54177e-182
-7.2436e-182
-4.11017e-181
-5.26128e-181
-2.32442e-180
-3.40778e-180
-1.18625e-179
-1.97547e-179
-5.48195e-179
-1.02889e-178
-2.30432e-178
-4.83623e-178
-8.85845e-178
-2.06283e-177
-3.13117e-177
-8.03521e-177
-1.02153e-176
-2.87602e-176
-3.08092e-176
-9.49994e-176
-8.59485e-176
-2.90098e-175
-2.22213e-175
-8.19419e-175
-5.35146e-175
-2.14549e-174
-1.20965e-174
-5.23607e-174
-2.58708e-174
-1.20096e-173
-5.27e-174
-2.61083e-173
-1.02701e-173
-5.41687e-173
-1.91859e-173
-1.07736e-172
-3.43478e-173
-2.0581e-172
-5.88306e-173
-3.77472e-172
-9.636e-173
-6.63514e-172
-1.51208e-172
-1.11737e-171
-2.27917e-172
-1.80643e-171
-3.30984e-172
-2.81183e-171
-4.64482e-172
-4.22795e-171
-6.31593e-172
-6.16157e-171
-8.33943e-172
-8.72919e-171
-1.07022e-171
-1.20514e-170
-1.33749e-171
-1.6232e-170
-1.63063e-171
-2.13799e-170
-1.94019e-171
-2.76026e-170
-2.25021e-171
-3.49632e-170
-2.54416e-171
-4.34207e-170
-2.80368e-171
-5.29213e-170
-3.00953e-171
-6.33595e-170
-3.14291e-171
-7.45727e-170
-3.18673e-171
-8.63399e-170
-3.12716e-171
-9.83919e-170
-2.95409e-171
-1.1041e-169
-2.65857e-171
-1.21978e-169
-2.22259e-171
-1.3226e-169
-1.60589e-171
-1.38579e-169
-8.07535e-172
-1.32011e-169
-1.40437e-172
-9.29904e-170
-4.73937e-175
-2.39056e-170
2.51516e-175
-5.6492e-173
1.9208e-178
-1.90542e-173
6.16299e-177
2.3306e-172
-3.8248e-170
3.28288e-170
-4.27744e-168
1.54909e-169
-1.39719e-167
2.87603e-169
-1.89222e-167
3.88719e-169
-1.9707e-167
4.61698e-169
-1.88883e-167
5.1272e-169
-1.75492e-167
5.44045e-169
-1.60124e-167
5.56729e-169
-1.43867e-167
5.5216e-169
-1.27323e-167
5.32389e-169
-1.10968e-167
5.00016e-169
-9.52036e-168
4.57977e-169
-8.03581e-168
4.09338e-169
-6.66843e-168
3.57089e-169
-5.43589e-168
3.04006e-169
-4.34881e-168
2.52928e-169
-3.41743e-168
2.05579e-169
-2.63566e-168
1.62946e-169
-1.99033e-168
1.25698e-169
-1.46815e-168
9.42964e-170
-1.05684e-168
6.8646e-170
-7.406e-169
4.83618e-170
-5.03701e-169
3.28714e-170
-3.31363e-169
2.14896e-170
-2.10144e-169
1.34762e-170
-1.2809e-169
8.09176e-171
-7.48862e-170
4.65507e-171
-4.20158e-170
2.57075e-171
-2.26687e-170
1.36365e-171
-1.17691e-170
6.93579e-172
-5.86977e-171
3.36816e-172
-2.80022e-171
1.55119e-172
-1.26886e-171
6.71883e-173
-5.41281e-172
2.71522e-173
-2.15507e-172
1.01853e-173
-7.9635e-173
3.54053e-174
-2.72624e-173
1.14026e-174
-8.64495e-174
3.39746e-175
-2.53498e-174
9.32829e-176
-6.84188e-175
2.34697e-176
-1.68843e-175
5.38085e-177
-3.78444e-176
1.11914e-177
-7.66136e-177
2.10467e-178
-1.39459e-177
3.57046e-179
-2.27376e-178
5.45458e-180
-3.30835e-179
7.49489e-181
-4.27952e-180
9.25553e-182
-4.90035e-181
1.02687e-182
-4.9404e-182
1.02355e-183
-4.35155e-183
9.16838e-185
-3.3063e-184
7.38257e-186
-2.11479e-185
5.3449e-187
-1.0756e-186
3.49457e-188
-3.59035e-188
2.16083e-189
5.41455e-193
1.33357e-190
3.80878e-193
8.13554e-192
4.47588e-194
4.87424e-193
3.99426e-195
2.85661e-194
3.12567e-196
1.6335e-195
2.24609e-197
9.09752e-197
1.5126e-198
4.92744e-198
9.64712e-200
2.59212e-199
5.86176e-201
1.32286e-200
3.40528e-202
6.54192e-202
1.89535e-203
3.13145e-203
1.01197e-204
1.44925e-204
5.18627e-206
6.47734e-206
2.55171e-207
2.79238e-207
1.20511e-208
1.15962e-208
5.46077e-210
4.63267e-210
2.37263e-211
1.77781e-211
9.87606e-213
6.54335e-213
3.93427e-214
2.30595e-214
1.49813e-215
7.76704e-216
5.44556e-217
2.49559e-217
1.88657e-218
7.63301e-219
6.21858e-220
2.21735e-220
1.94656e-221
6.10257e-222
5.7741e-223
1.58691e-223
1.61928e-224
3.88741e-225
4.28207e-226
8.94125e-227
1.06471e-227
1.92385e-228
2.4812e-229
3.85644e-230
5.39986e-231
7.16839e-232
1.09303e-232
1.22903e-233
2.04839e-234
1.93173e-235
3.53538e-236
2.76352e-237
5.58538e-238
3.56802e-239
8.01994e-240
4.11536e-241
1.03782e-241
4.18749e-243
1.19807e-243
3.69999e-245
1.21846e-245
2.78104e-247
1.0746e-247
1.72917e-249
8.05091e-250
8.54338e-252
4.98262e-252
3.14936e-254
2.44679e-254
7.73316e-257
8.95036e-257
9.66343e-260
2.17655e-259
6.93391e-264
2.68417e-262
-7.50426e-260
2.14205e-262
-6.67314e-257
1.91346e-259
-2.84899e-254
8.21878e-257
-7.95419e-252
2.30752e-254
-1.64238e-249
4.7871e-252
-2.68105e-247
7.84317e-250
-3.60859e-245
1.05831e-247
-4.12236e-243
1.21057e-245
-4.08259e-241
1.19896e-243
-3.56245e-239
1.04492e-241
-2.77429e-237
8.11665e-240
-1.94833e-235
5.67792e-238
-1.24459e-233
3.60783e-236
-7.2844e-232
2.0974e-234
-3.93071e-230
1.12248e-232
-1.96605e-228
5.5596e-231
-9.15827e-227
2.56038e-229
-3.98966e-225
1.10087e-227
-1.63146e-223
4.4352e-226
-6.28315e-222
1.67975e-224
-2.28586e-220
5.9978e-223
-7.8773e-219
2.02435e-221
-2.57778e-217
6.4737e-220
-8.02875e-216
1.96569e-218
-2.38506e-214
5.67819e-217
-6.7709e-213
1.56312e-215
-1.84024e-211
4.10711e-214
-4.79639e-210
1.03146e-212
-1.20073e-208
2.47892e-211
-2.89139e-207
5.70728e-210
-6.70643e-206
1.25987e-208
-1.50024e-204
2.66835e-207
-3.24073e-203
5.4247e-206
-6.76768e-202
1.05876e-204
-1.36784e-200
1.98356e-203
-2.6786e-199
3.565e-202
-5.08787e-198
6.13952e-201
-9.38475e-197
1.01108e-199
-1.68313e-195
1.58684e-198
-2.93932e-194
2.3599e-197
-5.00704e-193
3.29249e-196
-8.34003e-192
4.22769e-195
-1.36342e-190
4.78734e-194
-2.20132e-189
4.20634e-193
-3.54482e-188
1.03714e-192
-5.42855e-187
-3.33417e-188
-7.50912e-186
-1.05405e-186
-9.33326e-185
-2.10739e-185
-1.04219e-183
-3.32083e-184
-1.04522e-182
-4.38883e-183
-9.41299e-182
-4.99311e-182
-7.61268e-181
-4.95635e-181
-5.53128e-180
-4.32764e-180
-3.61379e-179
-3.34265e-179
-2.12576e-178
-2.29417e-178
-1.12788e-177
-1.40468e-177
-5.41097e-177
-7.70197e-177
-2.35514e-176
-3.79688e-176
-9.34297e-176
-1.69068e-175
-3.3973e-175
-6.83897e-175
-1.13865e-174
-2.53018e-174
-3.53117e-174
-8.6183e-174
-1.01459e-173
-2.71494e-173
-2.70145e-173
-7.92191e-173
-6.67755e-173
-2.14147e-172
-1.54039e-172
-5.37338e-172
-3.34279e-172
-1.25868e-171
-6.88078e-172
-2.77645e-171
-1.35242e-171
-5.81805e-171
-2.54893e-171
-1.16626e-170
-4.61464e-171
-2.24594e-170
-8.02005e-171
-4.16221e-170
-1.33546e-170
-7.41765e-170
-2.12932e-170
-1.26865e-169
-3.25695e-170
-2.0812e-169
-4.79191e-170
-3.28173e-169
-6.80235e-170
-4.98891e-169
-9.3453e-170
-7.33622e-169
-1.24593e-169
-1.04705e-168
-1.61545e-169
-1.45481e-168
-2.03859e-169
-1.97266e-168
-2.50872e-169
-2.61288e-168
-3.01612e-169
-3.38871e-168
-3.54387e-169
-4.31335e-168
-4.06393e-169
-5.39325e-168
-4.54886e-169
-6.61867e-168
-4.96907e-169
-7.97944e-168
-5.29428e-169
-9.45884e-168
-5.49547e-169
-1.1033e-167
-5.54689e-169
-1.26709e-167
-5.42818e-169
-1.43352e-167
-5.12505e-169
-1.59825e-167
-4.62504e-169
-1.75572e-167
-3.90076e-169
-1.89516e-167
-2.88385e-169
-1.98274e-167
-1.542e-169
-1.90473e-167
-3.20248e-170
-1.39839e-167
-2.15913e-172
-4.20468e-168
1.98743e-173
-3.55253e-170
5.90832e-177
-8.96368e-172
1.45021e-175
3.29223e-170
-5.68101e-168
3.3716e-168
-4.00871e-166
1.45228e-167
-1.18415e-165
2.61785e-167
-1.55871e-165
3.50599e-167
-1.61294e-165
4.15645e-167
-1.54702e-165
4.62237e-167
-1.44236e-165
4.92171e-167
-1.32267e-165
5.06156e-167
-1.19572e-165
5.0516e-167
-1.06582e-165
4.90712e-167
-9.36491e-166
4.64835e-167
-8.10774e-166
4.29882e-167
-6.9125e-166
3.88374e-167
-5.79983e-166
3.42834e-167
-4.78504e-166
2.95673e-167
-3.8785e-166
2.49521e-167
-3.09175e-166
2.05989e-167
-2.42191e-166
1.66043e-167
-1.85992e-166
1.30427e-167
-1.39694e-166
9.97782e-168
-1.02541e-166
7.41807e-168
-7.33803e-167
5.34491e-168
-5.10406e-167
3.72065e-168
-3.43879e-167
2.49442e-168
-2.23651e-167
1.60616e-168
-1.39983e-167
9.91463e-169
-8.41382e-168
5.87157e-169
-4.85972e-168
3.34343e-169
-2.70349e-168
1.8322e-169
-1.44993e-168
9.64813e-170
-7.48595e-169
4.86216e-170
-3.70539e-169
2.32905e-170
-1.74601e-169
1.05133e-170
-7.7607e-170
4.43461e-171
-3.22439e-170
1.73872e-171
-1.24504e-170
6.3273e-172
-4.46091e-171
2.13746e-172
-1.48342e-171
6.69462e-173
-4.57143e-172
1.93593e-173
-1.29911e-172
5.13761e-174
-3.38011e-173
1.24379e-174
-7.99497e-174
2.73397e-175
-1.70909e-174
5.43777e-176
-3.28666e-175
9.76233e-177
-5.66277e-176
1.57902e-177
-8.70735e-177
2.29795e-178
-1.19001e-177
3.00639e-179
-1.43891e-178
3.53479e-180
-1.53071e-179
3.73574e-181
-1.42142e-180
3.55119e-182
-1.13767e-181
3.03957e-183
-7.66237e-183
2.34573e-184
-4.10725e-184
1.63952e-185
-1.45428e-185
1.07999e-186
2.8752e-190
7.06112e-188
2.67264e-190
4.54786e-189
3.34741e-191
2.86974e-190
3.15701e-192
1.76793e-191
2.6016e-193
1.061e-192
1.96421e-194
6.19326e-194
1.38745e-195
3.51191e-195
9.26958e-197
1.93245e-196
5.89404e-198
1.03074e-197
3.57997e-199
5.32375e-199
2.08173e-200
2.65978e-200
1.1604e-201
1.28397e-201
6.20454e-203
5.98206e-203
3.18289e-204
2.68664e-204
1.56634e-205
1.16167e-205
7.39132e-207
4.82927e-207
3.3424e-208
1.92746e-208
1.44722e-209
7.37442e-210
5.99396e-211
2.70018e-211
2.37182e-212
9.44519e-213
8.95478e-214
3.15029e-214
3.22086e-215
9.998e-216
1.10178e-216
3.01245e-217
3.57767e-218
8.59614e-219
1.10047e-219
2.31683e-220
3.19907e-221
5.88033e-222
8.76628e-223
1.40088e-223
2.25793e-224
3.12103e-225
5.44903e-226
6.47603e-227
1.22769e-227
1.2457e-228
2.57192e-229
2.20953e-230
4.98694e-231
3.59179e-232
8.90292e-233
5.31296e-234
1.45448e-234
7.0908e-236
2.15909e-236
8.45191e-238
2.88769e-238
8.88517e-240
3.4445e-240
8.10885e-242
3.61874e-242
6.29349e-244
3.29591e-244
4.03941e-246
2.54938e-246
2.05949e-248
1.62847e-248
7.83103e-251
8.25105e-251
1.9822e-253
3.11295e-253
2.54955e-256
7.8032e-256
1.79305e-260
9.90675e-259
-2.01994e-256
8.04642e-259
-1.73673e-253
6.95464e-256
-7.17834e-251
2.89315e-253
-1.94065e-248
7.86799e-251
-3.87998e-246
1.58092e-248
-6.13209e-244
2.5083e-246
-7.98942e-242
3.27695e-244
-8.83313e-240
3.62847e-242
-8.46457e-238
3.47794e-240
-7.14535e-236
2.93282e-238
-5.38185e-234
2.20375e-236
-3.65463e-232
1.49091e-234
-2.25683e-230
9.15954e-233
-1.27659e-228
5.14713e-231
-6.6557e-227
2.66194e-229
-3.21561e-225
1.27376e-227
-1.44644e-223
5.66556e-226
-6.08292e-222
2.35202e-224
-2.4005e-220
9.14647e-223
-8.91883e-219
3.34256e-221
-3.12918e-217
1.15125e-219
-1.03956e-215
3.74675e-218
-3.27821e-214
1.15491e-216
-9.83511e-213
3.37881e-215
-2.81307e-211
9.40005e-214
-7.68556e-210
2.49109e-212
-2.00927e-208
6.29809e-211
-5.03487e-207
1.52118e-209
-1.21114e-205
3.51414e-208
-2.80081e-204
7.77269e-207
-6.23504e-203
1.64741e-205
-1.33787e-201
3.348e-204
-2.77032e-200
6.52696e-203
-5.54219e-199
1.22079e-201
-1.07237e-197
2.19027e-200
-2.00899e-196
3.76714e-199
-3.64786e-195
6.20367e-198
-6.42658e-194
9.7607e-197
-1.09971e-192
1.46204e-195
-1.83003e-191
2.07249e-194
-2.96597e-190
2.75135e-193
-4.69143e-189
3.35349e-192
-7.26616e-188
3.59044e-191
-1.10787e-186
2.95424e-190
-1.67577e-185
5.9342e-190
-2.39976e-184
-1.3755e-185
-3.11238e-183
-4.07036e-184
-3.6374e-182
-7.70528e-183
-3.82547e-181
-1.15174e-181
-3.6168e-180
-1.44377e-180
-3.07217e-179
-1.55693e-179
-2.34419e-178
-1.46372e-178
-1.60748e-177
-1.20957e-177
-9.91531e-177
-8.83775e-177
-5.50935e-176
-5.7367e-176
-2.76292e-175
-3.32233e-175
-1.25379e-174
-1.72363e-174
-5.16655e-174
-8.04399e-174
-1.94267e-173
-3.39312e-173
-6.70578e-173
-1.30146e-172
-2.13782e-172
-4.57203e-172
-6.31989e-172
-1.48161e-171
-1.73438e-171
-4.45019e-171
-4.41774e-171
-1.24055e-170
-1.0461e-170
-3.20884e-170
-2.3154e-170
-7.71484e-170
-4.83068e-170
-1.73427e-169
-9.58144e-170
-3.67852e-169
-1.8189e-169
-7.429e-169
-3.31824e-169
-1.4385e-168
-5.82601e-169
-2.68162e-168
-9.83573e-169
-4.81966e-168
-1.5931e-168
-8.34336e-168
-2.47379e-168
-1.38794e-167
-3.68968e-168
-2.21736e-167
-5.3005e-168
-3.40933e-167
-7.35696e-168
-5.06065e-167
-9.89667e-168
-7.27645e-167
-1.29384e-167
-1.01695e-166
-1.64741e-167
-1.38565e-166
-2.04417e-167
-1.84524e-166
-2.4767e-167
-2.40335e-166
-2.93547e-167
-3.06879e-166
-3.40465e-167
-3.85071e-166
-3.85822e-167
-4.75222e-166
-4.27226e-167
-5.76222e-166
-4.62177e-167
-6.87077e-166
-4.88176e-167
-8.0631e-166
-5.02883e-167
-9.3194e-166
-5.04283e-167
-1.06152e-165
-4.90836e-167
-1.19215e-165
-4.61526e-167
-1.32051e-165
-4.15506e-167
-1.44246e-165
-3.507e-167
-1.55009e-165
-2.61472e-167
-1.6185e-165
-1.44124e-167
-1.56313e-165
-3.29315e-168
-1.18093e-165
-3.09167e-170
-3.93863e-166
1.00058e-171
-5.35126e-168
1.43521e-175
-5.86387e-170
7.67539e-174
2.67736e-168
-4.74453e-166
2.14718e-166
-2.41745e-164
8.64398e-166
-6.59036e-164
1.52842e-165
-8.48341e-164
2.03926e-165
-8.74105e-164
2.42086e-165
-8.39679e-164
2.70162e-165
-7.8588e-164
2.8905e-165
-7.24402e-164
2.99036e-165
-6.58977e-164
3.00538e-165
-5.91653e-164
2.9428e-165
-5.24129e-164
2.81273e-165
-4.57932e-164
2.62727e-165
-3.94385e-164
2.39978e-165
-3.3459e-164
2.14398e-165
-2.79405e-164
1.87338e-165
-2.29465e-164
1.60376e-165
-1.85564e-164
1.34478e-165
-1.47652e-164
1.1024e-165
-1.15319e-164
8.81754e-166
-8.81973e-165
6.87877e-166
-6.60234e-165
5.22274e-166
-4.82567e-165
3.84873e-166
-3.4335e-165
2.74398e-166
-2.36984e-165
1.88673e-166
-1.58127e-165
1.24756e-166
-1.01677e-165
7.91788e-167
-6.28639e-166
4.82749e-167
-3.73991e-166
2.83455e-167
-2.14633e-166
1.60471e-167
-1.18966e-166
8.74808e-168
-6.36108e-167
4.57442e-168
-3.26826e-167
2.27876e-168
-1.60225e-167
1.07181e-168
-7.42463e-168
4.71806e-169
-3.22123e-168
1.93308e-169
-1.30072e-168
7.3626e-170
-4.88172e-169
2.60834e-170
-1.704e-169
8.58571e-171
-5.52462e-170
2.61418e-171
-1.65498e-170
7.31443e-172
-4.54547e-171
1.86862e-172
-1.13599e-171
4.33702e-173
-2.56768e-172
9.11251e-174
-5.22391e-173
1.72863e-174
-9.52574e-174
2.95437e-175
-1.55033e-174
4.54166e-176
-2.24206e-175
6.27272e-177
-2.86703e-176
7.7792e-178
-3.22267e-177
8.66261e-179
-3.1587e-178
8.66639e-180
-2.66568e-179
7.79757e-181
-1.89184e-180
6.31909e-182
-1.0698e-181
4.63132e-183
-4.03945e-183
3.18421e-184
5.76527e-188
2.16846e-185
1.01703e-187
1.45276e-186
1.34716e-188
9.52509e-188
1.32784e-189
6.09102e-189
1.1392e-190
3.79058e-190
8.93526e-192
2.29228e-191
6.54686e-193
1.34547e-192
4.53162e-194
7.65733e-194
2.98233e-195
4.22139e-195
1.87329e-196
2.25206e-196
1.12568e-197
1.16147e-197
6.47999e-199
5.7846e-199
3.57593e-200
2.77903e-200
1.89219e-201
1.28633e-201
9.59956e-203
5.72934e-203
4.66747e-204
2.45227e-204
2.17364e-205
1.00723e-205
9.68763e-207
3.96389e-207
4.128e-208
1.49224e-208
1.67976e-209
5.36436e-210
6.51876e-211
1.83795e-211
2.409e-212
5.98959e-213
8.46318e-214
1.8524e-214
2.82124e-215
5.42357e-216
8.90544e-217
1.4993e-217
2.65569e-218
3.90176e-219
7.46269e-220
9.52757e-221
1.97048e-221
2.17504e-222
4.87336e-223
4.62313e-224
1.12489e-224
9.10696e-226
2.41361e-226
1.65377e-227
4.7919e-228