/*--------------------------------*- C++ -*----------------------------------*\
| =========                 |                                                 |
| \\      /  F ield         | OpenFOAM: The Open Source CFD Toolbox           |
|  \\    /   O peration     | Version:  2412                                  |
|   \\  /    A nd           | Website:  www.openfoam.com                      |
|    \\/     M anipulation  |                                                 |
\*---------------------------------------------------------------------------*/
FoamFile
{
    version     2.0;
    format      ascii;
    arch        "LSB;label=32;scalar=64";
    class       volScalarField;
    location    "1.5";
    object      p;
}
// * * * * * * * * * * * * * * * * * * * * * * * * * * * * * * * * * * * * * //

dimensions      [1 -1 -2 0 0 0 0];

internalField   nonuniform List<scalar> 
40000
(
0
0.00153813
0.00262292
0.00356098
0.00445383
0.00535266
0.00628646
0.00727994
0.00834714
0.00949181
0.0107144
0.0120167
0.0134021
0.0148731
0.0164307
0.0180744
0.0198037
0.0216197
0.0235178
0.0254989
0.0275613
0.0297035
0.0319237
0.0342203
0.0365915
0.0390352
0.0415492
0.0441308
0.0467771
0.0494857
0.0522541
0.0550803
0.0579621
0.0608975
0.063884
0.0669191
0.0699999
0.0731232
0.0762861
0.0794854
0.0827181
0.0859812
0.0892713
0.0925855
0.0959205
0.099273
0.10264
0.106017
0.109401
0.112789
0.116176
0.119559
0.122934
0.126298
0.129647
0.132979
0.136289
0.139575
0.142833
0.14606
0.149253
0.152408
0.155522
0.158596
0.161626
0.16461
0.167543
0.170425
0.17325
0.176016
0.178721
0.181362
0.183935
0.186439
0.188871
0.191228
0.193507
0.195707
0.197825
0.199859
0.201809
0.203672
0.205447
0.207131
0.208724
0.210222
0.211626
0.212933
0.214144
0.215256
0.216271
0.217184
0.217997
0.218707
0.219315
0.21982
0.220223
0.220523
0.220721
0.220816
0.220808
0.220696
0.220482
0.220164
0.219743
0.219218
0.218592
0.217863
0.217033
0.216103
0.215073
0.213944
0.212717
0.211393
0.209973
0.20846
0.206854
0.205157
0.203372
0.201501
0.199544
0.197505
0.195385
0.193186
0.190909
0.188556
0.186129
0.183631
0.181064
0.17843
0.175734
0.172977
0.170162
0.167292
0.164369
0.161397
0.158378
0.155315
0.152215
0.149075
0.145899
0.142691
0.139454
0.136189
0.1329
0.129591
0.126266
0.122928
0.11958
0.116225
0.112866
0.10951
0.106159
0.102819
0.0994904
0.0961758
0.0928776
0.0895994
0.0863456
0.0831204
0.0799278
0.076771
0.0736528
0.0705765
0.0675451
0.0645615
0.0616282
0.0587476
0.0559224
0.0531553
0.0504496
0.0478082
0.0452335
0.0427278
0.0402929
0.0379299
0.035641
0.0334302
0.0313005
0.0292528
0.0272891
0.0254117
0.023622
0.021917
0.0203068
0.018789
0.0173647
0.0160346
0.0147998
0.0136631
0.0126268
0.011691
0.0108569
0.0101246
0.00949281
0.00896151
0.0085321
0.00820667
0.00799649
0.00790421
-3.92266
-3.92199
-3.92121
-3.92042
-3.91959
-3.91871
-3.91778
-3.9168
-3.91574
-3.91461
-3.91339
-3.91208
-3.9107
-3.90923
-3.90767
-3.90603
-3.9043
-3.90248
-3.90058
-3.8986
-3.89653
-3.89439
-3.89217
-3.88987
-3.88749
-3.88505
-3.88253
-3.87995
-3.8773
-3.87459
-3.87182
-3.86899
-3.8661
-3.86316
-3.86018
-3.85714
-3.85405
-3.85093
-3.84776
-3.84456
-3.84132
-3.83805
-3.83476
-3.83144
-3.8281
-3.82475
-3.82138
-3.818
-3.81461
-3.81122
-3.80783
-3.80444
-3.80106
-3.79769
-3.79434
-3.791
-3.78769
-3.7844
-3.78114
-3.77791
-3.77471
-3.77155
-3.76843
-3.76535
-3.76232
-3.75933
-3.75639
-3.75351
-3.75068
-3.74791
-3.7452
-3.74256
-3.73998
-3.73748
-3.73504
-3.73268
-3.7304
-3.7282
-3.72608
-3.72404
-3.72209
-3.72022
-3.71845
-3.71676
-3.71517
-3.71367
-3.71226
-3.71095
-3.70974
-3.70863
-3.70761
-3.70669
-3.70588
-3.70517
-3.70456
-3.70406
-3.70365
-3.70335
-3.70316
-3.70306
-3.70307
-3.70318
-3.70339
-3.70371
-3.70413
-3.70466
-3.70529
-3.70602
-3.70685
-3.70778
-3.70881
-3.70994
-3.71117
-3.71249
-3.71392
-3.71543
-3.71704
-3.71874
-3.72052
-3.7224
-3.72436
-3.7264
-3.72852
-3.73072
-3.733
-3.73536
-3.73779
-3.74029
-3.74286
-3.7455
-3.7482
-3.75096
-3.75377
-3.75665
-3.75957
-3.76255
-3.76557
-3.76864
-3.77174
-3.77489
-3.77807
-3.78128
-3.78452
-3.78779
-3.79108
-3.7944
-3.79772
-3.80107
-3.80442
-3.80778
-3.81114
-3.8145
-3.81785
-3.8212
-3.82453
-3.82785
-3.83115
-3.83444
-3.83769
-3.84092
-3.84412
-3.84728
-3.8504
-3.85348
-3.85651
-3.8595
-3.86244
-3.86532
-3.86815
-3.87092
-3.87363
-3.87627
-3.87885
-3.88136
-3.8838
-3.88616
-3.88845
-3.89067
-3.8928
-3.89485
-3.89681
-3.89869
-3.90049
-3.90219
-3.9038
-3.90532
-3.90675
-3.90808
-3.90931
-3.91045
-3.91149
-3.91243
-3.91326
-3.91399
-3.91463
-3.91516
-3.91558
-3.91591
-3.91611
-3.9162
-7.84601
-7.84563
-7.84506
-7.84439
-7.84364
-7.84282
-7.84192
-7.84094
-7.8399
-7.83877
-7.83756
-7.83626
-7.83487
-7.8334
-7.83185
-7.8302
-7.82847
-7.82665
-7.82475
-7.82277
-7.8207
-7.81855
-7.81633
-7.81402
-7.81165
-7.80919
-7.80667
-7.80409
-7.80143
-7.79872
-7.79594
-7.79311
-7.79022
-7.78727
-7.78428
-7.78123
-7.77814
-7.77501
-7.77184
-7.76863
-7.76539
-7.76212
-7.75882
-7.75549
-7.75215
-7.74878
-7.74541
-7.74202
-7.73862
-7.73522
-7.73183
-7.72843
-7.72505
-7.72167
-7.71831
-7.71497
-7.71165
-7.70835
-7.70508
-7.70185
-7.69864
-7.69548
-7.69235
-7.68926
-7.68622
-7.68323
-7.68029
-7.6774
-7.67456
-7.67179
-7.66908
-7.66643
-7.66385
-7.66133
-7.65889
-7.65653
-7.65424
-7.65204
-7.64991
-7.64787
-7.64592
-7.64405
-7.64227
-7.64058
-7.63898
-7.63747
-7.63607
-7.63475
-7.63354
-7.63242
-7.6314
-7.63049
-7.62967
-7.62896
-7.62835
-7.62785
-7.62744
-7.62714
-7.62694
-7.62685
-7.62685
-7.62697
-7.62718
-7.6275
-7.62792
-7.62845
-7.62908
-7.62981
-7.63064
-7.63158
-7.63261
-7.63374
-7.63497
-7.6363
-7.63772
-7.63924
-7.64085
-7.64255
-7.64434
-7.64622
-7.64818
-7.65023
-7.65236
-7.65456
-7.65685
-7.65921
-7.66164
-7.66415
-7.66673
-7.66937
-7.67207
-7.67484
-7.67766
-7.68054
-7.68347
-7.68645
-7.68948
-7.69256
-7.69567
-7.69882
-7.70201
-7.70523
-7.70848
-7.71175
-7.71505
-7.71837
-7.7217
-7.72505
-7.72841
-7.73178
-7.73515
-7.73851
-7.74187
-7.74523
-7.74857
-7.7519
-7.75521
-7.75849
-7.76176
-7.76499
-7.76819
-7.77136
-7.77449
-7.77757
-7.78061
-7.7836
-7.78655
-7.78944
-7.79227
-7.79505
-7.79776
-7.80041
-7.80299
-7.80551
-7.80795
-7.81032
-7.81262
-7.81483
-7.81697
-7.81902
-7.82099
-7.82288
-7.82467
-7.82638
-7.82799
-7.82952
-7.83095
-7.83228
-7.83352
-7.83466
-7.8357
-7.83663
-7.83747
-7.8382
-7.83884
-7.83936
-7.83979
-7.84011
-7.84032
-7.84042
-11.7697
-11.7695
-11.769
-11.7684
-11.7678
-11.767
-11.7661
-11.7652
-11.7641
-11.763
-11.7618
-11.7605
-11.7591
-11.7577
-11.7561
-11.7545
-11.7527
-11.7509
-11.749
-11.747
-11.7449
-11.7428
-11.7406
-11.7383
-11.7359
-11.7334
-11.7309
-11.7283
-11.7256
-11.7229
-11.7201
-11.7173
-11.7144
-11.7114
-11.7084
-11.7054
-11.7023
-11.6991
-11.696
-11.6927
-11.6895
-11.6862
-11.6829
-11.6796
-11.6762
-11.6728
-11.6694
-11.666
-11.6626
-11.6592
-11.6558
-11.6524
-11.649
-11.6456
-11.6423
-11.6389
-11.6356
-11.6323
-11.629
-11.6258
-11.6225
-11.6194
-11.6162
-11.6131
-11.6101
-11.6071
-11.6041
-11.6012
-11.5984
-11.5956
-11.5929
-11.5902
-11.5876
-11.5851
-11.5827
-11.5803
-11.578
-11.5758
-11.5737
-11.5716
-11.5697
-11.5678
-11.566
-11.5643
-11.5627
-11.5612
-11.5598
-11.5585
-11.5572
-11.5561
-11.5551
-11.5542
-11.5534
-11.5527
-11.552
-11.5515
-11.5511
-11.5508
-11.5506
-11.5505
-11.5505
-11.5507
-11.5509
-11.5512
-11.5516
-11.5521
-11.5528
-11.5535
-11.5543
-11.5553
-11.5563
-11.5575
-11.5587
-11.56
-11.5614
-11.563
-11.5646
-11.5663
-11.5681
-11.57
-11.5719
-11.574
-11.5761
-11.5783
-11.5806
-11.583
-11.5854
-11.5879
-11.5905
-11.5932
-11.5959
-11.5987
-11.6015
-11.6044
-11.6073
-11.6103
-11.6134
-11.6164
-11.6196
-11.6227
-11.6259
-11.6292
-11.6324
-11.6357
-11.639
-11.6423
-11.6457
-11.649
-11.6524
-11.6558
-11.6592
-11.6625
-11.6659
-11.6693
-11.6726
-11.676
-11.6793
-11.6826
-11.6859
-11.6891
-11.6923
-11.6955
-11.6986
-11.7017
-11.7048
-11.7078
-11.7107
-11.7136
-11.7165
-11.7192
-11.722
-11.7246
-11.7272
-11.7297
-11.7322
-11.7346
-11.7369
-11.7391
-11.7412
-11.7433
-11.7453
-11.7472
-11.749
-11.7507
-11.7523
-11.7538
-11.7552
-11.7566
-11.7578
-11.759
-11.76
-11.7609
-11.7618
-11.7625
-11.7632
-11.7637
-11.7641
-11.7644
-11.7646
-11.7647
-15.6937
-15.6935
-15.6931
-15.6926
-15.692
-15.6913
-15.6904
-15.6895
-15.6885
-15.6874
-15.6862
-15.6849
-15.6835
-15.682
-15.6805
-15.6788
-15.6771
-15.6753
-15.6734
-15.6714
-15.6693
-15.6671
-15.6649
-15.6626
-15.6602
-15.6577
-15.6552
-15.6526
-15.6499
-15.6472
-15.6444
-15.6415
-15.6386
-15.6356
-15.6326
-15.6296
-15.6265
-15.6233
-15.6201
-15.6169
-15.6136
-15.6103
-15.607
-15.6037
-15.6003
-15.5969
-15.5935
-15.5901
-15.5867
-15.5832
-15.5798
-15.5764
-15.573
-15.5696
-15.5662
-15.5628
-15.5595
-15.5562
-15.5529
-15.5496
-15.5464
-15.5432
-15.5401
-15.537
-15.5339
-15.5309
-15.5279
-15.525
-15.5222
-15.5194
-15.5166
-15.514
-15.5114
-15.5088
-15.5064
-15.504
-15.5017
-15.4995
-15.4973
-15.4953
-15.4933
-15.4914
-15.4896
-15.4879
-15.4863
-15.4848
-15.4834
-15.4821
-15.4809
-15.4797
-15.4787
-15.4778
-15.477
-15.4763
-15.4756
-15.4751
-15.4747
-15.4744
-15.4742
-15.4741
-15.4741
-15.4742
-15.4745
-15.4748
-15.4752
-15.4757
-15.4764
-15.4771
-15.4779
-15.4789
-15.4799
-15.4811
-15.4823
-15.4836
-15.4851
-15.4866
-15.4882
-15.4899
-15.4917
-15.4936
-15.4956
-15.4977
-15.4998
-15.502
-15.5043
-15.5067
-15.5092
-15.5117
-15.5143
-15.5169
-15.5197
-15.5224
-15.5253
-15.5282
-15.5311
-15.5341
-15.5372
-15.5403
-15.5434
-15.5466
-15.5498
-15.553
-15.5563
-15.5596
-15.5629
-15.5663
-15.5696
-15.573
-15.5764
-15.5798
-15.5832
-15.5866
-15.5899
-15.5933
-15.5967
-15.6
-15.6034
-15.6067
-15.61
-15.6132
-15.6165
-15.6196
-15.6228
-15.6259
-15.629
-15.632
-15.6349
-15.6379
-15.6407
-15.6435
-15.6462
-15.6489
-15.6515
-15.654
-15.6565
-15.6589
-15.6612
-15.6634
-15.6656
-15.6676
-15.6696
-15.6715
-15.6733
-15.6751
-15.6767
-15.6782
-15.6797
-15.681
-15.6822
-15.6834
-15.6844
-15.6854
-15.6862
-15.6869
-15.6876
-15.6881
-15.6885
-15.6889
-15.6891
-15.6892
-19.6179
-19.6177
-19.6174
-19.6169
-19.6163
-19.6156
-19.6148
-19.6139
-19.6129
-19.6118
-19.6106
-19.6093
-19.608
-19.6065
-19.6049
-19.6033
-19.6015
-19.5997
-19.5978
-19.5958
-19.5937
-19.5915
-19.5893
-19.587
-19.5846
-19.5821
-19.5795
-19.5769
-19.5742
-19.5715
-19.5687
-19.5658
-19.5629
-19.5599
-19.5569
-19.5538
-19.5507
-19.5475
-19.5443
-19.5411
-19.5378
-19.5345
-19.5311
-19.5278
-19.5244
-19.521
-19.5176
-19.5141
-19.5107
-19.5073
-19.5038
-19.5004
-19.497
-19.4935
-19.4901
-19.4868
-19.4834
-19.4801
-19.4767
-19.4735
-19.4702
-19.467
-19.4639
-19.4607
-19.4577
-19.4546
-19.4516
-19.4487
-19.4459
-19.4431
-19.4403
-19.4376
-19.435
-19.4325
-19.43
-19.4276
-19.4253
-19.4231
-19.4209
-19.4189
-19.4169
-19.415
-19.4132
-19.4115
-19.4099
-19.4084
-19.4069
-19.4056
-19.4044
-19.4033
-19.4022
-19.4013
-19.4005
-19.3998
-19.3991
-19.3986
-19.3982
-19.3979
-19.3977
-19.3976
-19.3976
-19.3977
-19.398
-19.3983
-19.3987
-19.3992
-19.3999
-19.4006
-19.4015
-19.4024
-19.4035
-19.4046
-19.4058
-19.4072
-19.4086
-19.4102
-19.4118
-19.4135
-19.4153
-19.4172
-19.4192
-19.4213
-19.4234
-19.4256
-19.428
-19.4303
-19.4328
-19.4353
-19.4379
-19.4406
-19.4434
-19.4462
-19.449
-19.4519
-19.4549
-19.4579
-19.461
-19.4641
-19.4672
-19.4704
-19.4736
-19.4769
-19.4802
-19.4835
-19.4869
-19.4902
-19.4936
-19.497
-19.5004
-19.5038
-19.5072
-19.5106
-19.514
-19.5174
-19.5208
-19.5241
-19.5275
-19.5308
-19.5341
-19.5374
-19.5406
-19.5438
-19.547
-19.5501
-19.5532
-19.5562
-19.5592
-19.5621
-19.565
-19.5678
-19.5706
-19.5733
-19.5759
-19.5784
-19.5809
-19.5833
-19.5856
-19.5879
-19.59
-19.5921
-19.5941
-19.596
-19.5978
-19.5995
-19.6012
-19.6027
-19.6042
-19.6055
-19.6068
-19.6079
-19.609
-19.6099
-19.6107
-19.6115
-19.6121
-19.6127
-19.6131
-19.6134
-19.6136
-19.6137
-23.5422
-23.5421
-23.5418
-23.5413
-23.5408
-23.5401
-23.5393
-23.5384
-23.5374
-23.5363
-23.5352
-23.5339
-23.5325
-23.531
-23.5295
-23.5278
-23.5261
-23.5242
-23.5223
-23.5203
-23.5182
-23.516
-23.5138
-23.5114
-23.509
-23.5065
-23.504
-23.5013
-23.4986
-23.4959
-23.4931
-23.4902
-23.4872
-23.4842
-23.4812
-23.4781
-23.4749
-23.4718
-23.4685
-23.4653
-23.462
-23.4586
-23.4553
-23.4519
-23.4485
-23.4451
-23.4416
-23.4382
-23.4347
-23.4313
-23.4278
-23.4243
-23.4209
-23.4175
-23.414
-23.4106
-23.4073
-23.4039
-23.4006
-23.3973
-23.394
-23.3908
-23.3876
-23.3845
-23.3814
-23.3783
-23.3753
-23.3724
-23.3695
-23.3667
-23.3639
-23.3612
-23.3586
-23.3561
-23.3536
-23.3512
-23.3489
-23.3466
-23.3445
-23.3424
-23.3404
-23.3385
-23.3367
-23.335
-23.3333
-23.3318
-23.3304
-23.3291
-23.3278
-23.3267
-23.3257
-23.3247
-23.3239
-23.3232
-23.3226
-23.322
-23.3216
-23.3213
-23.3211
-23.321
-23.321
-23.3211
-23.3214
-23.3217
-23.3221
-23.3226
-23.3233
-23.324
-23.3249
-23.3258
-23.3269
-23.328
-23.3293
-23.3306
-23.3321
-23.3336
-23.3353
-23.337
-23.3388
-23.3407
-23.3427
-23.3448
-23.3469
-23.3492
-23.3515
-23.3539
-23.3564
-23.3589
-23.3616
-23.3642
-23.367
-23.3698
-23.3727
-23.3756
-23.3786
-23.3816
-23.3847
-23.3878
-23.391
-23.3942
-23.3975
-23.4007
-23.4041
-23.4074
-23.4107
-23.4141
-23.4175
-23.4209
-23.4243
-23.4278
-23.4312
-23.4346
-23.4381
-23.4415
-23.4449
-23.4483
-23.4516
-23.455
-23.4583
-23.4616
-23.4649
-23.4681
-23.4713
-23.4744
-23.4775
-23.4806
-23.4836
-23.4865
-23.4894
-23.4922
-23.495
-23.4977
-23.5003
-23.5029
-23.5054
-23.5078
-23.5101
-23.5124
-23.5145
-23.5166
-23.5186
-23.5205
-23.5224
-23.5241
-23.5258
-23.5273
-23.5288
-23.5301
-23.5314
-23.5325
-23.5336
-23.5345
-23.5354
-23.5361
-23.5368
-23.5373
-23.5377
-23.5381
-23.5383
-23.5384
-27.4667
-27.4666
-27.4663
-27.4659
-27.4653
-27.4647
-27.4639
-27.463
-27.4621
-27.461
-27.4598
-27.4585
-27.4571
-27.4557
-27.4541
-27.4524
-27.4507
-27.4488
-27.4469
-27.4449
-27.4428
-27.4406
-27.4383
-27.436
-27.4335
-27.431
-27.4285
-27.4258
-27.4231
-27.4203
-27.4175
-27.4146
-27.4116
-27.4086
-27.4055
-27.4024
-27.3993
-27.3961
-27.3928
-27.3895
-27.3862
-27.3828
-27.3795
-27.376
-27.3726
-27.3692
-27.3657
-27.3622
-27.3588
-27.3553
-27.3518
-27.3483
-27.3448
-27.3414
-27.3379
-27.3345
-27.3311
-27.3277
-27.3244
-27.3211
-27.3178
-27.3145
-27.3113
-27.3082
-27.305
-27.302
-27.299
-27.296
-27.2931
-27.2903
-27.2875
-27.2848
-27.2821
-27.2796
-27.2771
-27.2747
-27.2723
-27.2701
-27.2679
-27.2658
-27.2638
-27.2619
-27.2601
-27.2583
-27.2567
-27.2552
-27.2537
-27.2524
-27.2512
-27.25
-27.249
-27.2481
-27.2472
-27.2465
-27.2459
-27.2453
-27.2449
-27.2446
-27.2444
-27.2443
-27.2443
-27.2444
-27.2447
-27.245
-27.2454
-27.246
-27.2466
-27.2474
-27.2482
-27.2492
-27.2502
-27.2514
-27.2526
-27.254
-27.2555
-27.257
-27.2586
-27.2604
-27.2622
-27.2641
-27.2661
-27.2682
-27.2704
-27.2727
-27.275
-27.2774
-27.2799
-27.2825
-27.2851
-27.2878
-27.2906
-27.2934
-27.2963
-27.2992
-27.3022
-27.3053
-27.3084
-27.3116
-27.3147
-27.318
-27.3212
-27.3245
-27.3279
-27.3312
-27.3346
-27.338
-27.3414
-27.3449
-27.3483
-27.3518
-27.3552
-27.3587
-27.3621
-27.3656
-27.369
-27.3724
-27.3758
-27.3792
-27.3825
-27.3858
-27.3891
-27.3924
-27.3956
-27.3987
-27.4019
-27.4049
-27.4079
-27.4109
-27.4138
-27.4167
-27.4195
-27.4222
-27.4248
-27.4274
-27.4299
-27.4323
-27.4347
-27.437
-27.4391
-27.4413
-27.4433
-27.4452
-27.447
-27.4488
-27.4505
-27.452
-27.4535
-27.4548
-27.4561
-27.4573
-27.4583
-27.4593
-27.4601
-27.4609
-27.4615
-27.4621
-27.4625
-27.4628
-27.4631
-27.4632
-31.3914
-31.3912
-31.391
-31.3906
-31.39
-31.3894
-31.3886
-31.3878
-31.3868
-31.3857
-31.3846
-31.3833
-31.3819
-31.3804
-31.3788
-31.3772
-31.3754
-31.3736
-31.3716
-31.3696
-31.3675
-31.3653
-31.363
-31.3606
-31.3582
-31.3556
-31.353
-31.3504
-31.3476
-31.3449
-31.342
-31.3391
-31.3361
-31.333
-31.33
-31.3268
-31.3236
-31.3204
-31.3171
-31.3138
-31.3104
-31.3071
-31.3036
-31.3002
-31.2968
-31.2933
-31.2898
-31.2863
-31.2828
-31.2793
-31.2758
-31.2723
-31.2688
-31.2653
-31.2618
-31.2584
-31.2549
-31.2515
-31.2481
-31.2448
-31.2415
-31.2382
-31.235
-31.2318
-31.2287
-31.2256
-31.2225
-31.2195
-31.2166
-31.2138
-31.211
-31.2083
-31.2056
-31.203
-31.2005
-31.1981
-31.1957
-31.1934
-31.1912
-31.1891
-31.1871
-31.1852
-31.1834
-31.1816
-31.18
-31.1785
-31.177
-31.1757
-31.1744
-31.1733
-31.1722
-31.1713
-31.1704
-31.1697
-31.1691
-31.1685
-31.1681
-31.1678
-31.1676
-31.1675
-31.1675
-31.1676
-31.1679
-31.1682
-31.1686
-31.1692
-31.1698
-31.1706
-31.1714
-31.1724
-31.1735
-31.1746
-31.1759
-31.1773
-31.1787
-31.1803
-31.1819
-31.1837
-31.1855
-31.1875
-31.1895
-31.1916
-31.1938
-31.1961
-31.1984
-31.2008
-31.2034
-31.2059
-31.2086
-31.2113
-31.2141
-31.2169
-31.2199
-31.2228
-31.2259
-31.2289
-31.2321
-31.2352
-31.2384
-31.2417
-31.245
-31.2483
-31.2517
-31.2551
-31.2585
-31.2619
-31.2654
-31.2688
-31.2723
-31.2758
-31.2792
-31.2827
-31.2862
-31.2897
-31.2931
-31.2966
-31.3
-31.3034
-31.3068
-31.3101
-31.3134
-31.3167
-31.3199
-31.3231
-31.3263
-31.3293
-31.3324
-31.3354
-31.3383
-31.3412
-31.344
-31.3467
-31.3494
-31.352
-31.3545
-31.357
-31.3594
-31.3616
-31.3638
-31.366
-31.368
-31.37
-31.3718
-31.3736
-31.3752
-31.3768
-31.3783
-31.3797
-31.3809
-31.3821
-31.3832
-31.3841
-31.385
-31.3858
-31.3864
-31.387
-31.3874
-31.3877
-31.3879
-31.3881
-35.3161
-35.316
-35.3158
-35.3154
-35.3149
-35.3142
-35.3135
-35.3126
-35.3117
-35.3106
-35.3094
-35.3081
-35.3067
-35.3053
-35.3037
-35.302
-35.3002
-35.2984
-35.2964
-35.2944
-35.2922
-35.29
-35.2877
-35.2853
-35.2829
-35.2803
-35.2777
-35.275
-35.2723
-35.2694
-35.2666
-35.2636
-35.2606
-35.2575
-35.2544
-35.2512
-35.248
-35.2448
-35.2415
-35.2381
-35.2347
-35.2313
-35.2279
-35.2244
-35.2209
-35.2174
-35.2139
-35.2104
-35.2068
-35.2033
-35.1997
-35.1962
-35.1927
-35.1892
-35.1857
-35.1822
-35.1787
-35.1753
-35.1719
-35.1685
-35.1652
-35.1619
-35.1586
-35.1554
-35.1522
-35.1491
-35.146
-35.143
-35.1401
-35.1372
-35.1344
-35.1317
-35.129
-35.1264
-35.1238
-35.1214
-35.119
-35.1167
-35.1145
-35.1124
-35.1104
-35.1084
-35.1066
-35.1049
-35.1032
-35.1016
-35.1002
-35.0988
-35.0976
-35.0964
-35.0954
-35.0944
-35.0936
-35.0928
-35.0922
-35.0917
-35.0912
-35.0909
-35.0907
-35.0906
-35.0906
-35.0907
-35.091
-35.0913
-35.0917
-35.0923
-35.093
-35.0937
-35.0946
-35.0956
-35.0966
-35.0978
-35.0991
-35.1004
-35.1019
-35.1035
-35.1052
-35.1069
-35.1088
-35.1107
-35.1128
-35.1149
-35.1171
-35.1194
-35.1217
-35.1242
-35.1267
-35.1293
-35.132
-35.1347
-35.1376
-35.1404
-35.1434
-35.1464
-35.1494
-35.1525
-35.1557
-35.1589
-35.1621
-35.1654
-35.1687
-35.1721
-35.1755
-35.1789
-35.1823
-35.1858
-35.1892
-35.1927
-35.1962
-35.1997
-35.2033
-35.2068
-35.2103
-35.2138
-35.2173
-35.2207
-35.2242
-35.2276
-35.231
-35.2344
-35.2377
-35.241
-35.2443
-35.2475
-35.2507
-35.2538
-35.2569
-35.2599
-35.2629
-35.2658
-35.2686
-35.2714
-35.2741
-35.2767
-35.2792
-35.2817
-35.2841
-35.2864
-35.2886
-35.2908
-35.2928
-35.2948
-35.2967
-35.2984
-35.3001
-35.3017
-35.3032
-35.3046
-35.3059
-35.307
-35.3081
-35.3091
-35.31
-35.3107
-35.3114
-35.3119
-35.3124
-35.3127
-35.3129
-35.3131
-39.2411
-39.2409
-39.2407
-39.2403
-39.2398
-39.2392
-39.2384
-39.2376
-39.2366
-39.2355
-39.2344
-39.2331
-39.2317
-39.2302
-39.2286
-39.2269
-39.2251
-39.2233
-39.2213
-39.2192
-39.2171
-39.2148
-39.2125
-39.2101
-39.2076
-39.2051
-39.2024
-39.1997
-39.1969
-39.1941
-39.1912
-39.1882
-39.1852
-39.1821
-39.1789
-39.1757
-39.1725
-39.1692
-39.1658
-39.1625
-39.159
-39.1556
-39.1521
-39.1486
-39.1451
-39.1416
-39.138
-39.1344
-39.1309
-39.1273
-39.1237
-39.1201
-39.1166
-39.113
-39.1095
-39.106
-39.1025
-39.099
-39.0956
-39.0922
-39.0888
-39.0855
-39.0822
-39.0789
-39.0757
-39.0726
-39.0695
-39.0665
-39.0635
-39.0606
-39.0578
-39.055
-39.0523
-39.0497
-39.0471
-39.0446
-39.0423
-39.0399
-39.0377
-39.0356
-39.0335
-39.0316
-39.0297
-39.028
-39.0263
-39.0247
-39.0233
-39.0219
-39.0206
-39.0195
-39.0184
-39.0174
-39.0166
-39.0158
-39.0152
-39.0147
-39.0142
-39.0139
-39.0137
-39.0136
-39.0136
-39.0137
-39.014
-39.0143
-39.0148
-39.0153
-39.016
-39.0167
-39.0176
-39.0186
-39.0197
-39.0209
-39.0221
-39.0235
-39.025
-39.0266
-39.0283
-39.0301
-39.0319
-39.0339
-39.0359
-39.0381
-39.0403
-39.0426
-39.045
-39.0475
-39.05
-39.0527
-39.0553
-39.0581
-39.0609
-39.0638
-39.0668
-39.0698
-39.0729
-39.076
-39.0792
-39.0825
-39.0857
-39.089
-39.0924
-39.0958
-39.0992
-39.1027
-39.1061
-39.1096
-39.1131
-39.1167
-39.1202
-39.1237
-39.1273
-39.1308
-39.1344
-39.1379
-39.1414
-39.1449
-39.1484
-39.1519
-39.1553
-39.1587
-39.1621
-39.1654
-39.1687
-39.172
-39.1752
-39.1784
-39.1815
-39.1845
-39.1875
-39.1904
-39.1933
-39.1961
-39.1988
-39.2014
-39.204
-39.2065
-39.2089
-39.2113
-39.2135
-39.2157
-39.2178
-39.2197
-39.2216
-39.2234
-39.2251
-39.2267
-39.2282
-39.2296
-39.2309
-39.2321
-39.2332
-39.2342
-39.2351
-39.2358
-39.2365
-39.237
-39.2375
-39.2378
-39.2381
-39.2382
-43.1661
-43.166
-43.1657
-43.1654
-43.1649
-43.1642
-43.1635
-43.1626
-43.1617
-43.1606
-43.1594
-43.1581
-43.1567
-43.1552
-43.1536
-43.1519
-43.1501
-43.1482
-43.1463
-43.1442
-43.142
-43.1398
-43.1374
-43.135
-43.1325
-43.1299
-43.1272
-43.1245
-43.1217
-43.1188
-43.1159
-43.1129
-43.1098
-43.1067
-43.1035
-43.1002
-43.097
-43.0936
-43.0903
-43.0868
-43.0834
-43.0799
-43.0764
-43.0728
-43.0693
-43.0657
-43.0621
-43.0585
-43.0549
-43.0513
-43.0477
-43.0441
-43.0405
-43.0369
-43.0333
-43.0298
-43.0262
-43.0227
-43.0193
-43.0158
-43.0124
-43.009
-43.0057
-43.0024
-42.9992
-42.996
-42.9929
-42.9899
-42.9869
-42.9839
-42.9811
-42.9783
-42.9755
-42.9729
-42.9703
-42.9678
-42.9654
-42.9631
-42.9608
-42.9587
-42.9566
-42.9547
-42.9528
-42.951
-42.9493
-42.9477
-42.9463
-42.9449
-42.9436
-42.9424
-42.9413
-42.9404
-42.9395
-42.9388
-42.9381
-42.9376
-42.9371
-42.9368
-42.9366
-42.9365
-42.9365
-42.9367
-42.9369
-42.9372
-42.9377
-42.9382
-42.9389
-42.9397
-42.9406
-42.9415
-42.9426
-42.9438
-42.9451
-42.9465
-42.948
-42.9496
-42.9513
-42.9531
-42.955
-42.957
-42.959
-42.9612
-42.9634
-42.9658
-42.9682
-42.9707
-42.9733
-42.9759
-42.9786
-42.9814
-42.9843
-42.9872
-42.9902
-42.9932
-42.9964
-42.9995
-43.0027
-43.006
-43.0093
-43.0127
-43.016
-43.0195
-43.0229
-43.0264
-43.0299
-43.0335
-43.037
-43.0406
-43.0441
-43.0477
-43.0513
-43.0549
-43.0585
-43.062
-43.0656
-43.0691
-43.0727
-43.0762
-43.0797
-43.0831
-43.0865
-43.0899
-43.0932
-43.0965
-43.0998
-43.1029
-43.1061
-43.1092
-43.1122
-43.1151
-43.118
-43.1209
-43.1236
-43.1263
-43.1289
-43.1314
-43.1339
-43.1362
-43.1385
-43.1407
-43.1428
-43.1448
-43.1467
-43.1485
-43.1502
-43.1518
-43.1533
-43.1547
-43.1561
-43.1573
-43.1584
-43.1594
-43.1602
-43.161
-43.1617
-43.1623
-43.1627
-43.1631
-43.1633
-43.1634
-47.0913
-47.0912
-47.0909
-47.0905
-47.09
-47.0894
-47.0887
-47.0878
-47.0869
-47.0858
-47.0846
-47.0833
-47.0819
-47.0804
-47.0788
-47.0771
-47.0752
-47.0733
-47.0713
-47.0692
-47.067
-47.0648
-47.0624
-47.06
-47.0574
-47.0548
-47.0521
-47.0494
-47.0465
-47.0436
-47.0406
-47.0376
-47.0345
-47.0313
-47.0281
-47.0248
-47.0215
-47.0181
-47.0147
-47.0113
-47.0078
-47.0042
-47.0007
-46.9971
-46.9935
-46.9899
-46.9862
-46.9826
-46.979
-46.9753
-46.9716
-46.968
-46.9644
-46.9607
-46.9571
-46.9535
-46.95
-46.9464
-46.9429
-46.9394
-46.936
-46.9326
-46.9292
-46.9259
-46.9226
-46.9194
-46.9163
-46.9132
-46.9101
-46.9072
-46.9043
-46.9015
-46.8987
-46.896
-46.8934
-46.8909
-46.8885
-46.8861
-46.8839
-46.8817
-46.8796
-46.8776
-46.8757
-46.8739
-46.8722
-46.8706
-46.8691
-46.8678
-46.8665
-46.8653
-46.8642
-46.8632
-46.8623
-46.8616
-46.8609
-46.8604
-46.86
-46.8596
-46.8594
-46.8593
-46.8593
-46.8595
-46.8597
-46.86
-46.8605
-46.8611
-46.8617
-46.8625
-46.8634
-46.8644
-46.8655
-46.8667
-46.868
-46.8694
-46.8709
-46.8725
-46.8743
-46.8761
-46.878
-46.88
-46.8821
-46.8842
-46.8865
-46.8889
-46.8913
-46.8938
-46.8964
-46.8991
-46.9018
-46.9047
-46.9075
-46.9105
-46.9135
-46.9166
-46.9198
-46.923
-46.9262
-46.9295
-46.9328
-46.9362
-46.9397
-46.9431
-46.9466
-46.9501
-46.9537
-46.9573
-46.9609
-46.9645
-46.9681
-46.9717
-46.9753
-46.979
-46.9826
-46.9862
-46.9898
-46.9934
-46.9969
-47.0005
-47.004
-47.0075
-47.011
-47.0144
-47.0177
-47.0211
-47.0244
-47.0276
-47.0308
-47.0339
-47.0369
-47.0399
-47.0428
-47.0457
-47.0485
-47.0512
-47.0538
-47.0564
-47.0589
-47.0613
-47.0636
-47.0658
-47.0679
-47.0699
-47.0718
-47.0737
-47.0754
-47.077
-47.0786
-47.08
-47.0813
-47.0825
-47.0837
-47.0847
-47.0856
-47.0863
-47.087
-47.0876
-47.0881
-47.0884
-47.0886
-47.0887
-51.0166
-51.0165
-51.0162
-51.0158
-51.0153
-51.0147
-51.014
-51.0131
-51.0122
-51.0111
-51.0099
-51.0086
-51.0072
-51.0056
-51.004
-51.0023
-51.0005
-50.9985
-50.9965
-50.9944
-50.9922
-50.9899
-50.9875
-50.985
-50.9824
-50.9798
-50.9771
-50.9743
-50.9714
-50.9685
-50.9654
-50.9624
-50.9592
-50.956
-50.9528
-50.9494
-50.9461
-50.9427
-50.9392
-50.9357
-50.9322
-50.9286
-50.925
-50.9214
-50.9177
-50.9141
-50.9104
-50.9067
-50.903
-50.8993
-50.8956
-50.8919
-50.8882
-50.8846
-50.8809
-50.8773
-50.8736
-50.8701
-50.8665
-50.863
-50.8595
-50.856
-50.8526
-50.8493
-50.846
-50.8427
-50.8395
-50.8364
-50.8334
-50.8304
-50.8274
-50.8246
-50.8218
-50.8191
-50.8165
-50.8139
-50.8115
-50.8091
-50.8068
-50.8046
-50.8025
-50.8005
-50.7986
-50.7968
-50.7951
-50.7935
-50.7919
-50.7905
-50.7892
-50.788
-50.7869
-50.786
-50.7851
-50.7843
-50.7836
-50.7831
-50.7827
-50.7823
-50.7821
-50.782
-50.782
-50.7822
-50.7824
-50.7828
-50.7832
-50.7838
-50.7845
-50.7853
-50.7862
-50.7872
-50.7883
-50.7895
-50.7908
-50.7922
-50.7938
-50.7954
-50.7971
-50.7989
-50.8009
-50.8029
-50.805
-50.8072
-50.8095
-50.8119
-50.8143
-50.8169
-50.8195
-50.8222
-50.825
-50.8278
-50.8308
-50.8337
-50.8368
-50.8399
-50.8431
-50.8463
-50.8496
-50.853
-50.8563
-50.8598
-50.8632
-50.8667
-50.8703
-50.8739
-50.8775
-50.8811
-50.8847
-50.8884
-50.892
-50.8957
-50.8994
-50.903
-50.9067
-50.9104
-50.914
-50.9176
-50.9212
-50.9248
-50.9284
-50.9319
-50.9354
-50.9389
-50.9423
-50.9457
-50.949
-50.9523
-50.9555
-50.9586
-50.9617
-50.9648
-50.9677
-50.9706
-50.9735
-50.9762
-50.9789
-50.9815
-50.984
-50.9864
-50.9887
-50.9909
-50.9931
-50.9951
-50.9971
-50.9989
-51.0007
-51.0024
-51.0039
-51.0053
-51.0067
-51.0079
-51.0091
-51.0101
-51.011
-51.0118
-51.0125
-51.013
-51.0135
-51.0139
-51.0141
-51.0142
-54.942
-54.9419
-54.9417
-54.9413
-54.9408
-54.9402
-54.9394
-54.9386
-54.9376
-54.9365
-54.9353
-54.934
-54.9325
-54.931
-54.9294
-54.9276
-54.9258
-54.9238
-54.9218
-54.9196
-54.9174
-54.9151
-54.9126
-54.9101
-54.9075
-54.9049
-54.9021
-54.8993
-54.8964
-54.8934
-54.8903
-54.8872
-54.884
-54.8808
-54.8775
-54.8741
-54.8707
-54.8672
-54.8637
-54.8602
-54.8566
-54.853
-54.8493
-54.8457
-54.842
-54.8383
-54.8345
-54.8308
-54.8271
-54.8233
-54.8196
-54.8158
-54.8121
-54.8084
-54.8047
-54.801
-54.7973
-54.7937
-54.7901
-54.7865
-54.783
-54.7795
-54.776
-54.7726
-54.7693
-54.766
-54.7628
-54.7596
-54.7565
-54.7535
-54.7505
-54.7476
-54.7448
-54.7421
-54.7394
-54.7369
-54.7344
-54.732
-54.7297
-54.7275
-54.7253
-54.7233
-54.7214
-54.7195
-54.7178
-54.7162
-54.7146
-54.7132
-54.7119
-54.7107
-54.7096
-54.7086
-54.7077
-54.7069
-54.7063
-54.7057
-54.7053
-54.7049
-54.7047
-54.7046
-54.7047
-54.7048
-54.705
-54.7054
-54.7058
-54.7064
-54.7071
-54.7079
-54.7088
-54.7098
-54.7109
-54.7122
-54.7135
-54.7149
-54.7165
-54.7181
-54.7199
-54.7217
-54.7237
-54.7257
-54.7278
-54.7301
-54.7324
-54.7348
-54.7373
-54.7398
-54.7425
-54.7452
-54.748
-54.7509
-54.7539
-54.7569
-54.76
-54.7632
-54.7664
-54.7697
-54.773
-54.7764
-54.7798
-54.7833
-54.7868
-54.7903
-54.7939
-54.7975
-54.8012
-54.8049
-54.8085
-54.8122
-54.8159
-54.8197
-54.8234
-54.8271
-54.8308
-54.8345
-54.8382
-54.8419
-54.8456
-54.8492
-54.8528
-54.8564
-54.8599
-54.8635
-54.8669
-54.8703
-54.8737
-54.877
-54.8803
-54.8835
-54.8866
-54.8897
-54.8927
-54.8956
-54.8985
-54.9013
-54.904
-54.9066
-54.9091
-54.9116
-54.914
-54.9162
-54.9184
-54.9205
-54.9224
-54.9243
-54.9261
-54.9278
-54.9294
-54.9308
-54.9322
-54.9334
-54.9346
-54.9356
-54.9365
-54.9373
-54.938
-54.9386
-54.9391
-54.9394
-54.9397
-54.9398
-58.8676
-58.8675
-58.8672
-58.8668
-58.8663
-58.8657
-58.865
-58.8641
-58.8631
-58.862
-58.8608
-58.8595
-58.858
-58.8565
-58.8548
-58.8531
-58.8512
-58.8492
-58.8471
-58.845
-58.8427
-58.8404
-58.8379
-58.8354
-58.8327
-58.83
-58.8272
-58.8244
-58.8214
-58.8184
-58.8153
-58.8121
-58.8089
-58.8056
-58.8023
-58.7988
-58.7954
-58.7919
-58.7883
-58.7847
-58.7811
-58.7774
-58.7737
-58.77
-58.7662
-58.7625
-58.7587
-58.7549
-58.7511
-58.7473
-58.7435
-58.7397
-58.7359
-58.7322
-58.7284
-58.7247
-58.721
-58.7173
-58.7136
-58.71
-58.7064
-58.7029
-58.6994
-58.6959
-58.6926
-58.6892
-58.686
-58.6828
-58.6796
-58.6765
-58.6735
-58.6706
-58.6678
-58.665
-58.6623
-58.6597
-58.6572
-58.6548
-58.6524
-58.6502
-58.6481
-58.646
-58.6441
-58.6422
-58.6405
-58.6388
-58.6373
-58.6358
-58.6345
-58.6333
-58.6321
-58.6311
-58.6302
-58.6295
-58.6288
-58.6282
-58.6278
-58.6275
-58.6272
-58.6271
-58.6272
-58.6273
-58.6275
-58.6279
-58.6284
-58.6289
-58.6296
-58.6304
-58.6313
-58.6324
-58.6335
-58.6347
-58.6361
-58.6375
-58.6391
-58.6408
-58.6425
-58.6444
-58.6464
-58.6484
-58.6506
-58.6528
-58.6552
-58.6576
-58.6601
-58.6627
-58.6654
-58.6682
-58.671
-58.674
-58.677
-58.68
-58.6832
-58.6864
-58.6896
-58.6929
-58.6963
-58.6997
-58.7032
-58.7067
-58.7103
-58.7139
-58.7175
-58.7212
-58.7249
-58.7286
-58.7323
-58.7361
-58.7399
-58.7436
-58.7474
-58.7512
-58.755
-58.7587
-58.7625
-58.7662
-58.7699
-58.7736
-58.7773
-58.7809
-58.7845
-58.7881
-58.7916
-58.795
-58.7985
-58.8018
-58.8051
-58.8084
-58.8116
-58.8147
-58.8177
-58.8207
-58.8236
-58.8264
-58.8292
-58.8319
-58.8344
-58.8369
-58.8393
-58.8416
-58.8438
-58.8459
-58.8479
-58.8498
-58.8516
-58.8533
-58.8549
-58.8564
-58.8578
-58.859
-58.8602
-58.8613
-58.8622
-58.863
-58.8637
-58.8643
-58.8648
-58.8651
-58.8654
-58.8655
-62.7933
-62.7932
-62.7929
-62.7925
-62.792
-62.7914
-62.7906
-62.7898
-62.7888
-62.7877
-62.7864
-62.7851
-62.7836
-62.7821
-62.7804
-62.7786
-62.7767
-62.7747
-62.7726
-62.7704
-62.7681
-62.7657
-62.7633
-62.7607
-62.758
-62.7553
-62.7524
-62.7495
-62.7465
-62.7435
-62.7403
-62.7371
-62.7338
-62.7305
-62.7271
-62.7236
-62.7201
-62.7165
-62.7129
-62.7093
-62.7056
-62.7019
-62.6981
-62.6943
-62.6905
-62.6867
-62.6829
-62.679
-62.6752
-62.6713
-62.6675
-62.6636
-62.6598
-62.6559
-62.6521
-62.6483
-62.6446
-62.6408
-62.6371
-62.6334
-62.6298