/*--------------------------------*- C++ -*----------------------------------*\
| =========                 |                                                 |
| \\      /  F ield         | OpenFOAM: The Open Source CFD Toolbox           |
|  \\    /   O peration     | Version:  2412                                  |
|   \\  /    A nd           | Website:  www.openfoam.com                      |
|    \\/     M anipulation  |                                                 |
\*---------------------------------------------------------------------------*/
FoamFile
{
    version     2.0;
    format      ascii;
    arch        "LSB;label=32;scalar=64";
    class       volScalarField;
    location    "1.5";
    object      p_rgh;
}
// * * * * * * * * * * * * * * * * * * * * * * * * * * * * * * * * * * * * * //

dimensions      [1 -1 -2 0 0 0 0];

internalField   nonuniform List<scalar> 
40000
(
1.962
1.96354
1.96462
1.96556
1.96645
1.96735
1.96829
1.96928
1.97035
1.97149
1.97271
1.97402
1.9754
1.97687
1.97843
1.98007
1.9818
1.98362
1.98552
1.9875
1.98956
1.9917
1.99392
1.99622
1.99859
2.00104
2.00355
2.00613
2.00878
2.01149
2.01425
2.01708
2.01996
2.0229
2.02588
2.02892
2.032
2.03512
2.03829
2.04149
2.04472
2.04798
2.05127
2.05459
2.05792
2.06127
2.06464
2.06802
2.0714
2.07479
2.07818
2.08156
2.08493
2.0883
2.09165
2.09498
2.09829
2.10158
2.10483
2.10806
2.11125
2.11441
2.11752
2.1206
2.12363
2.12661
2.12954
2.13242
2.13525
2.13802
2.14072
2.14336
2.14594
2.14844
2.15087
2.15323
2.15551
2.15771
2.15982
2.16186
2.16381
2.16567
2.16745
2.16913
2.17072
2.17222
2.17363
2.17493
2.17614
2.17726
2.17827
2.17918
2.18
2.18071
2.18132
2.18182
2.18222
2.18252
2.18272
2.18282
2.18281
2.1827
2.18248
2.18216
2.18174
2.18122
2.18059
2.17986
2.17903
2.1781
2.17707
2.17594
2.17472
2.17339
2.17197
2.17046
2.16885
2.16716
2.16537
2.1635
2.16154
2.15951
2.15739
2.15519
2.15291
2.15056
2.14813
2.14563
2.14306
2.14043
2.13773
2.13498
2.13216
2.12929
2.12637
2.1234
2.12038
2.11731
2.11421
2.11107
2.1079
2.10469
2.10145
2.09819
2.0949
2.09159
2.08827
2.08493
2.08158
2.07822
2.07487
2.07151
2.06816
2.06482
2.06149
2.05818
2.05488
2.0516
2.04835
2.04512
2.04193
2.03877
2.03565
2.03258
2.02955
2.02656
2.02363
2.02075
2.01792
2.01516
2.01245
2.00981
2.00723
2.00473
2.00229
1.99993
1.99764
1.99543
1.9933
1.99125
1.98929
1.98741
1.98562
1.98392
1.98231
1.98079
1.97936
1.97803
1.9768
1.97566
1.97463
1.97369
1.97286
1.97212
1.97149
1.97096
1.97053
1.97021
1.97
1.9699
1.96334
1.96401
1.96479
1.96558
1.96641
1.96729
1.96822
1.9692
1.97026
1.97139
1.97261
1.97392
1.9753
1.97677
1.97833
1.97997
1.9817
1.98352
1.98542
1.9874
1.98947
1.99161
1.99383
1.99613
1.99851
2.00095
2.00347
2.00605
2.0087
2.01141
2.01418
2.01701
2.0199
2.02284
2.02582
2.02886
2.03195
2.03507
2.03824
2.04144
2.04468
2.04795
2.05124
2.05456
2.0579
2.06125
2.06462
2.068
2.07139
2.07478
2.07817
2.08156
2.08494
2.08831
2.09166
2.095
2.09831
2.1016
2.10486
2.10809
2.11129
2.11445
2.11757
2.12065
2.12368
2.12667
2.12961
2.13249
2.13532
2.13809
2.1408
2.14344
2.14602
2.14852
2.15096
2.15332
2.1556
2.1578
2.15992
2.16196
2.16391
2.16578
2.16755
2.16924
2.17083
2.17233
2.17374
2.17505
2.17626
2.17737
2.17839
2.17931
2.18012
2.18083
2.18144
2.18194
2.18235
2.18265
2.18284
2.18294
2.18293
2.18282
2.18261
2.18229
2.18187
2.18134
2.18071
2.17998
2.17915
2.17822
2.17719
2.17606
2.17483
2.17351
2.17208
2.17057
2.16896
2.16726
2.16548
2.1636
2.16164
2.1596
2.15748
2.15528
2.153
2.15064
2.14821
2.14571
2.14314
2.1405
2.1378
2.13504
2.13223
2.12935
2.12643
2.12345
2.12043
2.11736
2.11426
2.11111
2.10793
2.10472
2.10148
2.09821
2.09492
2.0916
2.08828
2.08493
2.08158
2.07822
2.07486
2.0715
2.06815
2.0648
2.06147
2.05815
2.05485
2.05156
2.04831
2.04508
2.04188
2.03872
2.0356
2.03252
2.02949
2.0265
2.02356
2.02068
2.01785
2.01508
2.01237
2.00973
2.00715
2.00464
2.0022
1.99984
1.99755
1.99533
1.9932
1.99115
1.98919
1.98731
1.98551
1.98381
1.9822
1.98068
1.97925
1.97792
1.97669
1.97555
1.97451
1.97357
1.97274
1.97201
1.97137
1.97084
1.97042
1.97009
1.96989
1.9698
1.96399
1.96437
1.96494
1.96561
1.96636
1.96718
1.96808
1.96906
1.9701
1.97123
1.97244
1.97374
1.97513
1.9766
1.97815
1.9798
1.98153
1.98335
1.98525
1.98723
1.9893
1.99145
1.99367
1.99598
1.99835
2.00081
2.00333
2.00591
2.00857
2.01128
2.01406
2.01689
2.01978
2.02273
2.02572
2.02877
2.03186
2.03499
2.03816
2.04137
2.04461
2.04788
2.05118
2.05451
2.05785
2.06122
2.06459
2.06798
2.07138
2.07478
2.07817
2.08157
2.08495
2.08833
2.09169
2.09503
2.09835
2.10165
2.10492
2.10815
2.11136
2.11452
2.11765
2.12074
2.12378
2.12677
2.12971
2.1326
2.13544
2.13821
2.14092
2.14357
2.14615
2.14867
2.15111
2.15347
2.15576
2.15796
2.16009
2.16213
2.16408
2.16595
2.16773
2.16942
2.17102
2.17253
2.17393
2.17525
2.17646
2.17758
2.1786
2.17951
2.18033
2.18104
2.18165
2.18215
2.18256
2.18286
2.18306
2.18315
2.18315
2.18303
2.18282
2.1825
2.18208
2.18155
2.18092
2.18019
2.17936
2.17842
2.17739
2.17626
2.17503
2.1737
2.17228
2.17076
2.16915
2.16745
2.16566
2.16378
2.16182
2.15977
2.15764
2.15544
2.15315
2.15079
2.14836
2.14585
2.14327
2.14063
2.13793
2.13516
2.13234
2.12946
2.12653
2.12355
2.12052
2.11744
2.11433
2.11118
2.10799
2.10477
2.10152
2.09825
2.09495
2.09163
2.0883
2.08495
2.08159
2.07822
2.07485
2.07149
2.06813
2.06477
2.06143
2.0581
2.05479
2.05151
2.04824
2.04501
2.04181
2.03864
2.03551
2.03243
2.02939
2.0264
2.02345
2.02056
2.01773
2.01495
2.01224
2.00959
2.00701
2.00449
2.00205
1.99968
1.99738
1.99517
1.99303
1.99098
1.98901
1.98712
1.98533
1.98362
1.98201
1.98048
1.97905
1.97772
1.97648
1.97534
1.9743
1.97337
1.97253
1.9718
1.97116
1.97064
1.97021
1.96989
1.96968
1.96958
1.96427
1.96452
1.96497
1.96555
1.96623
1.96701
1.96787
1.96882
1.96986
1.97098
1.97218
1.97348
1.97486
1.97633
1.97788
1.97953
1.98126
1.98308
1.98499
1.98698
1.98905
1.9912
1.99344
1.99574
1.99813
2.00059
2.00311
2.00571
2.00837
2.01109
2.01387
2.01672
2.01962
2.02257
2.02557
2.02863
2.03172
2.03486
2.03805
2.04126
2.04451
2.0478
2.05111
2.05444
2.05779
2.06117
2.06455
2.06795
2.07136
2.07477
2.07818
2.08158
2.08498
2.08836
2.09173
2.09508
2.09841
2.10172
2.105
2.10825
2.11146
2.11464
2.11778
2.12087
2.12392
2.12692
2.12987
2.13277
2.13561
2.1384
2.14112
2.14377
2.14636
2.14888
2.15132
2.1537
2.15599
2.1582
2.16033
2.16238
2.16434
2.16622
2.168
2.1697
2.1713
2.17281
2.17422
2.17554
2.17676
2.17788
2.1789
2.17981
2.18063
2.18134
2.18195
2.18246
2.18287
2.18317
2.18337
2.18347
2.18346
2.18335
2.18313
2.18281
2.18239
2.18186
2.18123
2.18049
2.17966
2.17872
2.17768
2.17655
2.17531
2.17398
2.17256
2.17103
2.16942
2.16771
2.16592
2.16404
2.16207
2.16002
2.15788
2.15567
2.15338
2.15101
2.14857
2.14605
2.14347
2.14082
2.13811
2.13534
2.1325
2.12962
2.12668
2.12368
2.12065
2.11756
2.11444
2.11128
2.10808
2.10485
2.10159
2.0983
2.095
2.09167
2.08833
2.08497
2.0816
2.07822
2.07484
2.07147
2.0681
2.06473
2.06138
2.05804
2.05472
2.05142
2.04815
2.0449
2.04169
2.03852
2.03538
2.03229
2.02924
2.02624
2.02328
2.02038
2.01754
2.01475
2.01203
2.00938
2.00679
2.00427
2.00181
1.99944
1.99714
1.99491
1.99277
1.99071
1.98874
1.98685
1.98504
1.98333
1.98171
1.98019
1.97875
1.97741
1.97617
1.97503
1.97399
1.97305
1.97221
1.97148
1.97084
1.97031
1.96989
1.96957
1.96936
1.96925
1.9643
1.96449
1.96486
1.96538
1.96601
1.96675
1.96758
1.96851
1.96952
1.97063
1.97183
1.97312
1.9745
1.97597
1.97753
1.97917
1.98091
1.98273
1.98464
1.98664
1.98872
1.99088
1.99312
1.99543
1.99783
2.00029
2.00283
2.00543
2.0081
2.01083
2.01363
2.01648
2.01939
2.02236
2.02537
2.02844
2.03155
2.0347
2.03789
2.04112
2.04438
2.04768
2.051
2.05435
2.05772
2.0611
2.0645
2.06792
2.07134
2.07476
2.07818
2.0816
2.08501
2.0884
2.09179
2.09515
2.0985
2.10182
2.10511
2.10837
2.1116
2.11479
2.11794
2.12105
2.12411
2.12712
2.13009
2.133
2.13585
2.13864
2.14137
2.14404
2.14663
2.14916
2.15162
2.15399
2.1563
2.15852
2.16066
2.16271
2.16468
2.16657
2.16836
2.17006
2.17167
2.17318
2.1746
2.17592
2.17714
2.17826
2.17929
2.18021
2.18103
2.18174
2.18236
2.18287
2.18327
2.18358
2.18378
2.18388
2.18387
2.18376
2.18354
2.18322
2.18279
2.18226
2.18163
2.18089
2.18005
2.17911
2.17807
2.17693
2.17569
2.17435
2.17292
2.1714
2.16978
2.16807
2.16626
2.16438
2.1624
2.16034
2.1582
2.15598
2.15368
2.1513
2.14885
2.14632
2.14373
2.14107
2.13835
2.13556
2.13272
2.12982
2.12687
2.12387
2.12082
2.11772
2.11458
2.11141
2.1082
2.10496
2.10168
2.09838
2.09506
2.09172
2.08837
2.085
2.08161
2.07822
2.07483
2.07144
2.06805
2.06468
2.06131
2.05796
2.05462
2.05131
2.04802
2.04477
2.04155
2.03836
2.03521
2.0321
2.02904
2.02602
2.02306
2.02015
2.01729
2.0145
2.01176
2.0091
2.00649
2.00396
2.0015
1.99912
1.99681
1.99457
1.99242
1.99036
1.98837
1.98648
1.98467
1.98295
1.98132
1.97979
1.97835
1.97701
1.97576
1.97462
1.97357
1.97263
1.97179
1.97105
1.97042
1.96988
1.96946
1.96914
1.96892
1.96881
1.96413
1.96429
1.96461
1.96508
1.96567
1.96638
1.96718
1.96809
1.96909
1.97019
1.97138
1.97267
1.97405
1.97551
1.97707
1.97872
1.98047
1.9823
1.98421
1.98622
1.9883
1.99047
1.99272
1.99505
1.99745
1.99992
2.00247
2.00509
2.00777
2.01051
2.01332
2.01619
2.01911
2.02209
2.02512
2.0282
2.03132
2.03449
2.0377
2.04094
2.04422
2.04753
2.05087
2.05424
2.05762
2.06103
2.06444
2.06787
2.07131
2.07475
2.07819
2.08162
2.08505
2.08846
2.09186
2.09524
2.09861
2.10194
2.10525
2.10853
2.11177
2.11498
2.11815
2.12127
2.12435
2.12738
2.13035
2.13328
2.13614
2.13895
2.14169
2.14436
2.14697
2.14951
2.15198
2.15437
2.15668
2.15891
2.16106
2.16313
2.16511
2.167
2.1688
2.1705
2.17212
2.17364
2.17506
2.17639
2.17761
2.17874
2.17977
2.18069
2.18152
2.18224
2.18285
2.18337
2.18378
2.18409
2.18429
2.18439
2.18438
2.18427
2.18405
2.18372
2.18329
2.18276
2.18212
2.18138
2.18054
2.17959
2.17855
2.1774
2.17616
2.17481
2.17338
2.17184
2.17022
2.1685
2.16669
2.16479
2.16281
2.16074
2.15859
2.15636
2.15405
2.15166
2.14919
2.14666
2.14405
2.14138
2.13865
2.13585
2.13299
2.13008
2.12712
2.1241
2.12103
2.11792
2.11477
2.11158
2.10835
2.10509
2.1018
2.09849
2.09515
2.09179
2.08842
2.08503
2.08163
2.07823
2.07482
2.07141
2.06801
2.06461
2.06123
2.05786
2.0545
2.05118
2.04787
2.0446
2.04136
2.03816
2.03499
2.03187
2.02879
2.02576
2.02278
2.01985
2.01698
2.01417
2.01143
2.00874
2.00613
2.00358
2.00111
1.99871
1.99639
1.99415
1.99199
1.98991
1.98792
1.98601
1.98419
1.98246
1.98083
1.97929
1.97784
1.97649
1.97524
1.9741
1.97305
1.9721
1.97126
1.97052
1.96988
1.96934
1.96891
1.96859
1.96838
1.96826
1.96378
1.96394
1.96423
1.96466
1.96522
1.9659
1.96668
1.96757
1.96856
1.96965
1.97084
1.97212
1.9735
1.97497
1.97653
1.97819
1.97993
1.98177
1.98369
1.98571
1.9878
1.98998
1.99224
1.99458
1.99699
1.99948
2.00204
2.00467
2.00736
2.01012
2.01295
2.01583
2.01877
2.02177
2.02481
2.02791
2.03105
2.03424
2.03747
2.04073
2.04403
2.04736
2.05072
2.05411
2.05751
2.06094
2.06437
2.06782
2.07128
2.07474
2.0782
2.08165
2.0851
2.08853
2.09195
2.09536
2.09874
2.10209
2.10542
2.10872
2.11198
2.11521
2.11839
2.12154
2.12463
2.12768
2.13067
2.13361
2.13649
2.13931
2.14207
2.14476
2.14738
2.14993
2.15241
2.15481
2.15714
2.15938
2.16155
2.16362
2.16561
2.16751
2.16932
2.17104
2.17266
2.17418
2.17561
2.17694
2.17818
2.17931
2.18034
2.18127
2.1821
2.18283
2.18345
2.18397
2.18438
2.18469
2.18489
2.18499
2.18498
2.18487
2.18465
2.18432
2.18389
2.18335
2.18271
2.18197
2.18112
2.18017
2.17911
2.17796
2.17671
2.17536
2.17392
2.17238
2.17074
2.16901
2.1672
2.16529
2.1633
2.16122
2.15906
2.15681
2.15449
2.15208
2.14961
2.14706
2.14444
2.14175
2.139
2.13619
2.13332
2.13039
2.12741
2.12437
2.12129
2.11816
2.11499
2.11178
2.10854
2.10526
2.10195
2.09861
2.09525
2.09188
2.08848
2.08507
2.08166
2.07823
2.0748
2.07137
2.06795
2.06453
2.06113
2.05774
2.05436
2.05101
2.04769
2.0444
2.04114
2.03792
2.03473
2.03159
2.02849
2.02544
2.02245
2.0195
2.01661
2.01379
2.01102
2.00832
2.00569
2.00313
2.00064
1.99823
1.99589
1.99364
1.99147
1.98937
1.98737
1.98545
1.98362
1.98188
1.98024
1.97869
1.97723
1.97588
1.97463
1.97347
1.97242
1.97146
1.97061
1.96987
1.96923
1.96869
1.96825
1.96793
1.96771
1.9676
1.96327
1.96342
1.9637
1.96411
1.96465
1.96531
1.96608
1.96695
1.96793
1.96901
1.97019
1.97147
1.97285
1.97432
1.97589
1.97755
1.97931
1.98115
1.98309
1.98511
1.98722
1.98941
1.99168
1.99403
1.99646
1.99896
2.00153
2.00418
2.00689
2.00967
2.01251
2.01541
2.01837
2.02139
2.02446
2.02757
2.03074
2.03395
2.0372
2.04049
2.04381
2.04717
2.05055
2.05396
2.05739
2.06083
2.0643
2.06777
2.07125
2.07473
2.07821
2.08169
2.08516
2.08862
2.09206
2.09549
2.09889
2.10227
2.10562
2.10894
2.11223
2.11548
2.11869
2.12185
2.12497
2.12803
2.13105
2.134
2.1369
2.13974
2.14251
2.14522
2.14786
2.15043
2.15292
2.15534
2.15768
2.15994
2.16211
2.1642
2.1662
2.16811
2.16993
2.17165
2.17328
2.17482
2.17625
2.17759
2.17883
2.17997
2.18101
2.18195
2.18278
2.18351
2.18414
2.18466
2.18508
2.18539
2.18559
2.18569
2.18568
2.18557
2.18535
2.18502
2.18458
2.18404
2.1834
2.18264
2.18179
2.18083
2.17977
2.17861
2.17736
2.176
2.17455
2.173
2.17135
2.16962
2.16779
2.16587
2.16386
2.16177
2.1596
2.15734
2.155
2.15258
2.15009
2.14753
2.14489
2.14219
2.13942
2.13659
2.1337
2.13075
2.12775
2.1247
2.12159
2.11845
2.11525
2.11202
2.10875
2.10545
2.10212
2.09876
2.09538
2.09198
2.08856
2.08513
2.08168
2.07823
2.07478
2.07133
2.06788
2.06444
2.06101
2.0576
2.0542
2.05083
2.04748
2.04416
2.04088
2.03763
2.03443
2.03126
2.02814
2.02507
2.02205
2.01909
2.01618
2.01333
2.01055
2.00783
2.00518
2.0026
2.00009
1.99766
1.99531
1.99304
1.99085
1.98875
1.98673
1.9848
1.98295
1.9812
1.97955
1.97799
1.97653
1.97517
1.9739
1.97274
1.97168
1.97072
1.96986
1.96911
1.96846
1.96792
1.96748
1.96716
1.96694
1.96683
1.96263
1.96277
1.96304
1.96344
1.96396
1.9646
1.96536
1.96622
1.96719
1.96827
1.96945
1.97073
1.97211
1.97358
1.97516
1.97683
1.97859
1.98044
1.98239
1.98442
1.98654
1.98875
1.99103
1.9934
1.99584
1.99836
2.00095
2.00362
2.00635
2.00915
2.01201
2.01494
2.01792
2.02096
2.02405
2.02719
2.03038
2.03361
2.03689
2.04021
2.04356
2.04694
2.05035
2.05379
2.05725
2.06072
2.06421
2.06771
2.07121
2.07472
2.07823
2.08174
2.08523
2.08872
2.09219
2.09564
2.09907
2.10248
2.10586
2.1092
2.11251
2.11579
2.11902
2.12221
2.12535
2.12844
2.13147
2.13445
2.13737
2.14023
2.14302
2.14575
2.14841
2.15099
2.1535
2.15593
2.15829
2.16056
2.16275
2.16486
2.16687
2.16879
2.17062
2.17235
2.174
2.17554
2.17699
2.17833
2.17958
2.18073
2.18178
2.18272
2.18356
2.1843
2.18493
2.18546
2.18587
2.18619
2.18639
2.18649
2.18648
2.18637
2.18614
2.18581
2.18537
2.18483
2.18417
2.18342
2.18256
2.18159
2.18053
2.17936
2.17809
2.17673
2.17527
2.17371
2.17205
2.1703
2.16846
2.16653
2.16451
2.16241
2.16022
2.15794
2.15559
2.15316
2.15065
2.14806
2.14541
2.14269
2.1399
2.13705
2.13414
2.13117
2.12815
2.12507
2.12194
2.11877
2.11555
2.1123
2.109
2.10567
2.10232
2.09893
2.09552
2.0921
2.08865
2.08519
2.08172
2.07824
2.07476
2.07128
2.0678
2.06434
2.06088
2.05744
2.05401
2.05061
2.04724
2.0439
2.04059
2.03731
2.03408
2.03089
2.02775
2.02465
2.02161
2.01862
2.01569
2.01281
2.01001
2.00727
2.00459
2.00199
1.99947
1.99702
1.99465
1.99236
1.99015
1.98803
1.98599
1.98405
1.98219
1.98043
1.97876
1.97719
1.97572
1.97435
1.97308
1.9719
1.97083
1.96986
1.969
1.96824
1.96759
1.96704
1.9666
1.96627
1.96605
1.96594
1.96185
1.96198
1.96225
1.96263
1.96315
1.96378
1.96452
1.96538
1.96635
1.96742
1.9686
1.96988
1.97127
1.97275
1.97433
1.976
1.97778
1.97964
1.9816
1.98365
1.98578
1.988
1.9903
1.99269
1.99515
1.99769
2.0003
2.00298
2.00574
2.00856
2.01145
2.0144
2.01741
2.02047
2.02359
2.02676
2.02998
2.03324
2.03655
2.03989
2.04327
2.04669
2.05013
2.0536
2.05709
2.06059
2.06411
2.06764
2.07118
2.07472
2.07826
2.08179
2.08532
2.08883
2.09233
2.09582
2.09928
2.10271
2.10612
2.1095
2.11284
2.11614
2.1194
2.12262
2.12578
2.1289
2.13196
2.13496
2.1379
2.14078
2.1436
2.14634
2.14902
2.15163
2.15415
2.15661
2.15898
2.16127
2.16347
2.16559
2.16762
2.16955
2.1714
2.17315
2.1748
2.17635
2.17781
2.17917
2.18043
2.18158
2.18264
2.18359
2.18444
2.18518
2.18582
2.18635
2.18677
2.18708
2.18729
2.18739
2.18738
2.18726
2.18703
2.1867
2.18626
2.18571
2.18505
2.18429
2.18342
2.18245
2.18138
2.1802
2.17893
2.17755
2.17608
2.17451
2.17284
2.17108
2.16923
2.16728
2.16525
2.16313
2.16092
2.15863
2.15625
2.1538
2.15127
2.14867
2.146
2.14326
2.14045
2.13757
2.13464
2.13164
2.12859
2.12549
2.12234
2.11914
2.11589
2.11261
2.10928
2.10593
2.10254
2.09913
2.09569
2.09223
2.08875
2.08526
2.08176
2.07825
2.07474
2.07123
2.06772
2.06422
2.06073
2.05726
2.0538
2.05037
2.04697
2.0436
2.04026
2.03695
2.03369
2.03047
2.0273
2.02417
2.0211
2.01809
2.01513
2.01223
2.0094
2.00663
2.00394
2.00131
1.99876
1.99629
1.9939
1.99159
1.98936
1.98722
1.98517
1.9832
1.98133
1.97956
1.97788
1.97629
1.97481
1.97343
1.97214
1.97096
1.96988
1.9689
1.96803
1.96726
1.96661
1.96605
1.96561
1.96528
1.96506
1.96494
1.96094
1.96107
1.96132
1.9617
1.96221
1.96283
1.96357
1.96443
1.96539
1.96647
1.96765
1.96893
1.97032
1.97181
1.9734
1.97508
1.97687
1.97875
1.98072
1.98278
1.98493
1.98717
1.98949
1.99189
1.99437
1.99693
1.99957
2.00228
2.00506
2.00791
2.01082
2.0138
2.01684
2.01993
2.02308
2.02628
2.02953
2.03283
2.03617
2.03954
2.04296
2.04641
2.04988
2.05339
2.05691
2.06045
2.064
2.06757
2.07114
2.07471
2.07828
2.08185
2.08541
2.08896
2.0925
2.09601
2.09951
2.10298
2.10642
2.10983
2.1132
2.11653
2.11982
2.12307
2.12626
2.12941
2.13249
2.13552
2.13849
2.1414
2.14424
2.14701
2.14971
2.15233
2.15488
2.15736
2.15975
2.16206
2.16428
2.16641
2.16845
2.17041
2.17226
2.17403
2.17569
2.17726
2.17873
2.1801
2.18137
2.18253
2.1836
2.18456
2.18541
2.18616
2.1868
2.18734
2.18776
2.18808
2.18829
2.18839
2.18838
2.18826
2.18803
2.18769
2.18724
2.18668
2.18602
2.18525
2.18438
2.1834
2.18232
2.18114
2.17985
2.17847
2.17698
2.1754
2.17372
2.17194
2.17008
2.16811
2.16606
2.16392
2.1617
2.15939
2.15699
2.15452
2.15197
2.14935
2.14665
2.14389
2.14105
2.13815
2.13519
2.13217
2.12909
2.12596
2.12278
2.11955
2.11627
2.11295
2.1096
2.10621
2.10279
2.09935
2.09587
2.09238
2.08887
2.08534
2.08181
2.07826
2.07472
2.07117
2.06763
2.06409
2.06057
2.05706
2.05358
2.05011
2.04667
2.04327
2.03989
2.03655
2.03326
2.03
2.0268
2.02364
2.02054
2.01749
2.01451
2.01158
2.00872
2.00593
2.0032
2.00055
1.99798
1.99548
1.99307
1.99073
1.98848
1.98632
1.98424
1.98226
1.98038
1.97858
1.97689
1.97529
1.97379
1.9724
1.9711
1.9699
1.96881
1.96783
1.96695
1.96617
1.96551
1.96495
1.9645
1.96417
1.96394
1.96383
1.95989
1.96002
1.96027
1.96065
1.96115
1.96177
1.9625
1.96336
1.96432
1.9654
1.96658
1.96787
1.96927
1.97077
1.97236
1.97406
1.97586
1.97775
1.97974
1.98182
1.98399
1.98625
1.98859
1.99101
1.99352
1.9961
1.99876
2.0015
2.00431
2.00719
2.01013
2.01314
2.01621
2.01933
2.02252
2.02575
2.02904
2.03237
2.03575
2.03916
2.04261
2.0461
2.04961
2.05315
2.05671
2.06029
2.06388
2.06749
2.0711
2.07471
2.07832
2.08192
2.08552
2.08911
2.09268
2.09623
2.09976
2.10327
2.10675
2.11019
2.1136
2.11697
2.12029
2.12357
2.1268
2.12997
2.13309
2.13615
2.13915
2.14208
2.14494
2.14774
2.15046
2.15311
2.15569
2.15818
2.16059
2.16292
2.16516
2.16732
2.16938
2.17135
2.17322
2.175
2.17668
2.17826
2.17974
2.18113
2.1824
2.18358
2.18465
2.18562
2.18648
2.18724
2.18789
2.18842
2.18885
2.18917
2.18938
2.18948
2.18947
2.18935
2.18912
2.18877
2.18832
2.18776
2.18709
2.18632
2.18544
2.18445
2.18336
2.18217
2.18087
2.17947
2.17798
2.17638
2.17469
2.1729
2.17101
2.16903
2.16696
2.1648
2.16256
2.16022
2.15781
2.15532
2.15274
2.1501
2.14738
2.14458
2.14172
2.13879
2.1358
2.13275
2.12964
2.12648
2.12326
2.12
2.11669
2.11334
2.10995
2.10653
2.10307
2.09959
2.09608
2.09255
2.089
2.08543
2.08186
2.07828
2.07469
2.07111
2.06753
2.06396
2.0604
2.05685
2.05333
2.04982
2.04635
2.0429
2.03949
2.03611
2.03278
2.02949
2.02625
2.02306
2.01992
2.01684
2.01382
2.01086
2.00797
2.00515
2.00239
1.99972
1.99711
1.99459
1.99215
1.98979
1.98751
1.98532
1.98323
1.98123
1.97932
1.97751
1.9758
1.97418
1.97267
1.97126
1.96995
1.96874
1.96764
1.96664
1.96575
1.96497
1.9643
1.96373
1.96328
1.96294
1.96272
1.9626
1.95871
1.95884
1.95909
1.95946
1.95996
1.96058
1.96132
1.96217
1.96314
1.96422
1.96541
1.96671
1.96811
1.96962
1.97123
1.97294
1.97475
1.97666
1.97867
1.98077
1.98296
1.98523
1.9876
1.99005
1.99258
1.99519
1.99788
2.00065
2.00349
2.0064
2.00937
2.01242
2.01552
2.01868
2.0219
2.02518
2.0285
2.03187
2.03529
2.03874
2.04224
2.04576
2.04932
2.0529
2.0565
2.06012
2.06375
2.0674
2.07105
2.0747
2.07835
2.082
2.08564
2.08927
2.09288
2.09647
2.10004
2.10359
2.10711
2.11059
2.11404
2.11744
2.1208
2.12412
2.12738
2.13059
2.13374
2.13683
2.13986
2.14282
2.14572
2.14854
2.15129
2.15397
2.15657
2.15909
2.16152
2.16387
2.16613
2.16831
2.17039
2.17237
2.17427
2.17606
2.17776
2.17936
2.18085
2.18225
2.18354
2.18472
2.18581
2.18678
2.18765
2.18842
2.18907
2.18961
2.19004
2.19037
2.19058
2.19068
2.19066
2.19054
2.1903
2.18996
2.1895
2.18894
2.18826
2.18748
2.18659
2.1856
2.1845
2.1833
2.18199
2.18058
2.17907
2.17745
2.17575
2.17394
2.17204
2.17004
2.16795
2.16577
2.1635
2.16114
2.15871
2.15619
2.15359
2.15092
2.14817
2.14534
2.14245
2.1395
2.13647
2.13339
2.13025
2.12705
2.1238
2.1205
2.11715
2.11376
2.11034
2.10687
2.10338
2.09985
2.0963
2.09273
2.08914
2.08553
2.08192
2.0783
2.07467
2.07104
2.06742
2.06381
2.0602
2.05662
2.05305
2.04951
2.04599
2.0425
2.03905
2.03563
2.03226
2.02893
2.02565
2.02242
2.01925
2.01613
2.01307
2.01008
2.00715
2.0043
2.00151
1.9988
1.99617
1.99361
1.99114
1.98875
1.98645
1.98424
1.98212
1.9801
1.97817
1.97634
1.9746
1.97297
1.97144
1.97001
1.96868
1.96746
1.96635
1.96534
1.96444
1.96365
1.96297
1.9624
1.96195
1.9616
1.96137
1.96126
1.9574
1.95753
1.95778
1.95816
1.95865
1.95927
1.96001
1.96087
1.96184
1.96293
1.96412
1.96543
1.96684
1.96836
1.96999
1.97172
1.97354
1.97547
1.9775
1.97962
1.98183
1.98413
1.98652
1.989
1.99156
1.9942
1.99692
1.99972
2.00259
2.00554
2.00855
2.01163
2.01478
2.01798
2.02124
2.02455
2.02792
2.03133
2.03479
2.03829
2.04183
2.0454
2.049
2.05262
2.05627
2.05994
2.06361
2.0673
2.071
2.0747
2.07839
2.08209
2.08577
2.08944
2.0931
2.09674
2.10035
2.10394
2.1075
2.11102
2.11451
2.11796
2.12136
2.12472
2.12802
2.13126
2.13445
2.13758
2.14064
2.14363
2.14656
2.14941
2.1522
2.1549
2.15753
2.16007
2.16253
2.1649
2.16719
2.16938
2.17148
2.17349
2.1754
2.17721
2.17893
2.18054
2.18205
2.18346
2.18477
2.18597
2.18706
2.18805
2.18892
2.18969
2.19035
2.1909
2.19133
2.19166
2.19187
2.19197
2.19196
2.19183
2.19159
2.19124
2.19078
2.19021
2.18953
2.18875
2.18785
2.18685
2.18573
2.18452
2.1832
2.18177
2.18025
2.17862
2.17689
2.17507
2.17315
2.17113
2.16902
2.16681
2.16452
2.16214
2.15968
2.15713
2.15451
2.15181
2.14903
2.14617
2.14325
2.14026
2.1372
2.13408
2.1309
2.12767
2.12438
2.12104
2.11765
2.11423
2.11076
2.10725
2.10371
2.10014
2.09655
2.09293
2.08929
2.08564
2.08198
2.07832
2.07465
2.07097
2.0673
2.06364
2.06
2.05637
2.05275
2.04916
2.0456
2.04207
2.03857
2.03511
2.03169
2.02832
2.025
2.02173
2.01851
2.01535
2.01226
2.00923
2.00626
2.00337
2.00055
1.9978
1.99513
1.99255
1.99004
1.98762
1.98529
1.98306
1.98092
1.97887
1.97691
1.97506
1.9733
1.97165
1.9701
1.96865
1.96731
1.96607
1.96494
1.96393
1.96301
1.96222
1.96153
1.96095
1.96049
1.96014
1.95991
1.95979
1.95597
1.9561
1.95634
1.95672
1.95722
1.95784
1.95858
1.95944
1.96042
1.96151
1.96272
1.96404
1.96546
1.967
1.96864
1.97039
1.97223
1.97418
1.97623
1.97837
1.98061
1.98293
1.98535
1.98786
1.99045
1.99313
1.99588
1.99872
2.00163
2.00461
2.00766
2.01078
2.01397
2.01722
2.02052
2.02388
2.02729
2.03075
2.03426
2.0378
2.04139
2.045
2.04865
2.05232
2.05602
2.05973
2.06346
2.0672
2.07095
2.07469
2.07844
2.08218
2.08591
2.08963
2.09334
2.09702
2.10068
2.10432
2.10792
2.1115
2.11503
2.11852
2.12197
2.12536
2.1287
2.13199
2.13522
2.13838
2.14148
2.14451
2.14747
2.15036
2.15317
2.15591
2.15856
2.16113
2.16362
2.16602
2.16833
2.17054
2.17267
2.17469
2.17663
2.17846
2.18019
2.18182
2.18335
2.18477
2.18609
2.18731
2.18841
2.18941
2.19029
2.19107
2.19173
2.19229
2.19272
2.19305
2.19326
2.19336
2.19335
2.19322
2.19298
2.19263
2.19216
2.19159
2.1909
2.19011
2.1892
2.18819
2.18707
2.18584
2.1845
2.18306
2.18152
2.17988
2.17813
2.17629
2.17435
2.17231
2.17017
2.16795
2.16563
2.16322
2.16073
2.15816
2.1555
2.15277
2.14996
2.14707
2.14411
2.14108
2.13799
2.13483
2.13162
2.12834
2.12501
2.12163
2.1182
2.11473
2.11121
2.10766
2.10407
2.10046
2.09681
2.09315
2.08946
2.08577
2.08206
2.07834
2.07462
2.0709
2.06718
2.06347
2.05977
2.05609
2.05243
2.04879
2.04518
2.0416
2.03805
2.03455
2.03108
2.02766
2.02429
2.02097
2.01771
2.01451
2.01138
2.0083
2.0053
2.00236
1.9995
1.99672
1.99401
1.99139
1.98885
1.98641
1.98405
1.98178
1.97961
1.97753
1.97556
1.97368
1.9719
1.97022
1.96865
1.96718
1.96582
1.96457
1.96343
1.96239
1.96147
1.96066
1.95997
1.95939
1.95892
1.95856
1.95833
1.95821
1.9544
1.95453
1.95478
1.95516
1.95566
1.95629
1.95703
1.9579
1.95888
1.95999
1.9612
1.96253
1.96397
1.96553
1.96718
1.96895
1.97082
1.97279
1.97486
1.97702
1.97929
1.98165
1.98409
1.98663
1.98926
1.99197
1.99476
1.99764
2.00059
2.00361
2.00671
2.00987
2.0131
2.01639
2.01975
2.02315
2.02662
2.03012
2.03368
2.03728
2.04091
2.04458
2.04828
2.052
2.05575
2.05952
2.0633
2.06709
2.07089
2.07469
2.07849
2.08228
2.08607
2.08984
2.0936
2.09733
2.10104
2.10473
2.10838
2.112
2.11559
2.11913
2.12262
2.12606
2.12945
2.13277
2.13604
2.13925
2.14239
2.14545
2.14845
2.15138
2.15422
2.15699
2.15968
2.16228
2.16479
2.16722
2.16955
2.17179
2.17394
2.17599
2.17794
2.1798
2.18155
2.1832
2.18474
2.18618
2.18752
2.18874
2.18986
2.19087
2.19176
2.19255
2.19322
2.19377
2.19422
2.19455
2.19476
2.19486
2.19484
2.19471
2.19447
2.19412
2.19365
2.19307
2.19238
2.19157
2.19066
2.18963
2.1885
2.18726
2.18591
2.18445
2.18289
2.18123
2.17946
2.1776
2.17563
2.17357
2.17141
2.16916
2.16682
2.16439
2.16187
2.15926
2.15657
2.1538
2.15096
2.14803
2.14504
2.14197
2.13884
2.13564
2.13238
2.12906
2.12569
2.12226
2.11879
2.11527
2.1117
2.1081
2.10447
2.1008
2.0971
2.09339
2.08965
2.0859
2.08214
2.07837
2.07459
2.07082
2.06705
2.06328
2.05953
2.0558
2.05208
2.04839
2.04473
2.0411
2.0375
2.03394
2.03042
2.02695
2.02353
2.02016
2.01686
2.01361
2.01042
2.00731
2.00426
2.00128
1.99838
1.99555
1.99281
1.99015
1.98758
1.98509
1.9827
1.98041
1.97821
1.9761
1.97409
1.97218
1.97038
1.96868
1.96709
1.9656
1.96422
1.96295
1.9618
1.96075
1.95981
1.95899
1.95829
1.9577
1.95722
1.95686
1.95663
1.95651
1.95271
1.95284
1.95309
1.95347
1.95398
1.95461
1.95536
1.95623
1.95723
1.95834
1.95957
1.96091
1.96237
1.96394
1.96562
1.9674
1.96929
1.97129
1.97338
1.97558
1.97787
1.98026
1.98274
1.98532
1.98798
1.99073
1.99356
1.99648
1.99947
2.00254
2.00568
2.00889
2.01217
2.01551
2.01892
2.02238
2.02589
2.02945
2.03306
2.03671
2.0404
2.04412
2.04788
2.05166
2.05547
2.05929
2.06313
2.06698
2.07083
2.07469
2.07855
2.0824
2.08624
2.09007
2.09388
2.09767
2.10143
2.10517
2.10888
2.11255
2.11618
2.11977
2.12332
2.12681
2.13024
2.13361
2.13693
2.14018
2.14336
2.14647
2.1495
2.15247
2.15535
2.15815
2.16087
2.1635
2.16605
2.1685
2.17086
2.17313
2.1753
2.17738
2.17936
2.18123
2.183
2.18467
2.18624
2.18769
2.18904
2.19028
2.19141
2.19243
2.19333
2.19413
2.1948
2.19537
2.19581
2.19614
2.19636
2.19646
2.19644
2.19631
2.19606
2.19571
2.19523
2.19465
2.19395
2.19314
2.19221
2.19118
2.19003
2.18877
2.18741
2.18594
2.18436
2.18268
2.18089
2.179
2.17701
2.17493
2.17274
2.17046
2.16809
2.16563
2.16308
2.16044
2.15772
2.15492
2.15203
2.14907
2.14604
2.14293
2.13975
2.13651
2.1332
2.12984
2.12642
2.12294
2.11942
2.11585
2.11223
2.10858
2.10489
2.10117
2.09742
2.09364
2.08985
2.08604
2.08223
2.0784
2.07456
2.07073
2.0669
2.06308
2.05928
2.05548
2.05171
2.04796
2.04424
2.04056
2.0369
2.03329
2.02971
2.02619
2.02271
2.0193
2.01594
2.01264
2.0094
2.00624
2.00314
2.00012
1.99717
1.9943
1.99152
1.98882
1.98621
1.98369
1.98126
1.97893
1.9767
1.97456
1.97252
1.97058
1.96875
1.96703
1.96541
1.96391
1.96251
1.96122
1.96004
1.95898
1.95803
1.9572
1.95649
1.95589
1.95541
1.95504
1.95481
1.95468
1.95088
1.95101
1.95127
1.95165
1.95216
1.9528
1.95356
1.95444
1.95544
1.95657
1.95781
1.95917
1.96065
1.96224
1.96394
1.96575
1.96766
1.96968
1.97181
1.97403
1.97636
1.97878
1.9813
1.98391
1.98661
1.9894
1.99228
1.99524
1.99828
2.00139
2.00458
2.00785
2.01118
2.01457
2.01803
2.02154
2.02511
2.02873
2.03239
2.0361
2.03985
2.04364
2.04745
2.0513
2.05516
2.05905
2.06295
2.06686
2.07077
2.07469
2.07861
2.08252
2.08642
2.09031
2.09418
2.09803
2.10185
2.10565
2.10941
2.11314
2.11682
2.12047
2.12406
2.1276
2.13109
2.13451
2.13787
2.14117
2.14439
2.14755
2.15063
2.15363
2.15655
2.15939
2.16214
2.16481
2.16739
2.16987
2.17227
2.17456
2.17676
2.17886
2.18086
2.18276
2.18455
2.18624
2.18783
2.1893
2.19067
2.19192
2.19306
2.19409
2.19501
2.19581
2.19649
2.19706
2.19751
2.19784
2.19806
2.19816
2.19814
2.19801
2.19776
2.1974
2.19692
2.19633
2.19562
2.1948
2.19387
2.19282
2.19166
2.19039
2.18901
2.18752
2.18592
2.18422
2.18241
2.1805
2.17848
2.17637
2.17416
2.17185
2.16945
2.16696
2.16438
2.16171
2.15895
2.15611
2.15318
2.15018
2.1471
2.14395
2.14073
2.13744
2.13408
2.13067
2.1272
2.12367
2.12009
2.11647
2.1128
2.10909
2.10534
2.10156
2.09775
2.09392
2.09007
2.0862
2.08232
2.07843
2.07454
2.07064
2.06675
2.06287
2.059
2.05515
2.05131
2.04751
2.04373
2.03998
2.03626
2.03259
2.02896
2.02537
2.02184
2.01837
2.01495
2.0116
2.00831
2.00509
2.00195
1.99887
1.99588
1.99297
1.99014
1.9874
1.98475
1.98219
1.97972
1.97736
1.97508
1.97291
1.97084
1.96888
1.96702
1.96527
1.96363
1.9621
1.96068
1.95937
1.95817
1.9571
1.95613
1.95529
1.95456
1.95395
1.95347
1.9531
1.95286
1.95274
1.94893
1.94906
1.94932
1.9497
1.95022
1.95086
1.95163
1.95252
1.95354
1.95468
1.95593
1.95731
1.95881
1.96042
1.96214
1.96397
1.96592
1.96797
1.97012
1.97238
1.97474
1.9772
1.97975
1.98241
1.98515
1.98799
1.99091
1.99392
1.997
2.00017
2.00341
2.00673
2.01011
2.01357
2.01708
2.02065
2.02428
2.02796
2.03169
2.03546
2.03927
2.04312
2.047
2.05091
2.05484
2.05879
2.06275
2.06673
2.07071
2.07469
2.07867
2.08265
2.08661
2.09056
2.0945
2.09841
2.10229
2.10615
2.10998
2.11376
2.11751
2.12121
2.12486
2.12845
2.13199
2.13547
2.13888
2.14222
2.1455
2.1487
2.15182
2.15487
2.15783
2.16071
2.1635
2.16621
2.16882
2.17134
2.17376
2.17609
2.17831
2.18044
2.18246
2.18438
2.1862
2.18791
2.18952
2.19101
2.19239
2.19366
2.19481