/*--------------------------------*- C++ -*----------------------------------*\
| =========                 |                                                 |
| \\      /  F ield         | OpenFOAM: The Open Source CFD Toolbox           |
|  \\    /   O peration     | Version:  2412                                  |
|   \\  /    A nd           | Website:  www.openfoam.com                      |
|    \\/     M anipulation  |                                                 |
\*---------------------------------------------------------------------------*/
FoamFile
{
    version     2.0;
    format      ascii;
    arch        "LSB;label=32;scalar=64";
    class       surfaceScalarField;
    location    "1.5";
    object      phi;
}
// * * * * * * * * * * * * * * * * * * * * * * * * * * * * * * * * * * * * * //

dimensions      [0 3 -1 0 0 0 0];

oriented        oriented;

internalField   nonuniform List<scalar> 
79600
(
-1.72451e-11
1.17917e-11
-2.6459e-11
9.21376e-12
-2.9613e-11
3.13813e-12
-2.92992e-11
-3.2057e-13
-2.76838e-11
-1.58974e-12
-2.56656e-11
-1.99343e-12
-2.35648e-11
-2.10209e-12
-2.14568e-11
-2.12394e-12
-1.93446e-11
-2.12147e-12
-1.72206e-11
-2.12065e-12
-1.50841e-11
-2.12894e-12
-1.29357e-11
-2.14492e-12
-1.07741e-11
-2.16299e-12
-8.59331e-12
-2.18366e-12
-6.40328e-12
-2.19129e-12
-4.19065e-12
-2.21199e-12
-1.95859e-12
-2.23074e-12
2.89789e-13
-2.24746e-12
2.55578e-12
-2.26569e-12
4.83806e-12
-2.28226e-12
7.13543e-12
-2.29733e-12
9.44653e-12
-2.31101e-12
1.17698e-11
-2.32332e-12
1.41036e-11
-2.33412e-12
1.64461e-11
-2.34319e-12
1.87955e-11
-2.35031e-12
2.11498e-11
-2.35529e-12
2.35066e-11
-2.35798e-12
2.58637e-11
-2.35822e-12
2.82183e-11
-2.35584e-12
3.05677e-11
-2.35067e-12
3.2909e-11
-2.34253e-12
3.5239e-11
-2.33125e-12
3.75544e-11
-2.31668e-12
3.98518e-11
-2.29867e-12
4.21276e-11
-2.27705e-12
4.4378e-11
-2.25169e-12
4.65992e-11
-2.22243e-12
4.87872e-11
-2.18914e-12
5.09378e-11
-2.15168e-12
5.30468e-11
-2.1099e-12
5.51098e-11
-2.06371e-12
5.71222e-11
-2.01299e-12
5.90795e-11
-1.95767e-12
6.09771e-11
-1.8977e-12
6.28102e-11
-1.83305e-12
6.45741e-11
-1.76369e-12
6.62641e-11
-1.68958e-12
6.78753e-11
-1.6107e-12
6.9403e-11
-1.52697e-12
7.08422e-11
-1.43828e-12
7.21879e-11
-1.34451e-12
7.34373e-11
-1.2481e-12
7.45868e-11
-1.14801e-12
7.56314e-11
-1.04279e-12
7.65669e-11
-9.3363e-13
7.7387e-11
-8.18123e-13
7.80897e-11
-7.00601e-13
7.86725e-11
-5.80878e-13
7.91326e-11
-4.58472e-13
7.94664e-11
-3.32521e-13
7.96704e-11
-2.03252e-13
7.97361e-11
-6.56567e-14
7.96824e-11
5.30684e-14
7.94984e-11
1.82749e-13
7.91803e-11
3.16244e-13
7.87276e-11
4.50566e-13
7.81401e-11
5.85193e-13
7.74182e-11
7.19823e-13
7.65624e-11
8.54164e-13
7.55734e-11
9.87921e-13
7.44524e-11
1.12075e-12
7.32007e-11
1.25231e-12
7.18197e-11
1.38225e-12
7.03113e-11
1.51026e-12
6.86775e-11
1.63596e-12
6.69209e-11
1.759e-12
6.50442e-11
1.87904e-12
6.30505e-11
1.99577e-12
6.09434e-11
2.10885e-12
5.87268e-11
2.21806e-12
5.64047e-11
2.32315e-12
5.39817e-11
2.42395e-12
5.14623e-11
2.52026e-12
4.88513e-11
2.61195e-12
4.61536e-11
2.69888e-12
4.33741e-11
2.78088e-12
4.05179e-11
2.85779e-12
3.75901e-11
2.92946e-12
3.4596e-11
2.99575e-12
3.15411e-11
3.05648e-12
2.84308e-11
3.11152e-12
2.52709e-11
3.16078e-12
2.20673e-11
3.20419e-12
1.88258e-11
3.24167e-12
1.55526e-11
3.27319e-12
1.22536e-11
3.29875e-12
8.93495e-12
3.31833e-12
5.60272e-12
3.33194e-12
2.26285e-12
3.33958e-12
-1.07849e-12
3.34107e-12
-4.41508e-12
3.33642e-12
-7.74096e-12
3.32584e-12
-1.10502e-11
3.3093e-12
-1.43368e-11
3.28681e-12
-1.75948e-11
3.25838e-12
-2.08182e-11
3.22403e-12
-2.40011e-11
3.18379e-12
-2.71378e-11
3.1377e-12
-3.02224e-11
3.0858e-12
-3.32493e-11
3.02818e-12
-3.62128e-11
2.96487e-12
-3.91076e-11
2.89595e-12
-4.19283e-11
2.82156e-12
-4.46695e-11
2.74186e-12
-4.7326e-11
2.65696e-12
-4.98929e-11
2.56704e-12
-5.23654e-11
2.47236e-12
-5.47389e-11
2.37312e-12
-5.70089e-11
2.26958e-12
-5.91713e-11
2.16193e-12
-6.12222e-11
2.05041e-12
-6.3158e-11
1.93532e-12
-6.49754e-11
1.81693e-12
-6.66711e-11
1.6955e-12
-6.82427e-11
1.57133e-12
-6.96875e-11
1.44476e-12
-7.10036e-11
1.31611e-12
-7.21894e-11
1.18568e-12
-7.32433e-11
1.0538e-12
-7.41646e-11
9.20773e-13
-7.49525e-11
7.86928e-13
-7.56067e-11
6.52622e-13
-7.61269e-11
5.18202e-13
-7.65133e-11
3.8399e-13
-7.67662e-11
2.50364e-13
-7.6887e-11
1.18413e-13
-7.68857e-11
-3.3506e-15
-7.67544e-11
-1.32712e-13
-7.64906e-11
-2.64484e-13
-7.60995e-11
-3.90962e-13
-7.55846e-11
-5.14103e-13
-7.49491e-11
-6.3421e-13
-7.41955e-11
-7.52147e-13
-7.33255e-11
-8.68301e-13
-7.23455e-11
-9.78604e-13
-7.12597e-11
-1.08479e-12
-7.00738e-11
-1.18543e-12
-6.87916e-11
-1.28214e-12
-6.74158e-11
-1.37655e-12
-6.5951e-11
-1.46579e-12
-6.44022e-11
-1.55e-12
-6.27741e-11
-1.62934e-12
-6.10713e-11
-1.70382e-12
-5.92983e-11
-1.77352e-12
-5.74599e-11
-1.83853e-12
-5.55608e-11
-1.89881e-12
-5.36056e-11
-1.95448e-12
-5.15992e-11
-2.00571e-12
-4.95462e-11
-2.05249e-12
-4.74512e-11
-2.09485e-12
-4.53183e-11
-2.133e-12
-4.3152e-11
-2.16703e-12
-4.09561e-11
-2.1969e-12
-3.87343e-11
-2.22273e-12
-3.64904e-11
-2.24477e-12
-3.42282e-11
-2.26316e-12
-3.19511e-11
-2.27803e-12
-2.96624e-11
-2.28973e-12
-2.73651e-11
-2.29838e-12
-2.5062e-11
-2.30393e-12
-2.27554e-11
-2.30672e-12
-2.04483e-11
-2.3069e-12
-1.81437e-11
-2.30403e-12
-1.58436e-11
-2.29839e-12
-1.35505e-11
-2.29081e-12
-1.12676e-11
-2.28147e-12
-8.99685e-12
-2.27026e-12
-6.73933e-12
-2.25761e-12
-4.49635e-12
-2.24388e-12
-2.26952e-12
-2.22864e-12
-6.03506e-14
-2.21111e-12
2.12916e-12
-2.19073e-12
4.30324e-12
-2.17449e-12
6.45568e-12
-2.15247e-12
8.58535e-12
-2.12937e-12
1.06928e-11
-2.10631e-12
1.27772e-11
-2.08231e-12
1.48417e-11
-2.06276e-12
1.68828e-11
-2.04075e-12
1.89037e-11
-2.0221e-12
2.09106e-11
-2.00867e-12
2.29094e-11
-2.00021e-12
2.48958e-11
-1.98719e-12
2.67962e-11
-1.90088e-12
2.82937e-11
-1.49833e-12
2.8424e-11
-1.32219e-13
2.48122e-11
3.60923e-12
1.44487e-11
1.03619e-11
1.44489e-11
-1.16867e-11
2.34782e-11
-1.03971e-11
7.95226e-12
4.13094e-12
-1.13771e-11
2.56458e-11
-2.18697e-11
5.00434e-11
-2.60181e-11
7.53914e-11
-2.73369e-11
1.00984e-10
-2.76717e-11
1.26583e-10
-2.77086e-11
1.5211e-10
-2.76511e-11
1.77536e-10
-2.75551e-11
2.02841e-10
-2.74385e-11
2.28006e-10
-2.73081e-11
2.5301e-10
-2.71646e-11
2.77835e-10
-2.70061e-11
3.02471e-10
-2.68278e-11
3.26892e-10
-2.66342e-11
3.51084e-10
-2.64222e-11
3.75028e-10
-2.61912e-11
3.98705e-10
-2.59418e-11
4.22096e-10
-2.56729e-11
4.45182e-10
-2.53838e-11
4.67945e-10
-2.50741e-11
4.90364e-10
-2.47435e-11
5.1242e-10
-2.43917e-11
5.34094e-10
-2.40183e-11
5.55365e-10
-2.36231e-11
5.76213e-10
-2.32055e-11
5.96619e-10
-2.27652e-11
6.1656e-10
-2.2302e-11
6.36018e-10
-2.18156e-11
6.54971e-10
-2.13056e-11
6.73398e-10
-2.07717e-11
6.91279e-10
-2.02137e-11
7.08592e-10
-1.96314e-11
7.25315e-10
-1.90244e-11
7.41429e-10
-1.83926e-11
7.56911e-10
-1.77359e-11
7.71741e-10
-1.7054e-11
7.85897e-10
-1.63468e-11
7.99359e-10
-1.56144e-11
8.12104e-10
-1.48567e-11
8.24114e-10
-1.40738e-11
8.35366e-10
-1.32658e-11
8.45841e-10
-1.24328e-11
8.55518e-10
-1.15752e-11
8.64379e-10
-1.06933e-11
8.72403e-10
-9.7874e-12
8.79572e-10
-8.85804e-12
8.85868e-10
-7.90562e-12
8.91273e-10
-6.93052e-12
8.9577e-10
-5.93295e-12
8.9934e-10
-4.91281e-12
9.01964e-10
-3.86979e-12
9.03627e-10
-2.80739e-12
9.04318e-10
-1.7316e-12
9.04034e-10
-6.4614e-13
9.0275e-10
4.68943e-13
9.00466e-10
1.58691e-12
8.97174e-10
2.71362e-12
8.92868e-10
3.84972e-12
8.87542e-10
4.99437e-12
8.81192e-10
6.14619e-12
8.73822e-10
7.30336e-12
8.65414e-10
8.45855e-12
8.55978e-10
9.6164e-12
8.45515e-10
1.07749e-11
8.34031e-10
1.19313e-11
8.2153e-10
1.30832e-11
8.08019e-10
1.42285e-11
7.93506e-10
1.5365e-11
7.78003e-10
1.64905e-11
7.61522e-10
1.76029e-11
7.44077e-10
1.87e-11
7.25683e-10
1.97797e-11
7.06357e-10
2.08398e-11
6.86118e-10
2.18782e-11
6.64988e-10
2.28929e-11
6.42989e-10
2.38818e-11
6.20144e-10
2.4843e-11
5.96481e-10
2.57745e-11
5.72026e-10
2.66746e-11
5.4681e-10
2.75414e-11
5.20862e-10
2.83734e-11
4.94215e-10
2.91689e-11
4.66903e-10
2.99263e-11
4.3896e-10
3.06441e-11
4.10423e-10
3.13211e-11
3.81328e-10
3.19557e-11
3.51714e-10
3.25467e-11
3.2162e-10
3.30928e-11
2.91086e-10
3.3593e-11
2.60153e-10
3.40463e-11
2.28863e-10
3.44518e-11
1.97259e-10
3.48086e-11
1.65385e-10
3.51161e-11
1.33284e-10
3.53739e-11
1.01001e-10
3.55814e-11
6.85801e-11
3.57382e-11
3.60672e-11
3.58443e-11
3.50695e-12
3.58995e-11
-2.90556e-11
3.59034e-11
-6.15752e-11
3.58559e-11
-9.40069e-11
3.57576e-11
-1.26306e-10
3.56086e-11
-1.58427e-10
3.54089e-11
-1.90327e-10
3.5159e-11
-2.2196e-10
3.48592e-11
-2.53285e-10
3.45102e-11
-2.84258e-10
3.41124e-11
-3.14836e-10
3.36667e-11
-3.4498e-10
3.31738e-11
-3.74647e-10
3.26346e-11
-4.038e-10
3.20503e-11
-4.32399e-10
3.14219e-11
-4.60407e-10
3.07508e-11
-4.87788e-10
3.00383e-11
-5.14506e-10
2.92858e-11
-5.40529e-10
2.8495e-11
-5.65824e-10
2.76674e-11
-5.90359e-10
2.68048e-11
-6.14106e-10
2.59088e-11
-6.37037e-10
2.49813e-11
-6.59126e-10
2.40241e-11
-6.80348e-10
2.30391e-11
-7.0068e-10
2.20283e-11
-7.20102e-10
2.09935e-11
-7.38594e-10
1.99369e-11
-7.56138e-10
1.88604e-11
-7.72718e-10
1.77662e-11
-7.88321e-10
1.66563e-11
-8.02935e-10
1.55328e-11
-8.16548e-10
1.4398e-11
-8.29153e-10
1.3254e-11
-8.40741e-10
1.2103e-11
-8.51308e-10
1.09473e-11
-8.6085e-10
9.78903e-12
-8.69366e-10
8.63074e-12
-8.76846e-10
7.47539e-12
-8.833e-10
6.32032e-12
-8.88732e-10
5.1681e-12
-8.93144e-10
4.02258e-12
-8.96541e-10
2.88525e-12
-8.9893e-10
1.75702e-12
-9.00317e-10
6.3776e-13
-9.00705e-10
-4.78333e-13
-9.00113e-10
-1.56845e-12
-8.98552e-10
-2.6453e-12
-8.96028e-10
-3.70958e-12
-8.92557e-10
-4.75417e-12
-8.8816e-10
-5.77566e-12
-8.82853e-10
-6.77431e-12
-8.76655e-10
-7.75015e-12
-8.69582e-10
-8.70316e-12
-8.61654e-10
-9.63311e-12
-8.52888e-10
-1.05396e-11
-8.43304e-10
-1.14222e-11
-8.32921e-10
-1.22809e-11
-8.21759e-10
-1.31152e-11
-8.09839e-10
-1.39248e-11
-7.97182e-10
-1.47095e-11
-7.83809e-10
-1.54692e-11
-7.69739e-10
-1.62034e-11
-7.54995e-10
-1.69123e-11
-7.39598e-10
-1.75957e-11
-7.23569e-10
-1.82538e-11
-7.06929e-10
-1.88866e-11
-6.89699e-10
-1.94945e-11
-6.71901e-10
-2.00778e-11
-6.53555e-10
-2.06367e-11
-6.34683e-10
-2.11715e-11
-6.15305e-10
-2.16823e-11
-5.95442e-10
-2.21691e-11
-5.75115e-10
-2.26322e-11
-5.54344e-10
-2.30722e-11
-5.33151e-10
-2.34892e-11
-5.11556e-10
-2.38838e-11
-4.89579e-10
-2.42568e-11
-4.67241e-10
-2.4609e-11
-4.4456e-10
-2.49401e-11
-4.21557e-10
-2.52498e-11
-3.98249e-10
-2.5538e-11
-3.74657e-10
-2.58048e-11
-3.50798e-10
-2.60504e-11
-3.26695e-10
-2.62763e-11
-3.02365e-10
-2.64808e-11
-2.77826e-10
-2.66657e-11
-2.53097e-10
-2.68323e-11
-2.28196e-10
-2.69815e-11
-2.03144e-10
-2.71148e-11
-1.77954e-10
-2.72319e-11
-1.52643e-10
-2.73355e-11
-1.27228e-10
-2.7427e-11
-1.0173e-10
-2.75002e-11
-7.62113e-11
-2.75071e-11
-5.08838e-11
-2.72301e-11
-2.64519e-11
-2.5932e-11
-4.91859e-12
-2.16675e-11
9.50322e-12
-1.08143e-11
1.07566e-11
9.10889e-12
2.52078e-11
-5.14178e-12
2.86042e-11
8.13425e-12
-5.3183e-12
3.69705e-11
-4.01712e-11
7.38379e-11
-5.8722e-11
1.13913e-10
-6.61089e-11
1.55051e-10
-6.84919e-11
1.96463e-10
-6.90846e-11
2.37872e-10
-6.91087e-11
2.79171e-10
-6.89423e-11
3.20304e-10
-6.86879e-11
3.61236e-10
-6.83733e-11
4.01934e-10
-6.80083e-11
4.42366e-10
-6.75968e-11
4.825e-10
-6.71397e-11
5.22309e-10
-6.6636e-11
5.61761e-10
-6.60857e-11
6.00826e-10
-6.54875e-11
6.39475e-10
-6.48406e-11
6.77678e-10
-6.41447e-11
7.15404e-10
-6.33991e-11
7.52623e-10
-6.26031e-11
7.89304e-10
-6.17559e-11
8.25417e-10
-6.0857e-11
8.60929e-10
-5.99056e-11
8.95811e-10
-5.89011e-11
9.3003e-10
-5.78431e-11
9.63554e-10
-5.67309e-11
9.96352e-10
-5.55638e-11
1.02839e-09
-5.43415e-11
1.05964e-09
-5.30634e-11
1.09006e-09
-5.17291e-11
1.11963e-09
-5.0338e-11
1.1483e-09
-4.88897e-11
1.17605e-09
-4.73839e-11
1.20285e-09
-4.58202e-11
1.22865e-09
-4.41984e-11
1.25343e-09
-4.25182e-11
1.27716e-09
-4.07795e-11
1.29979e-09
-3.89823e-11
1.32131e-09
-3.71267e-11
1.34166e-09
-3.52128e-11
1.36083e-09
-3.32409e-11
1.37877e-09
-3.12114e-11
1.39546e-09
-2.91249e-11
1.41087e-09
-2.69821e-11
1.42496e-09
-2.47839e-11
1.4377e-09
-2.25313e-11
1.44907e-09
-2.02253e-11
1.45903e-09
-1.78673e-11
1.46756e-09
-1.54585e-11
1.47463e-09
-1.3e-11
1.48021e-09
-1.04929e-11
1.48428e-09
-7.93809e-12
1.48681e-09
-5.34034e-12
1.48779e-09
-2.70355e-12
1.48717e-09
-2.72875e-14
1.48496e-09
2.67937e-12
1.48114e-09
5.4099e-12
1.47569e-09
8.16448e-12
1.4686e-09
1.09413e-11
1.45986e-09
1.37374e-11
1.44946e-09
1.65491e-11
1.43739e-09
1.93721e-11
1.42364e-09
2.22013e-11
1.40822e-09
2.50337e-11
1.39113e-09
2.78655e-11
1.37237e-09
3.06918e-11
1.35194e-09
3.35078e-11
1.32986e-09
3.63085e-11
1.30613e-09
3.90889e-11
1.28078e-09
4.18441e-11
1.25381e-09
4.45687e-11
1.22526e-09
4.72578e-11
1.19513e-09
4.99062e-11
1.16347e-09
5.25087e-11
1.13029e-09
5.50603e-11
1.09563e-09
5.7556e-11
1.05952e-09
5.99907e-11
1.02201e-09
6.23596e-11
9.83124e-10
6.46579e-11
9.42919e-10
6.6881e-11
9.01437e-10
6.90243e-11
8.58729e-10
7.10835e-11
8.14845e-10
7.30542e-11
7.69842e-10
7.49324e-11
7.23775e-10
7.6714e-11
6.76704e-10
7.83953e-11
6.28691e-10
7.99727e-11
5.79798e-10
8.14426e-11
5.30093e-10
8.28019e-11
4.79641e-10
8.40475e-11
4.28513e-10
8.51768e-11
3.76779e-10
8.61874e-11
3.24511e-10
8.70771e-11
2.71784e-10
8.78439e-11
2.18671e-10
8.84864e-11
1.65249e-10
8.90031e-11
1.11593e-10
8.93931e-11
5.77813e-11
8.96556e-11
3.89008e-12
8.97901e-11
-5.00036e-11
8.97966e-11
-1.03823e-10
8.9675e-11
-1.57491e-10
8.94255e-11
-2.10931e-10
8.90484e-11
-2.64066e-10
8.85446e-11
-3.16821e-10
8.79151e-11
-3.69122e-10
8.71612e-11
-4.20894e-10
8.62844e-11
-4.72067e-10
8.52865e-11
-5.22567e-10
8.41695e-11
-5.72327e-10
8.2936e-11
-6.21279e-10
8.15884e-11
-6.69356e-10
8.01297e-11
-7.16495e-10
7.85631e-11
-7.62634e-10
7.68919e-11
-8.07714e-10
7.51197e-11
-8.51677e-10
7.32504e-11
-8.94468e-10
7.1288e-11
-9.36035e-10
6.92367e-11
-9.7633e-10
6.71009e-11
-1.0153e-09
6.48849e-11
-1.05291e-09
6.25934e-11
-1.08912e-09
6.02312e-11
-1.12388e-09
5.78028e-11
-1.15716e-09
5.53133e-11
-1.18894e-09
5.27676e-11
-1.21917e-09
5.01705e-11
-1.24783e-09
4.75271e-11
-1.27491e-09
4.48425e-11
-1.30037e-09
4.21217e-11
-1.32421e-09
3.93699e-11
-1.3464e-09
3.65921e-11
-1.36694e-09
3.37935e-11
-1.38582e-09
3.09792e-11
-1.40303e-09
2.81542e-11
-1.41857e-09
2.53232e-11
-1.43243e-09
2.24911e-11
-1.44462e-09
1.96623e-11
-1.45513e-09
1.68397e-11
-1.46399e-09
1.40275e-11
-1.4712e-09
1.12302e-11
-1.47676e-09
8.45161e-12
-1.4807e-09
5.69471e-12
-1.48302e-09
2.96152e-12
-1.48375e-09
2.526e-13
-1.48289e-09
-2.42807e-12
-1.48047e-09
-5.06813e-12
-1.47651e-09
-7.66882e-12
-1.47104e-09
-1.02263e-11
-1.46408e-09
-1.27357e-11
-1.45566e-09
-1.5196e-11
-1.4458e-09
-1.76064e-11
-1.43454e-09
-1.99657e-11
-1.4219e-09
-2.22729e-11
-1.40791e-09
-2.4527e-11
-1.39261e-09
-2.67269e-11
-1.37602e-09
-2.88719e-11
-1.35817e-09
-3.0961e-11
-1.3391e-09
-3.29935e-11
-1.31884e-09
-3.49686e-11
-1.29743e-09
-3.68859e-11
-1.27489e-09
-3.87448e-11
-1.25126e-09
-4.05449e-11
-1.22657e-09
-4.22861e-11
-1.20085e-09
-4.39686e-11
-1.17415e-09
-4.55924e-11
-1.14649e-09
-4.71579e-11
-1.1179e-09
-4.86655e-11
-1.08842e-09
-5.01155e-11
-1.05808e-09
-5.1508e-11
-1.02692e-09
-5.28435e-11
-9.9497e-10
-5.41225e-11
-9.62256e-10
-5.53449e-11
-9.28814e-10
-5.65114e-11
-8.94678e-10
-5.76232e-11
-8.59878e-10
-5.86813e-11
-8.24448e-10
-5.9686e-11
-7.88419e-10
-6.0638e-11
-7.51822e-10
-6.15377e-11
-7.14686e-10
-6.23852e-11
-6.77044e-10
-6.31802e-11
-6.38925e-10
-6.39227e-11
-6.00361e-10
-6.46135e-11
-5.61381e-10
-6.52537e-11
-5.22015e-10
-6.58436e-11
-4.82294e-10
-6.63843e-11
-4.42247e-10
-6.68772e-11
-4.01903e-10
-6.7324e-11
-3.61293e-10
-6.77258e-11
-3.20445e-10
-6.8083e-11
-2.79386e-10
-6.83965e-11
-2.38149e-10
-6.86655e-11
-1.96777e-10
-6.88726e-11
-1.55363e-10
-6.89211e-11
-1.14177e-10
-6.8416e-11
-7.4041e-11
-6.60686e-11
-3.71739e-11
-5.85347e-11
-8.43811e-12
-3.95486e-11
4.79214e-12
-4.11836e-12
3.00041e-11
-1.8784e-12
3.04799e-11
1.7471e-11
-2.47065e-11
5.33457e-11
-7.60354e-11
9.7474e-11
-1.02825e-10
1.44803e-10
-1.13429e-10
1.93136e-10
-1.16832e-10
2.41694e-10
-1.1765e-10
2.90219e-10
-1.17635e-10
3.38613e-10
-1.17332e-10
3.86819e-10
-1.16891e-10
4.34794e-10
-1.16348e-10
4.825e-10
-1.15716e-10
5.29901e-10
-1.14999e-10
5.76961e-10
-1.142e-10
6.23645e-10
-1.1332e-10
6.69917e-10
-1.12358e-10
7.15742e-10
-1.11313e-10
7.61086e-10
-1.10185e-10
8.05914e-10
-1.08973e-10
8.5019e-10
-1.07676e-10
8.93879e-10
-1.06294e-10
9.36947e-10
-1.04824e-10
9.79357e-10
-1.03268e-10
1.02107e-09
-1.01622e-10
1.06206e-09
-9.98879e-11
1.10228e-09
-9.8063e-11
1.14169e-09
-9.6147e-11
1.18027e-09
-9.4139e-11
1.21797e-09
-9.20382e-11
1.25475e-09
-8.98438e-11
1.29057e-09
-8.75551e-11
1.32541e-09
-8.51713e-11
1.35921e-09
-8.26919e-11
1.39194e-09
-8.01162e-11
1.42357e-09
-7.74437e-11
1.45404e-09
-7.4674e-11
1.48333e-09
-7.18068e-11
1.5114e-09
-6.88419e-11
1.53819e-09
-6.57793e-11
1.56368e-09
-6.26191e-11
1.58783e-09
-5.93616e-11
1.6106e-09
-5.60073e-11
1.63194e-09
-5.25568e-11
1.65183e-09
-4.90111e-11
1.67022e-09
-4.53712e-11
1.68707e-09
-4.16386e-11
1.70235e-09
-3.78148e-11
1.71603e-09
-3.39018e-11
1.72806e-09
-2.99016e-11
1.73842e-09
-2.58167e-11
1.74706e-09
-2.16494e-11
1.75397e-09
-1.74028e-11
1.75912e-09
-1.30799e-11
1.76246e-09
-8.68493e-12
1.76398e-09
-4.22375e-12
1.76365e-09
3.0375e-13
1.76145e-09
4.88596e-12
1.75734e-09
9.51645e-12
1.75132e-09
1.41925e-11
1.74335e-09
1.89093e-11
1.73343e-09
2.36612e-11
1.72153e-09
2.8442e-11
1.70766e-09
3.32448e-11
1.6918e-09
3.80627e-11
1.67394e-09
4.2889e-11
1.65409e-09
4.77163e-11
1.63224e-09
5.25371e-11
1.6084e-09
5.73435e-11
1.58258e-09
6.21271e-11
1.55479e-09
6.68796e-11
1.52504e-09
7.15924e-11
1.49335e-09
7.62568e-11
1.45975e-09
8.08641e-11
1.42425e-09
8.54055e-11
1.38689e-09
8.9872e-11
1.3477e-09
9.42551e-11
1.30671e-09
9.85457e-11
1.26397e-09
1.02735e-10
1.21951e-09
1.06815e-10
1.17339e-09
1.10777e-10
1.12566e-09
1.14613e-10
1.07637e-09
1.18314e-10
1.02558e-09
1.21873e-10
9.73359e-10
1.25282e-10
9.19762e-10
1.28533e-10
8.64861e-10
1.31619e-10
8.08729e-10
1.34533e-10
7.51438e-10
1.37268e-10
6.93066e-10
1.39819e-10
6.33693e-10
1.42179e-10
5.73401e-10
1.44343e-10
5.12275e-10
1.46305e-10
4.50402e-10
1.48062e-10
3.8787e-10
1.49609e-10
3.24771e-10
1.50943e-10
2.61197e-10
1.52061e-10
1.9724e-10
1.52959e-10
1.32995e-10
1.53637e-10
6.85562e-11
1.54093e-10
4.02005e-12
1.54326e-10
-6.05187e-11
1.54335e-10
-1.24965e-10
1.54121e-10
-1.89223e-10
1.53683e-10
-2.53198e-10
1.53024e-10
-3.16796e-10
1.52143e-10
-3.79924e-10
1.51044e-10
-4.42489e-10
1.49728e-10
-5.04403e-10
1.48199e-10
-5.65574e-10
1.4646e-10
-6.25917e-10
1.44515e-10
-6.85347e-10
1.42368e-10
-7.4378e-10
1.40025e-10
-8.01138e-10
1.3749e-10
-8.57342e-10
1.3477e-10
-9.12317e-10
1.31871e-10
-9.65993e-10
1.28799e-10
-1.0183e-09
1.25561e-10
-1.06917e-09
1.22165e-10
-1.11855e-09
1.18618e-10
-1.16637e-09
1.14928e-10
-1.21259e-09
1.11103e-10
-1.25714e-09
1.0715e-10
-1.29999e-09
1.0308e-10
-1.34108e-09
9.88989e-11
-1.38038e-09
9.46166e-11
-1.41785e-09
9.02414e-11
-1.45346e-09
8.57821e-11
-1.48717e-09
8.12473e-11
-1.51897e-09
7.66458e-11
-1.54884e-09
7.19864e-11
-1.57674e-09
6.72779e-11
-1.60268e-09
6.25289e-11
-1.62663e-09
5.77481e-11
-1.6486e-09
5.2944e-11
-1.66857e-09
4.81247e-11
-1.68655e-09
4.32985e-11
-1.70253e-09
3.84729e-11
-1.71652e-09
3.36552e-11
-1.72853e-09
2.88521e-11
-1.73858e-09
2.40704e-11
-1.74666e-09
1.93168e-11
-1.75281e-09
1.45975e-11
-1.75703e-09
9.91841e-12
-1.75935e-09
5.2844e-12
-1.75979e-09
6.98847e-13
-1.75839e-09
-3.83368e-12
-1.75516e-09
-8.29925e-12
-1.75013e-09
-1.26981e-11
-1.74333e-09
-1.70248e-11
-1.73479e-09
-2.12748e-11
-1.72454e-09
-2.54449e-11
-1.71262e-09
-2.95324e-11
-1.69905e-09
-3.3535e-11
-1.68387e-09
-3.74505e-11
-1.66712e-09
-4.1277e-11
-1.64883e-09
-4.50128e-11
-1.62905e-09
-4.86564e-11
-1.6078e-09
-5.22063e-11
-1.58514e-09
-5.56614e-11
-1.56109e-09
-5.90205e-11
-1.53569e-09
-6.22828e-11
-1.50899e-09
-6.54476e-11
-1.48102e-09
-6.85146e-11
-1.45182e-09
-7.14833e-11
-1.42144e-09
-7.43541e-11
-1.3899e-09
-7.71271e-11
-1.35726e-09
-7.98026e-11
-1.32354e-09
-8.23811e-11
-1.2888e-09
-8.48632e-11
-1.25306e-09
-8.72492e-11
-1.21636e-09
-8.95395e-11
-1.17875e-09
-9.1735e-11
-1.14025e-09
-9.38367e-11
-1.10092e-09
-9.58451e-11
-1.06078e-09
-9.77613e-11
-1.01987e-09
-9.95868e-11
-9.78231e-10
-1.01323e-10
-9.35899e-10
-1.0297e-10
-8.92908e-10
-1.04527e-10
-8.49295e-10
-1.05997e-10
-8.05094e-10
-1.07379e-10
-7.6034e-10
-1.08673e-10
-7.1507e-10
-1.0988e-10
-6.69318e-10
-1.11003e-10
-6.23117e-10
-1.12041e-10
-5.76503e-10
-1.12996e-10
-5.2951e-10
-1.1387e-10
-4.82172e-10
-1.14663e-10
-4.34523e-10
-1.15377e-10
-3.86596e-10
-1.16012e-10
-3.38425e-10
-1.16568e-10
-2.90049e-10
-1.17042e-10
-2.41518e-10
-1.17403e-10
-1.92932e-10
-1.17506e-10
-1.44566e-10
-1.16781e-10
-9.72422e-11
-1.13389e-10
-5.32046e-11
-1.02568e-10
-1.74877e-11
-7.52598e-11
1.77073e-12
-2.33711e-11
3.17791e-11
-8.51231e-13
3.13586e-11
2.07129e-11
-4.63004e-11
5.92382e-11
-1.1458e-10
1.06112e-10
-1.49692e-10
1.56165e-10
-1.63469e-10
2.07166e-10
-1.67829e-10
2.58341e-10
-1.68827e-10
3.0945e-10
-1.68747e-10
3.60407e-10
-1.68291e-10
4.11165e-10
-1.67647e-10
4.61682e-10
-1.66864e-10
5.1192e-10
-1.65954e-10
5.61842e-10
-1.64922e-10
6.11411e-10
-1.6377e-10
6.6059e-10
-1.625e-10
7.09342e-10
-1.61111e-10
7.57631e-10
-1.59603e-10
8.05421e-10
-1.57976e-10
8.52675e-10
-1.56228e-10
8.99357e-10
-1.54359e-10
9.4543e-10
-1.52368e-10
9.90857e-10
-1.50252e-10
1.0356e-09
-1.48012e-10
1.07962e-09
-1.45646e-10
1.12289e-09
-1.43152e-10
1.16536e-09
-1.4053e-10
1.20699e-09
-1.37778e-10
1.24774e-09
-1.34895e-10
1.28759e-09
-1.3188e-10
1.32648e-09
-1.28732e-10
1.36437e-09
-1.2545e-10
1.40124e-09
-1.22032e-10
1.43702e-09
-1.18478e-10
1.4717e-09
-1.14787e-10
1.50521e-09
-1.10959e-10
1.53753e-09
-1.06992e-10
1.56861e-09
-1.02886e-10
1.59841e-09
-9.86408e-11
1.62689e-09
-9.42565e-11
1.654e-09
-8.97331e-11
1.67971e-09
-8.50708e-11
1.70397e-09
-8.02703e-11
1.72675e-09
-7.53325e-11
1.74799e-09
-7.02584e-11
1.76767e-09
-6.50497e-11
1.78574e-09
-5.97081e-11
1.80216e-09
-5.42358e-11
1.81689e-09
-4.86355e-11
1.82989e-09
-4.291e-11
1.84114e-09
-3.70629e-11
1.85058e-09
-3.1098e-11
1.8582e-09
-2.50197e-11
1.86395e-09
-1.88333e-11
1.86781e-09
-1.25443e-11
1.86975e-09
-6.15873e-12
1.86973e-09
3.20132e-13
1.86773e-09
6.88385e-12
1.86373e-09
1.35242e-11
1.85769e-09
2.02346e-11
1.84959e-09
2.70072e-11
1.83942e-09
3.38336e-11
1.82715e-09
4.07049e-11
1.81279e-09
4.76116e-11
1.7963e-09
5.45441e-11
1.7777e-09
6.14923e-11
1.75697e-09
6.84457e-11
1.73411e-09
7.53935e-11
1.70913e-09
8.23242e-11
1.68203e-09
8.92262e-11
1.65282e-09
9.60874e-11
1.62152e-09
1.02895e-10
1.58814e-09
1.09638e-10
1.5527e-09
1.16302e-10
1.51523e-09
1.22875e-10
1.47576e-09
1.29344e-10
1.43432e-09
1.35696e-10
1.39095e-09
1.41918e-10
1.34568e-09
1.47998e-10
1.29858e-09
1.53923e-10
1.24968e-09
1.5968e-10
1.19903e-09
1.65257e-10
1.14671e-09
1.70642e-10
1.09276e-09
1.75823e-10
1.03726e-09
1.80787e-10
9.80269e-10
1.85525e-10
9.21868e-10
1.90025e-10
8.6213e-10
1.94276e-10
8.01136e-10
1.98268e-10
7.38968e-10
2.01992e-10
6.75713e-10
2.05438e-10
6.11459e-10
2.086e-10
5.46298e-10
2.11468e-10
4.80325e-10
2.14036e-10
4.13636e-10
2.16299e-10
3.46328e-10
2.1825e-10
2.78504e-10
2.19885e-10
2.10262e-10
2.21199e-10
1.41708e-10
2.22191e-10
7.29425e-11
2.22857e-10
4.07073e-12
2.23196e-10
-6.48037e-11
2.23209e-10
-1.33577e-10
2.22893e-10
-2.02145e-10
2.22251e-10
-2.70404e-10
2.21284e-10
-3.38253e-10
2.19993e-10
-4.05589e-10
2.18381e-10
-4.72314e-10
2.16454e-10
-5.38328e-10
2.14214e-10
-6.03535e-10
2.11669e-10
-6.67841e-10
2.08823e-10
-7.31154e-10
2.05683e-10
-7.93385e-10
2.02258e-10
-8.54447e-10
1.98555e-10
-9.14257e-10
1.94583e-10
-9.72734e-10
1.90352e-10
-1.0298e-09
1.85871e-10
-1.08539e-09
1.81151e-10
-1.13942e-09
1.76203e-10
-1.19184e-09
1.71039e-10
-1.24258e-09
1.65669e-10
-1.29157e-09
1.60106e-10
-1.33878e-09
1.54362e-10
-1.38415e-09
1.48449e-10
-1.42762e-09
1.42381e-10
-1.46917e-09
1.36169e-10
-1.50875e-09
1.29826e-10
-1.54633e-09
1.23366e-10
-1.58188e-09
1.16801e-10
-1.61538e-09
1.10144e-10
-1.6468e-09
1.03407e-10
-1.67612e-09
9.66044e-11
-1.70334e-09
8.97474e-11
-1.72844e-09
8.28487e-11
-1.75142e-09
7.59206e-11
-1.77227e-09
6.89747e-11
-1.79099e-09
6.20224e-11
-1.80759e-09
5.50748e-11
-1.82208e-09
4.81422e-11
-1.83446e-09
4.12347e-11
-1.84475e-09
3.43619e-11
-1.85297e-09
2.75333e-11
-1.85913e-09
2.07577e-11
-1.86325e-09
1.40436e-11
-1.86537e-09
7.39904e-12
-1.8655e-09
8.30943e-13
-1.86368e-09
-5.65331e-12
-1.85994e-09
-1.20439e-11
-1.8543e-09
-1.83377e-11
-1.84679e-09
-2.45288e-11
-1.83745e-09
-3.06114e-11
-1.82632e-09
-3.65804e-11
-1.81342e-09
-4.24314e-11
-1.79879e-09
-4.81607e-11
-1.78248e-09
-5.37651e-11
-1.76451e-09
-5.92418e-11
-1.74494e-09
-6.45883e-11
-1.72379e-09
-6.98026e-11
-1.70112e-09
-7.48825e-11
-1.67695e-09
-7.98267e-11
-1.65134e-09
-8.46337e-11
-1.62432e-09
-8.93023e-11
-1.59594e-09
-9.38319e-11
-1.56623e-09
-9.8222e-11
-1.53524e-09
-1.02473e-10
-1.50301e-09
-1.06583e-10
-1.46958e-09
-1.10555e-10
-1.435e-09
-1.14388e-10
-1.39929e-09
-1.18083e-10
-1.36252e-09
-1.21641e-10
-1.3247e-09
-1.25062e-10
-1.2859e-09
-1.28347e-10
-1.24613e-09
-1.31497e-10
-1.20546e-09
-1.34513e-10
-1.1639e-09
-1.37398e-10
-1.12151e-09
-1.40151e-10
-1.07832e-09
-1.42775e-10
-1.03437e-09
-1.45271e-10
-9.89701e-10
-1.47639e-10
-9.44345e-10
-1.49881e-10
-8.98341e-10
-1.51997e-10
-8.51727e-10
-1.53989e-10
-8.04539e-10
-1.55856e-10
-7.56814e-10
-1.57602e-10
-7.08587e-10
-1.59226e-10
-6.59895e-10
-1.6073e-10
-6.10774e-10
-1.62116e-10
-5.61258e-10
-1.63386e-10
-5.11384e-10
-1.6454e-10
-4.61187e-10
-1.65578e-10
-4.107e-10
-1.665e-10
-3.59961e-10
-1.67307e-10
-3.09009e-10
-1.67992e-10
-2.57896e-10
-1.68515e-10
-2.06718e-10
-1.68683e-10
-1.5574e-10
-1.67756e-10
-1.05769e-10
-1.63356e-10
-5.90383e-11
-1.49292e-10
-2.06712e-11
-1.1362e-10
8.11058e-13
-4.48467e-11
3.25926e-11
-7.02472e-13
3.20829e-11
2.14792e-11
-6.84753e-11
6.08488e-11
-1.53967e-10
1.08646e-10
-1.97498e-10
1.59637e-10
-2.14456e-10
2.11564e-10
-2.19749e-10
2.63638e-10
-2.20899e-10
3.15622e-10
-2.20731e-10
3.67438e-10
-2.20108e-10
4.19044e-10
-2.19254e-10
4.70403e-10
-2.18223e-10
5.21479e-10
-2.1703e-10
5.72235e-10
-2.15679e-10
6.22635e-10
-2.14171e-10
6.72643e-10
-2.12508e-10
7.22221e-10
-2.10691e-10
7.71334e-10
-2.08717e-10
8.19945e-10
-2.06588e-10
8.68016e-10
-2.04301e-10
9.15511e-10
-2.01856e-10
9.62394e-10
-1.99251e-10
1.00863e-09
-1.96485e-10
1.05417e-09
-1.93557e-10
1.09899e-09
-1.90464e-10
1.14304e-09
-1.87205e-10
1.18629e-09
-1.8378e-10
1.2287e-09
-1.80185e-10
1.27023e-09
-1.76421e-10
1.31084e-09
-1.72484e-10
1.35048e-09
-1.68374e-10
1.38912e-09
-1.6409e-10
1.42672e-09
-1.59629e-10
1.46324e-09
-1.54991e-10
1.49863e-09
-1.50175e-10
1.53285e-09
-1.45179e-10
1.56586e-09
-1.40003e-10
1.59762e-09
-1.34645e-10
1.62809e-09
-1.29107e-10
1.65722e-09
-1.23386e-10
1.68497e-09
-1.17484e-10
1.7113e-09
-1.11401e-10
1.73616e-09
-1.05137e-10
1.75952e-09
-9.86929e-11
1.78133e-09
-9.20708e-11
1.80155e-09
-8.52723e-11
1.82014e-09
-7.82996e-11
1.83706e-09
-7.11554e-11
1.85226e-09
-6.3843e-11
1.86571e-09
-5.63661e-11
1.87738e-09
-4.87291e-11
1.88721e-09
-4.09371e-11
1.89519e-09
-3.29958e-11
1.90127e-09
-2.4912e-11
1.90541e-09
-1.66926e-11
1.9076e-09
-8.34481e-12
1.90779e-09
1.25733e-13
1.90597e-09
8.71116e-12
1.90209e-09
1.74017e-11
1.89614e-09
2.61876e-11
1.88809e-09
3.50585e-11
1.87792e-09
4.40032e-11
1.86561e-09
5.30102e-11
1.85116e-09
6.20675e-11
1.83454e-09
7.11622e-11
1.81575e-09
8.02812e-11
1.79478e-09
8.94108e-11
1.77164e-09
9.85368e-11
1.74632e-09
1.07644e-10
1.71882e-09
1.16718e-10
1.68917e-09
1.25742e-10
1.65736e-09
1.347e-10
1.62343e-09
1.43575e-10
1.58738e-09
1.52352e-10
1.54924e-09
1.61013e-10
1.50904e-09
1.69541e-10
1.46682e-09
1.77918e-10
1.42261e-09
1.86129e-10
1.37646e-09
1.94155e-10
1.3284e-09
2.0198e-10
1.27849e-09
2.09587e-10
1.22679e-09
2.16959e-10
1.17336e-09
2.2408e-10
1.11825e-09
2.30934e-10
1.06154e-09
2.37505e-10
1.00329e-09
2.43777e-10
9.43584e-10
2.49737e-10
8.82497e-10
2.55368e-10
8.2011e-10
2.60659e-10
7.5651e-10
2.65596e-10
6.91786e-10
2.70166e-10
6.26029e-10
2.74359e-10
5.59333e-10
2.78164e-10
4.91797e-10
2.81573e-10
4.2352e-10
2.84575e-10
3.54603e-10
2.87165e-10
2.85151e-10
2.89335e-10
2.15267e-10
2.91081e-10
1.45059e-10
2.92398e-10
7.46333e-11
2.93282e-10
4.0969e-12
2.93732e-10
-6.64421e-11
2.93747e-10
-1.36876e-10
2.93327e-10
-2.07097e-10
2.92473e-10
-2.77e-10
2.91186e-10
-3.46476e-10
2.8947e-10
-4.15423e-10
2.87329e-10
-4.83735e-10
2.84767e-10
-5.51313e-10
2.81793e-10
-6.18055e-10
2.78412e-10
-6.83865e-10
2.74634e-10
-7.48648e-10
2.70468e-10
-8.12311e-10
2.65924e-10
-8.74767e-10
2.61013e-10
-9.35928e-10
2.55747e-10
-9.95712e-10
2.50139e-10
-1.05404e-09
2.44204e-10
-1.11084e-09
2.37953e-10
-1.16604e-09
2.31404e-10
-1.21956e-09
2.2457e-10
-1.27136e-09
2.17468e-10
-1.32136e-09
2.10113e-10
-1.36952e-09
2.02522e-10
-1.41578e-09
1.94712e-10
-1.46009e-09
1.867e-10
-1.50242e-09
1.78502e-10
-1.54273e-09
1.70136e-10
-1.58098e-09
1.61619e-10
-1.61714e-09
1.52967e-10
-1.6512e-09
1.44198e-10
-1.68312e-09
1.3533e-10
-1.71289e-09
1.26378e-10
-1.7405e-09
1.17358e-10
-1.76594e-09
1.08289e-10
-1.78921e-09
9.91843e-11
-1.81029e-09
9.00604e-11
-1.8292e-09
8.09319e-11
-1.84594e-09
7.18133e-11
-1.86052e-09
6.27182e-11
-1.87294e-09
5.36597e-11
-1.88323e-09
4.46506e-11
-1.8914e-09
3.5703e-11
-1.89747e-09
2.68286e-11
-1.90147e-09
1.80384e-11
-1.90341e-09
9.34311e-12
-1.90334e-09
7.52566e-13
-1.90127e-09
-7.72361e-12
-1.89723e-09
-1.6077e-11
-1.89127e-09
-2.43019e-11
-1.8834e-09
-3.23912e-11
-1.87368e-09
-4.03378e-11
-1.86212e-09
-4.81351e-11
-1.84877e-09
-5.57773e-11
-1.83367e-09
-6.32597e-11
-1.81686e-09
-7.05779e-11
-1.79837e-09
-7.77285e-11
-1.77825e-09
-8.47081e-11
-1.75654e-09
-9.1514e-11
-1.73328e-09
-9.81438e-11
-1.70852e-09
-1.04596e-10
-1.68228e-09
-1.10868e-10
-1.65463e-09
-1.16959e-10
-1.62559e-09
-1.22869e-10
-1.59521e-09
-1.28597e-10
-1.56354e-09
-1.34143e-10
-1.53062e-09
-1.39507e-10
-1.49648e-09
-1.4469e-10
-1.46118e-09
-1.49692e-10
-1.42475e-09
-1.54514e-10
-1.38723e-09
-1.59157e-10
-1.34867e-09
-1.63622e-10
-1.30911e-09
-1.6791e-10
-1.26858e-09
-1.72023e-10
-1.22713e-09
-1.75962e-10
-1.1848e-09
-1.7973e-10