/*--------------------------------*- C++ -*----------------------------------*\
| =========                 |                                                 |
| \\      /  F ield         | OpenFOAM: The Open Source CFD Toolbox           |
|  \\    /   O peration     | Version:  2412                                  |
|   \\  /    A nd           | Website:  www.openfoam.com                      |
|    \\/     M anipulation  |                                                 |
\*---------------------------------------------------------------------------*/
FoamFile
{
    version     2.0;
    format      ascii;
    arch        "LSB;label=32;scalar=64";
    class       volVectorField;
    location    "1.5";
    object      U;
}
// * * * * * * * * * * * * * * * * * * * * * * * * * * * * * * * * * * * * * //

dimensions      [0 1 -1 0 0 0 0];

internalField   nonuniform List<vector> 
40000
(
(-9.29648e-06 5.95269e-06 0)
(-2.39572e-05 6.47982e-06 0)
(-2.91162e-05 5.42407e-06 0)
(-2.99453e-05 4.81466e-06 0)
(-2.86645e-05 4.61267e-06 0)
(-2.67233e-05 4.56574e-06 0)
(-2.46216e-05 4.55207e-06 0)
(-2.25047e-05 4.53916e-06 0)
(-2.03896e-05 4.5214e-06 0)
(-1.82681e-05 4.49357e-06 0)
(-1.61364e-05 4.45529e-06 0)
(-1.3994e-05 4.40829e-06 0)
(-1.18375e-05 4.35584e-06 0)
(-9.67496e-06 4.29713e-06 0)
(-7.48693e-06 4.24235e-06 0)
(-5.27192e-06 4.17499e-06 0)
(-3.04904e-06 4.10462e-06 0)
(-8.05272e-07 4.03103e-06 0)
(1.45665e-06 3.95237e-06 0)
(3.73334e-06 3.87017e-06 0)
(6.02556e-06 3.78436e-06 0)
(8.33215e-06 3.69486e-06 0)
(1.06517e-05 3.60168e-06 0)
(1.29825e-05 3.50488e-06 0)
(1.53229e-05 3.40458e-06 0)
(1.76712e-05 3.30089e-06 0)
(2.00253e-05 3.19391e-06 0)
(2.23831e-05 3.08372e-06 0)
(2.47423e-05 2.97041e-06 0)
(2.71004e-05 2.85409e-06 0)
(2.94546e-05 2.73488e-06 0)
(3.18022e-05 2.61288e-06 0)
(3.414e-05 2.48821e-06 0)
(3.64649e-05 2.361e-06 0)
(3.87734e-05 2.23136e-06 0)
(4.10621e-05 2.0994e-06 0)
(4.33273e-05 1.96526e-06 0)
(4.55652e-05 1.82904e-06 0)
(4.77719e-05 1.69088e-06 0)
(4.99432e-05 1.5509e-06 0)
(5.2075e-05 1.40926e-06 0)
(5.41629e-05 1.2661e-06 0)
(5.62025e-05 1.12156e-06 0)
(5.81892e-05 9.75811e-07 0)
(6.01184e-05 8.28994e-07 0)
(6.19854e-05 6.81263e-07 0)
(6.37856e-05 5.32778e-07 0)
(6.55141e-05 3.83707e-07 0)
(6.71662e-05 2.34242e-07 0)
(6.87371e-05 8.46104e-08 0)
(7.02218e-05 -6.48847e-08 0)
(7.16155e-05 -2.13788e-07 0)
(7.29143e-05 -3.62241e-07 0)
(7.41149e-05 -5.12126e-07 0)
(7.52127e-05 -6.65279e-07 0)
(7.62034e-05 -8.20071e-07 0)
(7.70816e-05 -9.73438e-07 0)
(7.78433e-05 -1.12783e-06 0)
(7.84862e-05 -1.28282e-06 0)
(7.90079e-05 -1.43772e-06 0)
(7.94048e-05 -1.59197e-06 0)
(7.96736e-05 -1.74438e-06 0)
(7.98082e-05 -1.89312e-06 0)
(7.98139e-05 -2.03035e-06 0)
(7.96945e-05 -2.16629e-06 0)
(7.94427e-05 -2.30231e-06 0)
(7.90565e-05 -2.43763e-06 0)
(7.85354e-05 -2.57161e-06 0)
(7.78795e-05 -2.70383e-06 0)
(7.70893e-05 -2.83401e-06 0)
(7.61654e-05 -2.96191e-06 0)
(7.51088e-05 -3.08735e-06 0)
(7.39206e-05 -3.21019e-06 0)
(7.26022e-05 -3.33027e-06 0)
(7.11554e-05 -3.44748e-06 0)
(6.95821e-05 -3.56166e-06 0)
(6.78845e-05 -3.6727e-06 0)
(6.60653e-05 -3.78045e-06 0)
(6.41275e-05 -3.88478e-06 0)
(6.20743e-05 -3.98556e-06 0)
(5.99095e-05 -4.08266e-06 0)
(5.76371e-05 -4.17593e-06 0)
(5.52614e-05 -4.26523e-06 0)
(5.2787e-05 -4.35041e-06 0)
(5.02184e-05 -4.43131e-06 0)
(4.75605e-05 -4.50777e-06 0)
(4.48183e-05 -4.57966e-06 0)
(4.19968e-05 -4.64684e-06 0)
(3.9101e-05 -4.7092e-06 0)
(3.61363e-05 -4.76665e-06 0)
(3.31079e-05 -4.81913e-06 0)
(3.00214e-05 -4.86659e-06 0)
(2.68823e-05 -4.90895e-06 0)
(2.36965e-05 -4.94614e-06 0)
(2.04698e-05 -4.97809e-06 0)
(1.72083e-05 -5.00473e-06 0)
(1.39181e-05 -5.02596e-06 0)
(1.06051e-05 -5.04172e-06 0)
(7.27541e-06 -5.05197e-06 0)
(3.93506e-06 -5.0567e-06 0)
(5.90318e-07 -5.05615e-06 0)
(-2.75291e-06 -5.05035e-06 0)
(-6.08838e-06 -5.03904e-06 0)
(-9.41013e-06 -5.02225e-06 0)
(-1.27122e-05 -4.99999e-06 0)
(-1.59887e-05 -4.97231e-06 0)
(-1.92335e-05 -4.93928e-06 0)
(-2.24407e-05 -4.90097e-06 0)
(-2.56045e-05 -4.85746e-06 0)
(-2.87191e-05 -4.80883e-06 0)
(-3.17787e-05 -4.75517e-06 0)
(-3.47778e-05 -4.69661e-06 0)
(-3.77107e-05 -4.63328e-06 0)
(-4.05721e-05 -4.56527e-06 0)
(-4.33566e-05 -4.49268e-06 0)
(-4.60589e-05 -4.41563e-06 0)
(-4.86741e-05 -4.33423e-06 0)
(-5.11971e-05 -4.24858e-06 0)
(-5.36232e-05 -4.15882e-06 0)
(-5.5948e-05 -4.06506e-06 0)
(-5.81672e-05 -3.96744e-06 0)
(-6.02766e-05 -3.86612e-06 0)
(-6.22727e-05 -3.76122e-06 0)
(-6.41518e-05 -3.65289e-06 0)
(-6.59107e-05 -3.54129e-06 0)
(-6.75467e-05 -3.42657e-06 0)
(-6.9057e-05 -3.30885e-06 0)
(-7.04394e-05 -3.18828e-06 0)
(-7.16922e-05 -3.065e-06 0)
(-7.28137e-05 -2.93915e-06 0)
(-7.38028e-05 -2.8109e-06 0)
(-7.46588e-05 -2.68045e-06 0)
(-7.5381e-05 -2.54799e-06 0)
(-7.59692e-05 -2.41379e-06 0)
(-7.64234e-05 -2.27813e-06 0)
(-7.67437e-05 -2.14146e-06 0)
(-7.69311e-05 -2.00443e-06 0)
(-7.69913e-05 -1.86746e-06 0)
(-7.69253e-05 -1.7231e-06 0)
(-7.67278e-05 -1.57195e-06 0)
(-7.64004e-05 -1.41819e-06 0)
(-7.59473e-05 -1.26334e-06 0)
(-7.53719e-05 -1.10833e-06 0)
(-7.4677e-05 -9.53733e-07 0)
(-7.38648e-05 -8.00182e-07 0)
(-7.29392e-05 -6.45569e-07 0)
(-7.19055e-05 -4.92174e-07 0)
(-7.07686e-05 -3.42233e-07 0)
(-6.95332e-05 -1.94029e-07 0)
(-6.82029e-05 -4.53976e-08 0)
(-6.67813e-05 1.03862e-07 0)
(-6.52731e-05 2.53287e-07 0)
(-6.36832e-05 4.0258e-07 0)
(-6.20162e-05 5.51562e-07 0)
(-6.02767e-05 7.00016e-07 0)
(-5.84693e-05 8.47716e-07 0)
(-5.65988e-05 9.94505e-07 0)
(-5.46698e-05 1.14022e-06 0)
(-5.26871e-05 1.28467e-06 0)
(-5.06555e-05 1.42771e-06 0)
(-4.85795e-05 1.5692e-06 0)
(-4.64635e-05 1.70897e-06 0)
(-4.43119e-05 1.84689e-06 0)
(-4.21287e-05 1.98295e-06 0)
(-3.99177e-05 2.11702e-06 0)
(-3.76827e-05 2.24889e-06 0)
(-3.54275e-05 2.37845e-06 0)
(-3.31558e-05 2.50562e-06 0)
(-3.08706e-05 2.63017e-06 0)
(-2.85754e-05 2.75202e-06 0)
(-2.6273e-05 2.8711e-06 0)
(-2.39658e-05 2.98725e-06 0)
(-2.16567e-05 3.10039e-06 0)
(-1.93486e-05 3.21061e-06 0)
(-1.70439e-05 3.31778e-06 0)
(-1.4745e-05 3.42165e-06 0)
(-1.24547e-05 3.52206e-06 0)
(-1.01756e-05 3.61897e-06 0)
(-7.9092e-06 3.71227e-06 0)
(-5.65659e-06 3.80181e-06 0)
(-3.41924e-06 3.8877e-06 0)
(-1.19857e-06 3.97021e-06 0)
(1.0082e-06 4.04968e-06 0)
(3.19353e-06 4.12271e-06 0)
(5.35502e-06 4.1942e-06 0)
(7.49887e-06 4.26183e-06 0)
(9.6203e-06 4.32499e-06 0)
(1.17216e-05 4.3845e-06 0)
(1.3797e-05 4.4366e-06 0)
(1.58468e-05 4.48661e-06 0)
(1.78795e-05 4.53034e-06 0)
(1.98948e-05 4.5667e-06 0)
(2.19015e-05 4.59459e-06 0)
(2.39039e-05 4.61119e-06 0)
(2.58846e-05 4.62775e-06 0)
(2.771e-05 4.69054e-06 0)
(2.8855e-05 4.94721e-06 0)
(2.77172e-05 5.68825e-06 0)
(2.15319e-05 7.11397e-06 0)
(7.69193e-06 7.65941e-06 0)
(-7.80038e-06 1.90219e-05 0)
(-1.53017e-05 1.25245e-05 0)
(-5.40968e-06 9.18082e-07 0)
(1.39101e-05 -5.53876e-06 0)
(3.7511e-05 -8.08248e-06 0)
(6.26271e-05 -8.87856e-06 0)
(8.81827e-05 -9.0835e-06 0)
(0.00011381 -9.11807e-06 0)
(0.000139387 -9.10506e-06 0)
(0.000164873 -9.08234e-06 0)
(0.000190246 -9.06056e-06 0)
(0.000215488 -9.04161e-06 0)
(0.00024058 -9.02222e-06 0)
(0.000265502 -9.00212e-06 0)
(0.000290239 -8.96859e-06 0)
(0.000314774 -8.94003e-06 0)
(0.000339088 -8.90529e-06 0)
(0.000363162 -8.86436e-06 0)
(0.00038698 -8.81925e-06 0)
(0.000410521 -8.76786e-06 0)
(0.000433766 -8.70994e-06 0)
(0.000456697 -8.64534e-06 0)
(0.000479295 -8.57388e-06 0)
(0.00050154 -8.49534e-06 0)
(0.000523412 -8.40945e-06 0)
(0.000544891 -8.31591e-06 0)
(0.000565957 -8.21446e-06 0)
(0.000586591 -8.10487e-06 0)
(0.000606771 -7.98693e-06 0)
(0.000626478 -7.86038e-06 0)
(0.00064569 -7.725e-06 0)
(0.000664387 -7.58054e-06 0)
(0.000682547 -7.42676e-06 0)
(0.000700151 -7.26344e-06 0)
(0.000717176 -7.09036e-06 0)
(0.000733601 -6.90732e-06 0)
(0.000749405 -6.71413e-06 0)
(0.000764568 -6.51062e-06 0)
(0.000779067 -6.29665e-06 0)
(0.000792882 -6.07209e-06 0)
(0.000805992 -5.83681e-06 0)
(0.000818375 -5.59074e-06 0)
(0.000830012 -5.33381e-06 0)
(0.000840881 -5.06599e-06 0)
(0.000850963 -4.78729e-06 0)
(0.000860238 -4.49778e-06 0)
(0.000868685 -4.19751e-06 0)
(0.000876287 -3.88656e-06 0)
(0.000883025 -3.565e-06 0)
(0.00088888 -3.23279e-06 0)
(0.000893835 -2.88977e-06 0)
(0.000897873 -2.5355e-06 0)
(0.000900975 -2.16972e-06 0)
(0.000903122 -1.79399e-06 0)
(0.000904301 -1.41104e-06 0)
(0.000904507 -1.02225e-06 0)
(0.000903725 -6.33746e-07 0)
(0.000901942 -2.42143e-07 0)
(0.000899155 1.53377e-07 0)
(0.000895357 5.5283e-07 0)
(0.000890542 9.56256e-07 0)
(0.000884704 1.36412e-06 0)
(0.000877844 1.77743e-06 0)
(0.000869955 2.20054e-06 0)
(0.000861031 2.6256e-06 0)
(0.00085108 3.05016e-06 0)
(0.000840105 3.47356e-06 0)
(0.000828109 3.89526e-06 0)
(0.0008151 4.31462e-06 0)
(0.000801085 4.7309e-06 0)
(0.000786073 5.14331e-06 0)
(0.000770076 5.551e-06 0)
(0.000753108 5.95312e-06 0)
(0.000735182 6.34878e-06 0)
(0.000716316 6.73713e-06 0)
(0.000696527 7.11734e-06 0)
(0.000675836 7.48859e-06 0)
(0.000654263 7.85011e-06 0)
(0.000631833 8.20114e-06 0)
(0.00060857 8.54097e-06 0)
(0.000584502 8.86893e-06 0)
(0.000559657 9.18439e-06 0)
(0.000534065 9.48679e-06 0)
(0.000507757 9.77557e-06 0)
(0.000480766 1.00502e-05 0)
(0.000453127 1.03103e-05 0)
(0.000424876 1.05553e-05 0)
(0.000396048 1.07849e-05 0)
(0.000366681 1.09986e-05 0)
(0.000336814 1.11959e-05 0)
(0.000306487 1.13766e-05 0)
(0.00027574 1.15402e-05 0)
(0.000244615 1.16865e-05 0)
(0.000213155 1.18152e-05 0)
(0.000181401 1.19261e-05 0)
(0.0001494 1.20191e-05 0)
(0.000117193 1.20942e-05 0)
(8.48272e-05 1.21511e-05 0)
(5.2346e-05 1.21901e-05 0)
(1.97946e-05 1.2211e-05 0)
(-1.27811e-05 1.22137e-05 0)
(-4.5337e-05 1.21981e-05 0)
(-7.78272e-05 1.21644e-05 0)
(-0.000110207 1.21127e-05 0)
(-0.000142431 1.2043e-05 0)
(-0.000174456 1.19553e-05 0)
(-0.000206236 1.18497e-05 0)
(-0.000237729 1.17264e-05 0)
(-0.000268892 1.15855e-05 0)
(-0.00029968 1.14272e-05 0)
(-0.000330055 1.12517e-05 0)
(-0.000359973 1.10593e-05 0)
(-0.000389395 1.08502e-05 0)
(-0.000418283 1.06249e-05 0)
(-0.000446599 1.03838e-05 0)
(-0.000474304 1.01272e-05 0)
(-0.000501365 9.85584e-06 0)
(-0.000527746 9.5701e-06 0)
(-0.000553415 9.2706e-06 0)
(-0.000578339 8.95795e-06 0)
(-0.00060249 8.63278e-06 0)
(-0.000625838 8.29573e-06 0)
(-0.000648356 7.94745e-06 0)
(-0.000670019 7.58866e-06 0)
(-0.000690803 7.22007e-06 0)
(-0.000710687 6.8424e-06 0)
(-0.00072965 6.45645e-06 0)
(-0.000747674 6.06301e-06 0)
(-0.000764741 5.66292e-06 0)
(-0.000780838 5.25698e-06 0)
(-0.00079595 4.84605e-06 0)
(-0.000810067 4.43095e-06 0)
(-0.000823179 4.01252e-06 0)
(-0.000835278 3.59159e-06 0)
(-0.000846358 3.16893e-06 0)
(-0.000856414 2.74522e-06 0)
(-0.000865444 2.32105e-06 0)
(-0.000873443 1.89753e-06 0)
(-0.00088041 1.48085e-06 0)
(-0.000886353 1.07151e-06 0)
(-0.000891274 6.67133e-07 0)
(-0.000895178 2.66928e-07 0)
(-0.00089807 -1.29478e-07 0)
(-0.000899956 -5.22123e-07 0)
(-0.000900842 -9.11452e-07 0)
(-0.000900738 -1.30077e-06 0)
(-0.00089966 -1.68466e-06 0)
(-0.000897613 -2.06137e-06 0)
(-0.00089461 -2.42823e-06 0)
(-0.000890672 -2.78347e-06 0)
(-0.000885815 -3.12724e-06 0)
(-0.000880058 -3.45999e-06 0)
(-0.000873418 -3.78199e-06 0)
(-0.000865912 -4.09334e-06 0)
(-0.00085756 -4.394e-06 0)
(-0.00084838 -4.68401e-06 0)
(-0.00083839 -4.96336e-06 0)
(-0.000827612 -5.232e-06 0)
(-0.000816066 -5.48993e-06 0)
(-0.000803771 -5.73718e-06 0)
(-0.00079075 -5.97371e-06 0)
(-0.000777022 -6.19951e-06 0)
(-0.000762609 -6.41468e-06 0)
(-0.000747532 -6.61921e-06 0)
(-0.000731813 -6.81317e-06 0)
(-0.000715471 -6.99685e-06 0)
(-0.00069853 -7.17054e-06 0)
(-0.000681009 -7.33446e-06 0)
(-0.00066293 -7.48891e-06 0)
(-0.000644315 -7.63412e-06 0)
(-0.000625183 -7.77014e-06 0)
(-0.000605556 -7.89706e-06 0)
(-0.000585454 -8.01504e-06 0)
(-0.000564898 -8.12428e-06 0)
(-0.000543909 -8.22501e-06 0)
(-0.000522508 -8.31774e-06 0)
(-0.000500715 -8.40316e-06 0)
(-0.00047855 -8.48161e-06 0)
(-0.000456034 -8.55314e-06 0)
(-0.000433185 -8.61767e-06 0)
(-0.000410023 -8.67497e-06 0)
(-0.000386566 -8.7247e-06 0)
(-0.000362833 -8.76666e-06 0)
(-0.000338846 -8.80498e-06 0)
(-0.000314623 -8.83395e-06 0)
(-0.000290181 -8.8568e-06 0)
(-0.00026554 -8.87494e-06 0)
(-0.000240719 -8.88792e-06 0)
(-0.000215735 -8.9004e-06 0)
(-0.000190608 -8.90716e-06 0)
(-0.000165351 -8.91398e-06 0)
(-0.00013998 -8.92326e-06 0)
(-0.000114513 -8.93344e-06 0)
(-8.89795e-05 -8.92175e-06 0)
(-6.34748e-05 -8.75601e-06 0)
(-3.83454e-05 -7.97533e-06 0)
(-1.46975e-05 -5.33636e-06 0)
(4.60745e-06 1.43935e-06 0)
(1.43803e-05 1.37164e-05 0)
(7.28675e-06 2.15712e-05 0)
(-6.29358e-06 2.70202e-05 0)
(-3.78299e-06 3.39398e-06 0)
(1.98688e-05 -2.32563e-05 0)
(5.43027e-05 -3.76275e-05 0)
(9.3505e-05 -4.33611e-05 0)
(0.000134389 -4.5214e-05 0)
(0.000175759 -4.56878e-05 0)
(0.000217205 -4.57286e-05 0)
(0.000258577 -4.56269e-05 0)
(0.000299806 -4.54628e-05 0)
(0.00034085 -4.526e-05 0)
(0.000381675 -4.50273e-05 0)
(0.00042225 -4.47669e-05 0)
(0.000462543 -4.44783e-05 0)
(0.000502525 -4.41586e-05 0)
(0.000542165 -4.38098e-05 0)
(0.000581433 -4.34298e-05 0)
(0.0006203 -4.30179e-05 0)
(0.000658735 -4.25741e-05 0)
(0.000696709 -4.20975e-05 0)
(0.000734192 -4.15875e-05 0)
(0.000771151 -4.10434e-05 0)
(0.000807558 -4.04649e-05 0)
(0.00084338 -3.98513e-05 0)
(0.000878587 -3.92024e-05 0)
(0.000913147 -3.85176e-05 0)
(0.000947028 -3.77964e-05 0)
(0.000980199 -3.70385e-05 0)
(0.00101263 -3.62434e-05 0)
(0.00104428 -3.54107e-05 0)
(0.00107512 -3.454e-05 0)
(0.00110513 -3.36311e-05 0)
(0.00113426 -3.26836e-05 0)
(0.00116248 -3.16971e-05 0)
(0.00118976 -3.06714e-05 0)
(0.00121607 -2.96063e-05 0)
(0.00124138 -2.85016e-05 0)
(0.00126564 -2.73571e-05 0)
(0.00128883 -2.61729e-05 0)
(0.00131091 -2.49489e-05 0)
(0.00133185 -2.36853e-05 0)
(0.00135162 -2.23821e-05 0)
(0.00137019 -2.10397e-05 0)
(0.00138751 -1.96584e-05 0)
(0.00140357 -1.82387e-05 0)
(0.00141833 -1.67811e-05 0)
(0.00143175 -1.52865e-05 0)
(0.00144382 -1.37555e-05 0)
(0.00145449 -1.21888e-05 0)
(0.00146374 -1.05873e-05 0)
(0.00147154 -8.95153e-06 0)
(0.00147788 -7.2816e-06 0)
(0.00148271 -5.57721e-06 0)
(0.00148601 -3.83897e-06 0)
(0.00148777 -2.07132e-06 0)
(0.00148796 -2.83176e-07 0)
(0.00148655 1.51825e-06 0)
(0.00148354 3.33621e-06 0)
(0.00147891 5.17031e-06 0)
(0.00147264 7.01898e-06 0)
(0.00146472 8.88026e-06 0)
(0.00145515 1.07517e-05 0)
(0.00144392 1.26305e-05 0)
(0.00143101 1.45106e-05 0)
(0.00141643 1.63931e-05 0)
(0.00140017 1.82752e-05 0)
(0.00138224 2.01533e-05 0)
(0.00136264 2.20238e-05 0)
(0.00134138 2.38834e-05 0)
(0.00131848 2.57286e-05 0)
(0.00129393 2.75562e-05 0)
(0.00126777 2.93625e-05 0)
(0.00124 3.11443e-05 0)
(0.00121065 3.28981e-05 0)
(0.00117975 3.46204e-05 0)
(0.00114731 3.63079e-05 0)
(0.00111338 3.79574e-05 0)
(0.00107799 3.95655e-05 0)
(0.00104117 4.1129e-05 0)
(0.00100296 4.2645e-05 0)
(0.0009634 4.41104e-05 0)
(0.000922542 4.55222e-05 0)
(0.000880432 4.68777e-05 0)
(0.000837121 4.81742e-05 0)
(0.000792661 4.94091e-05 0)
(0.000747109 5.05799e-05 0)
(0.000700522 5.16841e-05 0)
(0.000652962 5.27196e-05 0)
(0.00060449 5.3684e-05 0)
(0.000555172 5.45755e-05 0)
(0.000505074 5.53921e-05 0)
(0.000454264 5.61322e-05 0)
(0.000402812 5.67943e-05 0)
(0.00035079 5.73769e-05 0)
(0.00029827 5.78791e-05 0)
(0.000245329 5.82997e-05 0)
(0.000192039 5.86381e-05 0)
(0.000138478 5.88936e-05 0)
(8.47218e-05 5.90658e-05 0)
(3.08472e-05 5.91544e-05 0)
(-2.30675e-05 5.91595e-05 0)
(-7.6947e-05 5.90811e-05 0)
(-0.000130713 5.89193e-05 0)
(-0.000184289 5.86741e-05 0)
(-0.000237599 5.8346e-05 0)
(-0.000290566 5.79357e-05 0)
(-0.000343115 5.74438e-05 0)
(-0.000395173 5.68714e-05 0)
(-0.000446666 5.62194e-05 0)
(-0.000497523 5.54893e-05 0)
(-0.000547673 5.46823e-05 0)
(-0.000597049 5.38001e-05 0)
(-0.000645582 5.28445e-05 0)
(-0.000693208 5.18174e-05 0)
(-0.000739865 5.07211e-05 0)
(-0.000785491 4.95577e-05 0)
(-0.000830028 4.83297e-05 0)
(-0.000873421 4.70396e-05 0)
(-0.000915615 4.56902e-05 0)
(-0.00095656 4.42841e-05 0)
(-0.000996207 4.28244e-05 0)
(-0.00103451 4.13138e-05 0)
(-0.00107143 3.97555e-05 0)
(-0.00110693 3.81525e-05 0)
(-0.00114096 3.6508e-05 0)
(-0.00117349 3.48252e-05 0)
(-0.0012045 3.31073e-05 0)
(-0.00123396 3.13576e-05 0)
(-0.00126184 2.95795e-05 0)
(-0.00128811 2.77763e-05 0)
(-0.00131277 2.59515e-05 0)
(-0.00133579 2.41084e-05 0)
(-0.00135716 2.22505e-05 0)
(-0.00137687 2.03813e-05 0)
(-0.00139492 1.85042e-05 0)
(-0.00141129 1.66226e-05 0)
(-0.00142599 1.474e-05 0)
(-0.00143902 1.28599e-05 0)
(-0.00145037 1.09824e-05 0)
(-0.00146006 9.11052e-06 0)
(-0.00146809 7.24824e-06 0)
(-0.00147447 5.39803e-06 0)
(-0.00147922 3.56192e-06 0)
(-0.00148234 1.74144e-06 0)
(-0.00148386 -6.24984e-08 0)
(-0.00148379 -1.85257e-06 0)
(-0.00148215 -3.6228e-06 0)
(-0.00147895 -5.36357e-06 0)
(-0.00147423 -7.07013e-06 0)
(-0.00146801 -8.74183e-06 0)
(-0.00146031 -1.0379e-05 0)
(-0.00145116 -1.19816e-05 0)
(-0.0014406 -1.35491e-05 0)
(-0.00142864 -1.5081e-05 0)
(-0.00141532 -1.65766e-05 0)
(-0.00140066 -1.80353e-05 0)
(-0.00138471 -1.94566e-05 0)
(-0.00136748 -2.08399e-05 0)
(-0.00134901 -2.21846e-05 0)
(-0.00132934 -2.34903e-05 0)
(-0.0013085 -2.47567e-05 0)
(-0.00128651 -2.59832e-05 0)
(-0.00126341 -2.71697e-05 0)
(-0.00123924 -2.83161e-05 0)
(-0.00121403 -2.94226e-05 0)
(-0.00118781 -3.04891e-05 0)
(-0.00116062 -3.15161e-05 0)
(-0.00113249 -3.2504e-05 0)
(-0.00110344 -3.34528e-05 0)
(-0.00107353 -3.43628e-05 0)
(-0.00104277 -3.52344e-05 0)
(-0.0010112 -3.60676e-05 0)
(-0.000978859 -3.68627e-05 0)
(-0.000945771 -3.76201e-05 0)
(-0.000911973 -3.83405e-05 0)
(-0.000877495 -3.90248e-05 0)
(-0.00084237 -3.96735e-05 0)
(-0.000806631 -4.02873e-05 0)
(-0.000770308 -4.08663e-05 0)
(-0.000733432 -4.14104e-05 0)
(-0.000696034 -4.19192e-05 0)
(-0.000658144 -4.23929e-05 0)
(-0.000619792 -4.28318e-05 0)
(-0.00058101 -4.32373e-05 0)
(-0.000541828 -4.36088e-05 0)
(-0.000502275 -4.39476e-05 0)
(-0.000462382 -4.42551e-05 0)
(-0.000422177 -4.45326e-05 0)
(-0.00038169 -4.47815e-05 0)
(-0.000340952 -4.5002e-05 0)
(-0.000299988 -4.51959e-05 0)
(-0.00025883 -4.53637e-05 0)
(-0.00021751 -4.54942e-05 0)
(-0.000176083 -4.55161e-05 0)
(-0.000134685 -4.51256e-05 0)
(-9.37347e-05 -4.3317e-05 0)
(-5.44802e-05 -3.7467e-05 0)
(-2.00843e-05 -2.27016e-05 0)
(3.44257e-06 4.54451e-06 0)
(6.0715e-06 2.85418e-05 0)
(-5.66825e-06 2.99326e-05 0)
(2.01386e-06 -1.41858e-05 0)
(3.25781e-05 -5.71004e-05 0)
(7.42822e-05 -7.97244e-05 0)
(0.000120777 -8.8724e-05 0)
(0.00016889 -9.16326e-05 0)
(0.000217428 -9.23526e-05 0)
(0.000266002 -9.23679e-05 0)
(0.000314479 -9.2141e-05 0)
(0.000362792 -9.17986e-05 0)
(0.000410894 -9.1375e-05 0)
(0.000458747 -9.08815e-05 0)
(0.000506312 -9.03229e-05 0)
(0.000553554 -8.9701e-05 0)
(0.000600437 -8.90155e-05 0)
(0.000646925 -8.82665e-05 0)
(0.000692985 -8.7453e-05 0)
(0.00073858 -8.65741e-05 0)
(0.000783676 -8.56293e-05 0)
(0.000828239 -8.46179e-05 0)
(0.000872233 -8.3539e-05 0)
(0.000915622 -8.23919e-05 0)
(0.000958372 -8.11757e-05 0)
(0.00100045 -7.98897e-05 0)
(0.00104181 -7.85331e-05 0)
(0.00108242 -7.71053e-05 0)
(0.00112225 -7.56054e-05 0)
(0.00116126 -7.40328e-05 0)
(0.0011994 -7.23869e-05 0)
(0.00123665 -7.0667e-05 0)
(0.00127297 -6.88726e-05 0)
(0.00130831 -6.7003e-05 0)
(0.00134264 -6.50577e-05 0)
(0.00137592 -6.30363e-05 0)
(0.00140811 -6.09384e-05 0)
(0.00143917 -5.87636e-05 0)
(0.00146906 -5.65117e-05 0)
(0.00149775 -5.41825e-05 0)
(0.00152519 -5.17761e-05 0)
(0.00155134 -4.92925e-05 0)
(0.00157617 -4.6732e-05 0)
(0.00159964 -4.4095e-05 0)
(0.00162171 -4.1382e-05 0)
(0.00164233 -3.85938e-05 0)
(0.00166148 -3.57313e-05 0)
(0.00167911 -3.27956e-05 0)
(0.00169519 -2.97881e-05 0)
(0.00170967 -2.67101e-05 0)
(0.00172254 -2.35634e-05 0)
(0.00173374 -2.03498e-05 0)
(0.00174325 -1.70709e-05 0)
(0.00175104 -1.37287e-05 0)
(0.00175707 -1.03245e-05 0)
(0.00176132 -6.86095e-06 0)
(0.00176376 -3.34443e-06 0)
(0.00176436 2.15061e-07 0)
(0.0017631 3.81694e-06 0)
(0.00175995 7.45621e-06 0)
(0.00175489 1.11296e-05 0)
(0.0017479 1.48336e-05 0)
(0.00173896 1.85641e-05 0)
(0.00172805 2.2316e-05 0)
(0.00171517 2.6084e-05 0)
(0.0017003 2.9862e-05 0)
(0.00168344 3.36452e-05 0)
(0.00166459 3.74281e-05 0)
(0.00164373 4.12046e-05 0)
(0.00162089 4.49683e-05 0)
(0.00159606 4.87127e-05 0)
(0.00156925 5.24312e-05 0)
(0.00154047 5.61171e-05 0)
(0.00150975 5.97635e-05 0)
(0.00147709 6.33637e-05 0)
(0.00144253 6.69108e-05 0)
(0.0014061 7.03978e-05 0)
(0.00136781 7.3818e-05 0)
(0.00132771 7.71646e-05 0)
(0.00128583 8.04309e-05 0)
(0.00124222 8.36103e-05 0)
(0.00119691 8.66963e-05 0)
(0.00114997 8.96825e-05 0)
(0.00110145 9.25628e-05 0)
(0.00105139 9.53311e-05 0)
(0.000999869 9.79815e-05 0)
(0.000946939 0.000100508 0)
(0.00089267 0.000102906 0)
(0.000837133 0.00010517 0)
(0.0007804 0.000107294 0)
(0.000722546 0.000109274 0)
(0.000663651 0.000111105 0)
(0.000603795 0.000112784 0)
(0.000543061 0.000114306 0)
(0.000481537 0.000115669 0)
(0.00041931 0.000116868 0)
(0.000356469 0.000117902 0)
(0.000293106 0.000118769 0)
(0.000229313 0.000119466 0)
(0.000165185 0.000119991 0)
(0.000100817 0.000120345 0)
(3.6302e-05 0.000120526 0)
(-2.82623e-05 0.000120533 0)
(-9.27822e-05 0.000120368 0)
(-0.000157161 0.00012003 0)
(-0.000221304 0.00011952 0)
(-0.000285118 0.000118839 0)
(-0.000348507 0.000117988 0)
(-0.000411379 0.00011697 0)
(-0.000473644 0.000115785 0)
(-0.000535211 0.000114438 0)
(-0.000595993 0.000112931 0)
(-0.000655903 0.000111266 0)
(-0.000714857 0.000109449 0)
(-0.000772775 0.000107483 0)
(-0.000829577 0.000105372 0)
(-0.000885188 0.000103121 0)
(-0.000939533 0.000100735 0)
(-0.000992543 9.8219e-05 0)
(-0.00104415 9.5579e-05 0)
(-0.00109429 9.28205e-05 0)
(-0.00114291 8.99494e-05 0)
(-0.00118994 8.6972e-05 0)
(-0.00123534 8.38943e-05 0)
(-0.00127905 8.07229e-05 0)
(-0.00132103 7.74643e-05 0)
(-0.00136124 7.41249e-05 0)
(-0.00139964 7.07115e-05 0)
(-0.00143619 6.72308e-05 0)
(-0.00147086 6.36896e-05 0)
(-0.00150362 6.00945e-05 0)
(-0.00153446 5.64525e-05 0)
(-0.00156335 5.27704e-05 0)
(-0.00159028 4.9055e-05 0)
(-0.00161523 4.53131e-05 0)
(-0.00163819 4.15514e-05 0)
(-0.00165916 3.77764e-05 0)
(-0.00167813 3.39945e-05 0)
(-0.00169511 3.02118e-05 0)
(-0.0017101 2.64341e-05 0)
(-0.0017231 2.26662e-05 0)
(-0.00173412 1.89136e-05 0)
(-0.00174318 1.51816e-05 0)
(-0.00175029 1.14754e-05 0)
(-0.00175547 7.79936e-06 0)
(-0.00175874 4.15698e-06 0)
(-0.00176012 5.51461e-07 0)
(-0.00175963 -3.0118e-06 0)
(-0.0017573 -6.53191e-06 0)
(-0.00175317 -9.9991e-06 0)
(-0.00174725 -1.34065e-05 0)
(-0.00173957 -1.67516e-05 0)
(-0.00173017 -2.00327e-05 0)
(-0.00171907 -2.32483e-05 0)
(-0.00170632 -2.63968e-05 0)
(-0.00169194 -2.94766e-05 0)
(-0.00167596 -3.24862e-05 0)
(-0.00165843 -3.54243e-05 0)
(-0.00163939 -3.82897e-05 0)
(-0.00161886 -4.10814e-05 0)
(-0.0015969 -4.37982e-05 0)
(-0.00157353 -4.64392e-05 0)
(-0.00154879 -4.90037e-05 0)
(-0.00152273 -5.14912e-05 0)
(-0.00149539 -5.39012e-05 0)
(-0.00146679 -5.62336e-05 0)
(-0.00143699 -5.84884e-05 0)
(-0.00140602 -6.06658e-05 0)
(-0.00137392 -6.27661e-05 0)
(-0.00134073 -6.47898e-05 0)
(-0.00130649 -6.67372e-05 0)
(-0.00127123 -6.86086e-05 0)
(-0.001235 -7.04043e-05 0)
(-0.00119784 -7.21251e-05 0)
(-0.00115977 -7.37714e-05 0)
(-0.00112085 -7.53438e-05 0)
(-0.0010811 -7.68434e-05 0)
(-0.00104056 -7.82714e-05 0)
(-0.000999281 -7.96286e-05 0)
(-0.000957285 -8.09156e-05 0)
(-0.000914613 -8.21326e-05 0)
(-0.0008713 -8.32799e-05 0)
(-0.000827382 -8.43576e-05 0)
(-0.000782894 -8.5366e-05 0)
(-0.000737872 -8.63057e-05 0)
(-0.00069235 -8.71779e-05 0)
(-0.000646363 -8.79835e-05 0)
(-0.000599945 -8.87238e-05 0)
(-0.000553131 -8.93999e-05 0)
(-0.000505954 -9.00133e-05 0)
(-0.00045845 -9.05651e-05 0)
(-0.000410651 -9.10559e-05 0)
(-0.000362591 -9.14862e-05 0)
(-0.000314306 -9.18536e-05 0)
(-0.000265835 -9.21343e-05 0)
(-0.000217241 -9.22066e-05 0)
(-0.000168665 -9.1587e-05 0)
(-0.000120525 -8.87117e-05 0)
(-7.40652e-05 -7.95323e-05 0)
(-3.24883e-05 -5.64199e-05 0)
(-2.10025e-06 -1.29186e-05 0)
(5.55591e-06 3.12831e-05 0)
(-5.55337e-06 3.10248e-05 0)
(3.9066e-06 -3.52497e-05 0)
(3.70774e-05 -9.49766e-05 0)
(8.1537e-05 -0.000125901 0)
(0.000130786 -0.000138089 0)
(0.000181598 -0.000141977 0)
(0.000232777 -0.000142894 0)
(0.000283948 -0.000142854 0)
(0.000334996 -0.00014248 0)
(0.000385865 -0.000141941 0)
(0.000436515 -0.000141281 0)
(0.000486904 -0.000140512 0)
(0.000536995 -0.000139639 0)
(0.000586752 -0.000138666 0)
(0.000636137 -0.000137592 0)
(0.000685114 -0.000136418 0)
(0.000733646 -0.000135144 0)
(0.000781697 -0.000133768 0)
(0.00082923 -0.00013229 0)
(0.000876209 -0.000130709 0)
(0.000922598 -0.000129025 0)
(0.000968359 -0.000127235 0)
(0.00101346 -0.000125339 0)
(0.00105785 -0.000123336 0)
(0.0011015 -0.000121225 0)
(0.00114438 -0.000119005 0)
(0.00118644 -0.000116675 0)
(0.00122765 -0.000114233 0)
(0.00126796 -0.000111679 0)
(0.00130734 -0.000109012 0)
(0.00134574 -0.000106231 0)
(0.00138313 -0.000103335 0)
(0.00141947 -0.000100323 0)
(0.00145471 -9.71949e-05 0)
(0.00148882 -9.39498e-05 0)
(0.00152175 -9.05871e-05 0)
(0.00155346 -8.71066e-05 0)
(0.00158391 -8.3508e-05 0)
(0.00161306 -7.97912e-05 0)
(0.00164087 -7.59564e-05 0)
(0.00166729 -7.20038e-05 0)
(0.00169229 -6.79341e-05 0)
(0.00171581 -6.3748e-05 0)
(0.00173783 -5.94466e-05 0)
(0.00175831 -5.50311e-05 0)
(0.00177719 -5.05032e-05 0)
(0.00179444 -4.58648e-05 0)
(0.00181003 -4.11181e-05 0)
(0.0018239 -3.62658e-05 0)
(0.00183604 -3.13106e-05 0)
(0.00184639 -2.62559e-05 0)
(0.00185493 -2.11053e-05 0)
(0.00186163 -1.58631e-05 0)
(0.00186644 -1.05336e-05 0)
(0.00186934 -5.12186e-06 0)
(0.00187031 3.65877e-07 0)
(0.00186931 5.92311e-06 0)
(0.00186631 1.15437e-05 0)
(0.0018613 1.72218e-05 0)
(0.00185423 2.2951e-05 0)
(0.0018451 2.87244e-05 0)
(0.00183389 3.45342e-05 0)
(0.00182057 4.03724e-05 0)
(0.00180515 4.62307e-05 0)
(0.00178761 5.21006e-05 0)
(0.00176794 5.79734e-05 0)
(0.00174614 6.38398e-05 0)
(0.00172222 6.96902e-05 0)
(0.00169618 7.55146e-05 0)
(0.00166802 8.13028e-05 0)
(0.00163776 8.70445e-05 0)
(0.00160541 9.27291e-05 0)
(0.00157099 9.83458e-05 0)
(0.00153453 0.000103884 0)
(0.00149605 0.000109333 0)
(0.00145559 0.000114681 0)
(0.00141317 0.000119919 0)
(0.00136884 0.000125035 0)
(0.00132264 0.000130019 0)
(0.00127462 0.000134861 0)
(0.00122483 0.000139549 0)
(0.00117333 0.000144075 0)
(0.00112018 0.000148428 0)
(0.00106543 0.000152598 0)
(0.00100917 0.000156577 0)
(0.000951453 0.000160355 0)
(0.000892362 0.000163923 0)
(0.000831973 0.000167273 0)
(0.000770369 0.000170397 0)
(0.000707633 0.000173289 0)
(0.000643853 0.00017594 0)
(0.00057912 0.000178346 0)
(0.000513526 0.000180499 0)
(0.000447167 0.000182396 0)
(0.000380141 0.000184032 0)
(0.000312547 0.000185402 0)
(0.000244486 0.000186504 0)
(0.000176059 0.000187335 0)
(0.00010737 0.000187894 0)
(3.85216e-05 0.000188179 0)
(-3.03806e-05 0.000188189 0)
(-9.9234e-05 0.000187926 0)
(-0.000167934 0.000187388 0)
(-0.000236376 0.000186578 0)
(-0.000304459 0.000185497 0)
(-0.00037208 0.000184148 0)
(-0.000439138 0.000182533 0)
(-0.000505534 0.000180657 0)
(-0.000571171 0.000178523 0)
(-0.000635954 0.000176138 0)
(-0.000699789 0.000173506 0)
(-0.000762585 0.000170633 0)
(-0.000824255 0.000167527 0)
(-0.000884714 0.000164195 0)
(-0.00094388 0.000160644 0)
(-0.00100167 0.000156883 0)
(-0.00105802 0.00015292 0)
(-0.00111285 0.000148764 0)
(-0.00116609 0.000144425 0)
(-0.00121769 0.000139912 0)
(-0.00126757 0.000135236 0)
(-0.00131569 0.000130406 0)
(-0.00136199 0.000125433 0)
(-0.00140642 0.000120327 0)
(-0.00144895 0.000115098 0)
(-0.00148952 0.000109758 0)
(-0.00152811 0.000104318 0)
(-0.00156468 9.87867e-05 0)
(-0.00159921 9.31764e-05 0)
(-0.00163168 8.74974e-05 0)
(-0.00166205 8.17604e-05 0)
(-0.00169033 7.5976e-05 0)
(-0.00171649 7.01547e-05 0)
(-0.00174053 6.43067e-05 0)
(-0.00176245 5.8442e-05 0)
(-0.00178223 5.25704e-05 0)
(-0.0017999 4.67011e-05 0)
(-0.00181544 4.08429e-05 0)
(-0.00182887 3.50042e-05 0)
(-0.00184021 2.91931e-05 0)
(-0.00184946 2.34178e-05 0)
(-0.00185664 1.76858e-05 0)
(-0.00186178 1.20043e-05 0)
(-0.00186489 6.37986e-06 0)
(-0.00186601 8.18354e-07 0)
(-0.00186515 -4.67399e-06 0)
(-0.00186237 -1.00904e-05 0)
(-0.00185767 -1.54244e-05 0)
(-0.00185109 -2.06708e-05 0)
(-0.00184266 -2.58252e-05 0)
(-0.00183241 -3.08834e-05 0)
(-0.00182038 -3.58417e-05 0)
(-0.00180661 -4.06972e-05 0)
(-0.00179113 -4.54471e-05 0)
(-0.00177398 -5.00891e-05 0)
(-0.0017552 -5.4621e-05 0)
(-0.00173483 -5.90411e-05 0)
(-0.00171291 -6.33476e-05 0)
(-0.00168948 -6.75391e-05 0)
(-0.00166458 -7.16145e-05 0)
(-0.00163825 -7.55726e-05 0)
(-0.00161054 -7.94128e-05 0)
(-0.00158148 -8.31347e-05 0)
(-0.00155112 -8.67379e-05 0)
(-0.0015195 -9.02227e-05 0)
(-0.00148666 -9.35894e-05 0)
(-0.00145264 -9.68383e-05 0)
(-0.00141749 -9.99698e-05 0)
(-0.00138124 -0.000102985 0)
(-0.00134393 -0.000105883 0)
(-0.00130561 -0.000108667 0)
(-0.00126631 -0.000111335 0)
(-0.00122608 -0.00011389 0)
(-0.00118495 -0.000116333 0)
(-0.00114297 -0.000118664 0)
(-0.00110017 -0.000120886 0)
(-0.00105659 -0.000122998 0)
(-0.00101226 -0.000125003 0)
(-0.000967239 -0.0001269 0)
(-0.000921548 -0.00012869 0)
(-0.000875227 -0.000130374 0)
(-0.000828315 -0.000131953 0)
(-0.000780847 -0.000133427 0)
(-0.000732861 -0.000134798 0)
(-0.000684391 -0.000136067 0)
(-0.000635473 -0.000137236 0)
(-0.000586143 -0.000138307 0)
(-0.000536438 -0.000139279 0)
(-0.000486391 -0.000140153 0)
(-0.000436037 -0.000140931 0)
(-0.000385413 -0.000141612 0)
(-0.000334556 -0.00014219 0)
(-0.000283506 -0.000142631 0)
(-0.000232326 -0.000142764 0)
(-0.00018115 -0.000141934 0)
(-0.000130382 -0.000138032 0)
(-8.1243e-05 -0.000125584 0)
(-3.69472e-05 -9.41054e-05 0)
(-3.93414e-06 -3.38375e-05 0)
(5.49259e-06 3.23062e-05 0)
(-5.60071e-06 3.17321e-05 0)
(4.24907e-06 -5.73225e-05 0)
(3.82242e-05 -0.000134166 0)
(8.35954e-05 -0.000173465 0)
(0.000133788 -0.000188822 0)
(0.000185538 -0.000193648 0)
(0.00023763 -0.000194725 0)
(0.000289688 -0.000194604 0)
(0.000341601 -0.000194068 0)
(0.000393323 -0.000193322 0)
(0.000444816 -0.000192417 0)
(0.000496045 -0.000191367 0)
(0.000546972 -0.000190176 0)
(0.000597562 -0.000188847 0)
(0.000647777 -0.000187381 0)
(0.000697581 -0.000185778 0)
(0.000746938 -0.000184038 0)
(0.000795811 -0.00018216 0)
(0.000844163 -0.000180143 0)
(0.000891957 -0.000177987 0)
(0.000939157 -0.000175689 0)
(0.000985726 -0.000173248 0)