/*--------------------------------*- C++ -*----------------------------------*\
| =========                 |                                                 |
| \\      /  F ield         | OpenFOAM: The Open Source CFD Toolbox           |
|  \\    /   O peration     | Version:  2412                                  |
|   \\  /    A nd           | Website:  www.openfoam.com                      |
|    \\/     M anipulation  |                                                 |
\*---------------------------------------------------------------------------*/
FoamFile
{
    version     2.0;
    format      ascii;
    arch        "LSB;label=32;scalar=64";
    class       surfaceScalarField;
    location    "1.16";
    object      alphaPhi0.water;
}
// * * * * * * * * * * * * * * * * * * * * * * * * * * * * * * * * * * * * * //

dimensions      [0 3 -1 0 0 0 0];

oriented        oriented;

internalField   nonuniform List<scalar> 
79600
(
1.27736e-199
-4.74197e-196
4.2146e-190
-6.38865e-187
4.80141e-189
-4.48843e-186
8.30515e-189
-5.50723e-186
1.07496e-188
-5.49046e-186
1.24783e-188
-5.17933e-186
1.35124e-188
-4.72675e-186
1.38952e-188
-4.2041e-186
1.36956e-188
-3.65407e-186
1.30083e-188
-3.10674e-186
1.19404e-188
-2.5833e-186
1.06069e-188
-2.09922e-186
9.12534e-189
-1.66558e-186
7.60423e-189
-1.28891e-186
6.13642e-189
-9.71681e-187
4.79299e-189
-7.12711e-187
3.62083e-189
-5.07935e-187
2.64363e-189
-3.51294e-187
1.8641e-189
-2.35513e-187
1.26825e-189
-1.52856e-187
8.31751e-190
-9.59259e-188
5.25291e-190
-5.81347e-188
3.19049e-190
-3.39726e-188
1.85972e-190
-1.90991e-188
1.03663e-190
-1.0291e-188
5.49527e-191
-5.28421e-189
2.75157e-191
-2.56771e-189
1.28971e-191
-1.16998e-189
5.61012e-192
-4.9556e-190
2.25002e-192
-1.93833e-190
8.29414e-193
-6.97885e-191
2.81257e-193
-2.31486e-191
8.82078e-194
-7.11248e-192
2.57095e-194
-2.03429e-192
6.92141e-195
-5.38155e-193
1.68099e-195
-1.28509e-193
3.58463e-196
-2.69447e-194
6.61822e-197
-4.8907e-195
1.0618e-197
-7.7152e-196
1.49588e-198
-1.0693e-196
1.84182e-199
-1.29469e-197
1.9461e-200
-1.34244e-198
1.74054e-201
-1.17447e-199
1.31228e-202
-8.62934e-201
8.33781e-204
-5.31792e-202
4.46564e-205
-2.7452e-203
2.01764e-206
-1.18549e-204
7.7003e-208
-4.2765e-206
2.48582e-209
-1.28518e-207
6.78945e-211
-3.19582e-209
1.56434e-212
-6.46503e-211
3.01026e-214
-1.01753e-212
4.70974e-216
-1.07343e-214
5.55455e-218
-1.36596e-217
6.27577e-220
6.01291e-223
6.98575e-222
1.39614e-224
7.65654e-224
2.33687e-226
8.25798e-226
3.40351e-228
8.75948e-228
4.56374e-230
9.13216e-230
5.77232e-232
9.35109e-232
6.97303e-234
9.39774e-234
8.10205e-236
9.26211e-236
9.09274e-238
8.94434e-238
9.88163e-240
8.45549e-240
1.04149e-241
7.81729e-242
1.06545e-243
7.06071e-244
1.05831e-245
6.22352e-246
1.02068e-247
5.34701e-248
9.55512e-250
4.47231e-250
8.67812e-252
3.63686e-252
7.641e-254
2.87134e-254
6.51666e-256
2.19763e-256
5.37769e-258
1.62795e-258
4.28886e-260
1.16519e-260
3.30125e-262
8.04309e-263
2.44881e-264
5.34387e-265
1.74764e-266
3.41007e-267
1.19778e-268
2.08513e-269
7.86786e-271
1.21861e-271
4.94233e-273
6.78812e-274
2.96172e-275
3.59304e-276
1.6886e-277
1.80109e-278
9.13249e-280
8.51804e-281
4.66975e-282
3.7848e-283
2.24924e-284
1.57247e-285
1.01628e-286
6.07575e-288
4.28723e-289
2.16963e-290
1.67955e-291
7.10839e-293
6.07242e-294
2.11844e-295
2.01156e-296
5.6834e-298
6.05305e-299
1.35522e-300
1.63752e-301
2.82642e-303
3.93225e-304
5.0487e-306
8.24817e-307
7.50677e-309
1.47993e-309
8.91602e-312
2.20752e-312
7.92753e-315
2.62704e-315
4.68832e-318
2.3374e-318
1.38338e-321
1.38338e-321
0
0
-1.91697e-321
0
-6.43415e-318
1.91203e-321
-1.07883e-314
3.20554e-318
-1.20372e-311
3.57339e-315
-1.00574e-308
2.97927e-312
-6.71438e-306
1.98225e-309
-3.73215e-303
1.0967e-306
-1.77716e-300
5.19137e-304
-7.40296e-298
2.14699e-301
-2.74146e-295
7.8833e-299
-9.14097e-293
2.60283e-296
-2.77296e-290
7.80795e-294
-7.71936e-288
2.14642e-291
-1.9864e-285
5.44663e-289
-4.75462e-283
1.28373e-286
-1.06434e-280
2.82546e-284
-2.23888e-278
5.83473e-282
-4.44415e-276
1.13518e-279
-8.35583e-274
2.0885e-277
-1.49313e-271
3.64557e-275
-2.54354e-269
6.05548e-273
-4.14208e-267
9.59726e-271
-6.46451e-265
1.45486e-268
-9.69175e-263
2.11412e-266
-1.39877e-260
2.95084e-264
-1.94729e-258
3.96325e-262
-2.61969e-256
5.13052e-260
-3.41151e-254
6.41095e-258
-4.30737e-252
7.74328e-256
-5.2807e-250
9.05078e-254
-6.29495e-248
1.02481e-251
-7.30606e-246
1.12507e-249
-8.26607e-244
1.19847e-247
-9.12735e-242
1.23933e-245
-9.8468e-240
1.24442e-243
-1.03896e-237
1.21335e-241
-1.0732e-235
1.14844e-239
-1.08626e-233
1.05427e-237
-1.07828e-231
9.37259e-236
-1.05057e-229
8.0488e-234
-1.00539e-227
6.64863e-232
-9.45706e-226
5.24583e-230
-8.74909e-224
3.90453e-228
-7.96546e-222
2.67572e-226
-7.14078e-220
1.59614e-224
-6.30679e-218
6.87597e-223
-5.34341e-216
-1.47474e-217
-3.40594e-214
-1.21754e-214
-1.76266e-212
-1.15262e-212
-7.60922e-211
-7.29593e-211
-2.76795e-209
-3.58746e-209
-8.51004e-208
-1.43329e-207
-2.21122e-206
-4.73294e-206
-4.85056e-205
-1.30073e-204
-8.97403e-204
-2.98439e-203
-1.39973e-202
-5.72702e-202
-1.84055e-201
-9.2075e-201
-2.04121e-200
-1.24211e-199
-1.91754e-199
-1.40796e-198
-1.54768e-198
-1.34764e-197
-1.09283e-197
-1.106e-196
-6.77819e-197
-7.93812e-196
-3.65365e-196
-5.00724e-195
-1.70613e-195
-2.74532e-194
-7.00145e-195
-1.30376e-193
-2.59395e-194
-5.44127e-193
-8.88227e-194
-2.05146e-192
-2.82722e-193
-7.15839e-192
-8.32388e-193
-2.32567e-191
-2.25482e-192
-6.99988e-191
-5.61512e-192
-1.94128e-190
-1.28949e-191
-4.95679e-190
-2.74859e-191
-1.16897e-189
-5.48476e-191
-2.563e-189
-1.03383e-190
-5.2699e-189
-1.85347e-190
-1.02544e-188
-3.17839e-190
-1.90173e-188
-5.23187e-190
-3.38097e-188
-8.28408e-190
-5.78372e-188
-1.26329e-189
-9.5421e-188
-1.85717e-189
-1.52045e-187
-2.63431e-189
-2.34269e-187
-3.60879e-189
-3.49435e-187
-4.77794e-189
-5.05247e-187
-6.11874e-189
-7.08892e-187
-7.5857e-189
-9.66412e-187
-9.10917e-189
-1.28199e-186
-1.05988e-188
-1.6569e-186
-1.19483e-188
-2.08908e-186
-1.30429e-188
-2.57243e-186
-1.37715e-188
-3.09653e-186
-1.40362e-188
-3.64726e-186
-1.37651e-188
-4.20692e-186
-1.29179e-188
-4.756e-186
-1.14735e-188
-5.27326e-186
-9.3081e-189
-5.72674e-186
-5.6128e-189
-5.97841e-186
-4.55575e-190
-5.0326e-186
-8.87769e-200
-6.6248e-187
-3.34861e-196
7.90365e-196
-1.7315e-192
1.77078e-186
-1.56638e-183
1.82906e-185
-1.02301e-182
2.99589e-185
-1.21195e-182
3.76524e-185
-1.18856e-182
4.31679e-185
-1.1166e-182
4.66226e-185
-1.02172e-182
4.80402e-185
-9.13735e-183
4.75649e-185
-7.99661e-183
4.54465e-185
-6.85054e-183
4.20071e-185
-5.74306e-183
3.76132e-185
-4.70832e-183
3.26472e-185
-3.77158e-183
2.74723e-185
-2.94889e-183
2.24079e-185
-2.24795e-183
1.77076e-185
-1.66872e-183
1.35478e-185
-1.20473e-183
1.00283e-185
-8.44864e-184
7.17691e-186
-5.7493e-184
4.96157e-186
-3.79172e-184
3.31042e-186
-2.42069e-184
2.12972e-186
-1.49422e-184
1.31948e-186
-8.9051e-185
7.85655e-187
-5.11254e-185
4.48001e-187
-2.81703e-185
2.43306e-187
-1.48122e-185
1.25e-187
-7.38081e-186
6.02094e-188
-3.45371e-186
2.696e-188
-1.50464e-186
1.11506e-188
-6.06369e-187
4.24722e-189
-2.25356e-187
1.49139e-189
-7.73147e-188
4.8555e-190
-2.46288e-188
1.47326e-190
-7.32294e-189
4.14059e-191
-2.01889e-189
1.0523e-191
-5.03227e-190
2.35318e-192
-1.1026e-190
4.56694e-193
-2.09436e-191
7.72643e-194
-3.46633e-192
1.15255e-194
-5.05912e-193
1.50836e-195
-6.46758e-194
1.69909e-196
-7.08423e-195
1.62481e-197
-6.54666e-196
1.31466e-198
-5.08347e-197
9.00391e-200
-3.3129e-198
5.22527e-201
-1.80899e-199
2.57439e-202
-8.26286e-201
1.08033e-203
-3.15286e-202
3.87902e-205
-1.00288e-203
1.19803e-206
-2.64509e-205
3.20007e-208
-5.70364e-207
7.4289e-210
-9.68246e-209
1.50427e-211
-1.14407e-210
2.65963e-213
-3.54727e-213
4.51257e-215
6.16771e-218
7.51844e-217
2.313e-219
1.22966e-218
5.91455e-221
1.97345e-220
1.29685e-222
3.10646e-222
2.59873e-224
4.79389e-224
4.88819e-226
7.24857e-226
8.74873e-228
1.07323e-227
1.50135e-229
1.55493e-229
2.48174e-231
2.20287e-231
3.96279e-233
3.04911e-233
6.12313e-235
4.11991e-235
9.16456e-237
5.42905e-237
1.32933e-238
6.97018e-239
1.86889e-240
8.70915e-241
2.54619e-242
1.05783e-242
3.36021e-244
1.24744e-244
4.29278e-246
1.42629e-246
5.30462e-248
1.57891e-248
6.33417e-250
1.68963e-250
7.30052e-252
1.74497e-252
8.11119e-254
1.73608e-254
8.67471e-256
1.66068e-256
8.91589e-258
1.52414e-258
8.79099e-260
1.33903e-260
8.29886e-262
1.12329e-262
7.48447e-264
8.97294e-265
6.43313e-266
6.80469e-267
5.25592e-268
4.88266e-269
4.06968e-270
3.3026e-271
2.97668e-272
2.09696e-273
2.04914e-274
1.24394e-275
1.32214e-276
6.8571e-278
7.9583e-279
3.49065e-280
4.44494e-281
1.62908e-282
2.28943e-283
6.91047e-285
1.07959e-285
2.63697e-287
4.62101e-288
8.93724e-290
1.77694e-290
2.64741e-292
6.06098e-293
6.71221e-295
1.80458e-295
1.41566e-297
4.59287e-298
2.38357e-300
9.71165e-301
3.00267e-303
1.63733e-303
2.51486e-306
2.06274e-306
1.05012e-309
1.72558e-309
2.57637e-316
7.18779e-313
-1.35703e-309
9.33146e-313
-3.23917e-306
2.23256e-309
-3.85284e-303
2.65843e-306
-3.04654e-300
2.10178e-303
-1.80233e-297
1.24167e-300
-8.51227e-295
5.84886e-298
-3.34443e-292
2.28903e-295
-1.12472e-289
7.65819e-293
-3.30606e-287
2.2366e-290
-8.63182e-285
5.79441e-288
-2.02746e-282
1.3487e-285
-4.32878e-280
2.84968e-283
-8.47375e-278
5.5129e-281
-1.53194e-275
9.8358e-279
-2.57378e-273
1.62845e-276
-4.04027e-271
2.51539e-274
-5.95409e-269
3.64198e-272
-8.27193e-267
4.96328e-270
-1.08744e-264
6.38987e-268
-1.35727e-262
7.79715e-266
-1.61326e-260
9.04442e-264
-1.83111e-258
9.99952e-262
-1.98968e-256
1.05627e-259
-2.07446e-254
1.06835e-257
-2.07968e-252
1.03668e-255
-2.00864e-250
9.6683e-254
-1.8724e-248
8.68007e-252
-1.68738e-246
7.51265e-250
-1.47235e-244
6.27657e-248
-1.24571e-242
5.06764e-246
-1.02332e-240
3.95785e-244
-8.17214e-239
2.99247e-242
-6.35169e-237
2.19176e-240
-4.80998e-235
1.55573e-238
-3.55248e-233
1.07034e-236
-2.56131e-231
7.13676e-235
-1.80431e-229
4.60972e-233
-1.24287e-227
2.88138e-231
-8.37777e-226
1.73986e-229
-5.52985e-224
1.012e-227
-3.57641e-222
5.64413e-226
-2.26762e-220
2.99526e-224
-1.41026e-218
1.49214e-222
-8.6063e-217
6.79384e-221
-5.15572e-215
2.6531e-219
-3.03289e-213
7.07618e-218
-1.71241e-211
-4.00295e-213
-8.43231e-210
-1.30781e-210
-3.61745e-208
-1.10466e-208
-1.34711e-206
-6.48112e-207
-4.33336e-205
-2.98896e-205
-1.19769e-203
-1.12541e-203
-2.8297e-202
-3.50917e-202
-5.69082e-201
-9.11222e-201
-9.71368e-200
-1.97531e-199
-1.40509e-198
-3.5811e-198
-1.72111e-197
-5.44092e-197
-1.78466e-196
-6.94169e-196
-1.57218e-195
-7.44603e-195
-1.19359e-194
-6.74381e-194
-7.95872e-194
-5.24029e-193
-4.68078e-193
-3.57096e-192
-2.40013e-192
-2.14672e-191
-1.06875e-191
-1.12459e-190
-4.19132e-191
-5.11046e-190
-1.48747e-190
-2.04333e-189
-4.89284e-190
-7.39221e-189
-1.50026e-189
-2.48136e-188
-4.26552e-189
-7.77595e-188
-1.1182e-188
-2.26281e-187
-2.7001e-188
-6.07935e-187
-6.02364e-188
-1.50654e-186
-1.24947e-187
-3.45427e-186
-2.43027e-187
-7.3754e-186
-4.47206e-187
-1.47902e-185
-7.83853e-187
-2.81101e-185
-1.31599e-186
-5.09881e-185
-2.12369e-186
-8.87774e-185
-3.3009e-186
-1.48925e-184
-4.94761e-186
-2.41241e-184
-7.15788e-186
-3.77871e-184
-1.00039e-185
-5.7301e-184
-1.35188e-185
-8.42165e-184
-1.76757e-185
-1.2011e-183
-2.23775e-185
-1.66409e-183
-2.74524e-185
-2.24239e-183
-3.26519e-185
-2.94299e-183
-3.76633e-185
-3.76656e-183
-4.21304e-185
-4.70654e-183
-4.56777e-185
-5.74845e-183
-4.79487e-185
-6.86924e-183
-4.86383e-185
-8.03884e-183
-4.75256e-185
-9.22101e-183
-4.44976e-185
-1.03754e-182
-3.95e-185
-1.14608e-182
-3.21258e-185
-1.24145e-182
-1.95939e-185
-1.29551e-182
-1.69025e-186
-1.0984e-182
-5.27042e-196
-1.52664e-183
-1.23982e-192
1.1452e-192
-2.31239e-189
1.76234e-183
-1.39214e-180
1.75759e-182
-8.74913e-180
2.82573e-182
-1.01952e-179
3.50622e-182
-9.90099e-180
3.99751e-182
-9.27334e-180
4.31542e-182
-8.49748e-180
4.45813e-182
-7.62961e-180
4.43389e-182
-6.71401e-180
4.26112e-182
-5.78976e-180
3.96582e-182
-4.89021e-180
3.57898e-182
-4.04268e-180
3.13386e-182
-3.26825e-180
2.6628e-182
-2.58115e-180
2.19512e-182
-1.98925e-180
1.75486e-182
-1.49427e-180
1.35957e-182
-1.09267e-180
1.02011e-182
-7.76915e-181
7.40819e-183
-5.36584e-181
5.20265e-183
-3.59551e-181
3.53037e-183
-2.33482e-181
2.3127e-183
-1.46767e-181
1.46089e-183
-8.91862e-182
8.88061e-184
-5.22767e-182
5.17703e-184
-2.94481e-182
2.87832e-184
-1.58516e-182
1.51599e-184
-8.09785e-183
7.4968e-185
-3.89054e-183
3.45174e-185
-1.74315e-183
1.47048e-185
-7.2375e-184
5.77966e-186
-2.77646e-184
2.09844e-186
-9.85181e-185
7.08058e-187
-3.2533e-185
2.23256e-187
-1.00533e-185
6.53648e-188
-2.88742e-186
1.73326e-188
-7.50907e-187
4.04849e-189
-1.71848e-187
8.21823e-190
-3.41426e-188
1.45792e-190
-5.92578e-189
2.28875e-191
-9.10325e-190
3.16035e-192
-1.22784e-190
3.75769e-193
-1.41893e-191
3.79216e-194
-1.3826e-192
3.23911e-195
-1.13211e-193
2.34295e-196
-7.78056e-195
1.43597e-197
-4.47688e-196
7.46804e-199
-2.15141e-197
3.30617e-200
-8.61913e-199
1.25196e-201
-2.87229e-200
4.07953e-203
-7.92106e-202
1.15155e-204
-1.78385e-203
2.83548e-206
-3.16636e-205
6.13209e-208
-3.9536e-207
1.1723e-209
-1.55876e-209
2.14332e-211
4.19385e-214
3.84216e-213
1.76213e-215
6.75163e-215
4.8981e-217
1.16269e-216
1.15894e-218
1.96153e-218
2.49733e-220
3.24055e-220
5.03998e-222
5.23995e-222
9.66177e-224
8.28862e-224
1.77347e-225
1.28179e-225
3.13195e-227
1.93656e-227
5.33729e-229
2.85627e-229
8.79318e-231
4.10929e-231
1.40206e-232
5.76163e-233
2.16483e-234
7.86526e-235
3.2374e-236
1.04428e-236
4.6884e-238
1.347e-238
6.57273e-240
1.68593e-240
8.9146e-242
2.04484e-242
1.16885e-243
2.40004e-244
1.48014e-245
2.72178e-246
1.80825e-247
2.97751e-248
2.12851e-249
3.1365e-250
2.41066e-251
3.17537e-252
2.62269e-253
3.08314e-254
2.73618e-255
2.86452e-256
2.732e-257
2.54033e-258
2.60504e-259
2.14447e-260
2.36654e-261
1.71806e-262
2.04283e-263
1.30193e-264
1.67068e-265
9.29738e-267
1.29026e-267
6.23072e-269
9.37556e-270
3.90005e-271
6.38353e-272
2.26785e-273
4.05357e-274
1.2175e-275
2.38782e-276
5.99078e-278
1.29678e-278
2.6787e-280
6.44609e-281
1.0772e-282
2.90783e-283
3.84651e-285
1.17814e-285
1.20024e-287
4.23315e-288
3.20483e-290
1.3274e-290
7.1172e-293
3.55731e-293
1.26159e-295
7.91886e-296
1.67291e-298
1.40528e-298
1.47478e-301
1.86323e-301
6.48328e-305
1.64032e-304
3.97249e-311
7.19211e-308
-8.30381e-305
9.24893e-308
-1.88677e-301
2.10683e-304
-2.135e-298
2.3871e-301
-1.60546e-295
1.79513e-298
-9.02974e-293
1.00845e-295
-4.05341e-290
4.51585e-293
-1.51327e-287
1.67968e-290
-4.83442e-285
5.33943e-288
-1.3496e-282
1.48128e-285
-3.34562e-280
3.64439e-283
-7.45916e-278
8.05346e-281
-1.51128e-275
1.61509e-278
-2.80658e-273
2.96477e-276
-4.81216e-271
5.01775e-274
-7.6654e-269
7.87832e-272
-1.14053e-266
1.1537e-269
-1.5926e-264
1.58313e-267
-2.0958e-262
2.04408e-265
-2.60886e-260
2.49247e-263
-3.08221e-258
2.87957e-261
-3.4665e-256
3.16133e-259
-3.72155e-254
3.30675e-257
-3.82333e-252
3.30338e-255
-3.76734e-250
3.15848e-253
-3.56786e-248
2.89606e-251
-3.25385e-246
2.55102e-249
-2.86268e-244
2.16216e-247
-2.4336e-242
1.76582e-245
-2.00208e-240
1.39136e-243
-1.59619e-238
1.05887e-241
-1.23488e-236
7.79055e-240
-9.28169e-235
5.54557e-238
-6.78547e-233
3.82148e-236
-4.82986e-231
2.5503e-234
-3.3505e-229
1.64846e-232
-2.26721e-227
1.03185e-230
-1.49773e-225
6.25123e-229
-9.66641e-224
3.66141e-227
-6.09928e-222
2.06946e-225
-3.7648e-220
1.12538e-223
-2.27454e-218
5.8599e-222
-1.34568e-216
2.89842e-220
-7.79943e-215
1.34273e-218
-4.43003e-213
5.66559e-217
-2.46656e-211
2.03547e-215
-1.34651e-209
4.84552e-214
-7.02973e-208
-1.78432e-209
-3.24046e-206
-4.55944e-207
-1.31028e-204
-3.64266e-205
-4.61548e-203
-2.04303e-203
-1.40654e-201
-9.01668e-202
-3.68399e-200
-3.24474e-200
-8.24511e-199
-9.64998e-199
-1.56979e-197
-2.38471e-197
-2.53547e-196
-4.90955e-196
-3.47061e-195
-8.44016e-195
-4.02503e-194
-1.21518e-193
-3.95324e-193
-1.46941e-192
-3.29806e-192
-1.49416e-191
-2.37248e-191
-1.2821e-190
-1.50295e-190
-9.43995e-190
-8.42911e-190
-6.11067e-189
-4.13186e-189
-3.50276e-188
-1.76134e-188
-1.75418e-187
-6.62004e-188
-7.63151e-187
-2.25523e-187
-2.9245e-186
-7.13866e-187
-1.01556e-185
-2.112e-186
-3.28006e-185
-5.80747e-186
-9.91574e-185
-1.47531e-185
-2.78989e-184
-3.45856e-185
-7.26145e-184
-7.5035e-185
-1.74661e-183
-1.51606e-184
-3.894e-183
-2.87653e-184
-8.09814e-183
-5.17089e-184
-1.58414e-182
-8.86604e-184
-2.94127e-182
-1.45804e-183
-5.21895e-182
-2.30777e-183
-8.90092e-182
-3.52259e-183
-1.46448e-181
-5.19133e-183
-2.32955e-181
-7.39302e-183
-3.58745e-181
-1.01825e-182
-5.3544e-181
-1.3575e-182
-7.75424e-181
-1.75287e-182
-1.09088e-180
-2.19373e-182
-1.49238e-180
-2.66289e-182
-1.98771e-180
-3.13669e-182
-2.58085e-180
-3.58629e-182
-3.27074e-180
-3.97976e-182
-4.05042e-180
-4.28426e-182
-4.90692e-180
-4.4692e-182
-5.82109e-180
-4.50905e-182
-6.76836e-180
-4.38597e-182
-7.72014e-180
-4.09154e-182
-8.64512e-180
-3.62238e-182
-9.51128e-180
-2.94322e-182
-1.0271e-179
-1.80436e-182
-1.07006e-179
-1.63466e-183
-9.10828e-180
-8.20638e-193
-1.32578e-180
-1.73575e-189
9.10344e-190
-1.80305e-186
9.32234e-181
-7.05611e-178
9.09804e-180
-4.30731e-177
1.45668e-179
-4.98426e-177
1.80078e-179
-4.81831e-177
2.05103e-179
-4.50775e-177
2.21736e-179
-4.1374e-177
2.29847e-179
-3.72846e-177
2.29702e-179
-3.29779e-177
2.22074e-179
-2.86159e-177
2.08132e-179
-2.4345e-177
1.89326e-179
-2.02906e-177
1.67254e-179
-1.65531e-177
1.4351e-179
-1.32043e-177
1.19578e-179
-1.0288e-177
9.67158e-180
-7.82031e-178
7.58824e-180
-5.79239e-178
5.77177e-180
-4.17588e-178
4.25354e-180
-2.92732e-178
3.03467e-180
-1.99303e-178
2.09433e-180
-1.31645e-178
1.39699e-180
-8.42708e-179
8.99667e-181
-5.22124e-179
5.58301e-181
-3.12442e-179
3.32696e-181
-1.79922e-179
1.8934e-181
-9.91442e-180
1.02224e-181
-5.19251e-180
5.18964e-182
-2.56164e-180
2.45707e-182
-1.18066e-180
1.07827e-182
-5.05243e-181
4.37401e-183
-2.00162e-181
1.64225e-183
-7.3492e-182
5.74342e-184
-2.51671e-182
1.88181e-184
-8.0846e-183
5.73864e-185
-2.41934e-183
1.58734e-185
-6.56595e-184
3.87178e-186
-1.57024e-184
8.21895e-187
-3.26549e-185
1.52859e-187
-5.94829e-186
2.5251e-188
-9.62678e-187
3.6775e-189
-1.37113e-187
4.61156e-190
-1.67312e-188
4.90493e-191
-1.72058e-189
4.41577e-192
-1.48749e-190
3.36627e-193
-1.07959e-191
2.1724e-194
-6.55482e-193
1.18753e-195
-3.31804e-194
5.51303e-197
-1.39694e-195
2.18344e-198
-4.87919e-197
7.42092e-200
-1.40652e-198
2.1791e-201
-3.30328e-200
5.5682e-203
-6.10768e-202
1.2472e-204
-7.97619e-204
2.46631e-206
-3.58804e-206
4.644e-208
1.19747e-210
8.56517e-210
5.31712e-212
1.54709e-211
1.53026e-213
2.73614e-213
3.73119e-215
4.73673e-215
8.26693e-217
8.02383e-217
1.71297e-218
1.32941e-218
3.36786e-220
2.15323e-220
6.33438e-222
3.40743e-222
1.14535e-223
5.26487e-224
1.99703e-225
7.9371e-226
3.36416e-227
1.16656e-227
5.48164e-229
1.67012e-229
8.6447e-231
2.32688e-231
1.31973e-232
3.15172e-233
1.95018e-234
4.1456e-235
2.78846e-236
5.28902e-237
3.85577e-238
6.53658e-239
5.15216e-240
7.81468e-241
6.64657e-242
9.02407e-243
8.26924e-244
1.00489e-244
9.90951e-246
1.0772e-246
1.14221e-247
1.10945e-248
1.26433e-249
1.09558e-250
1.34166e-251
1.03498e-252
1.3622e-253
9.33012e-255
1.32047e-255
8.00447e-257
1.2192e-257
6.51574e-259
1.0694e-259
5.01575e-261
8.88484e-262
3.63779e-263
6.96934e-264
2.47547e-265
5.14256e-266
1.57307e-267
3.55488e-268
9.28478e-270
2.2914e-270
5.05859e-272
1.36989e-272
2.52565e-274
7.54919e-275
1.1457e-276
3.80719e-277
4.67339e-279
1.74214e-279
1.6925e-281
7.15896e-282
5.35541e-284
2.6085e-284
1.44988e-286
8.29351e-287
3.26425e-289
2.25326e-289
5.86523e-292
5.08449e-292
7.88293e-295
9.14513e-295
7.04292e-298
1.22883e-297
3.13787e-301
1.09626e-300
2.33925e-307
4.87088e-304
-4.04857e-301
6.3095e-304
-9.08246e-298
1.4192e-300
-1.01443e-294
1.58736e-297
-7.52811e-292
1.17819e-294
-4.17788e-289
6.53161e-292
-1.85024e-286
2.88591e-289
-6.81371e-284
1.05897e-286
-2.14687e-281
3.32045e-284
-5.91006e-279
9.08485e-282
-1.4445e-276
2.20402e-279
-3.17478e-274
4.80186e-277
-6.33981e-272
9.49264e-275
-1.16021e-269
1.71739e-272
-1.95997e-267
2.86414e-270
-3.07546e-265
4.43042e-268
-4.50671e-263
6.39064e-266
-6.19651e-261
8.63617e-264
-8.02757e-259
1.0979e-261
-9.83517e-257
1.31783e-259
-1.14337e-254
1.49839e-257
-1.26503e-252
1.61854e-255
-1.3357e-250
1.66535e-253
-1.34923e-248
1.63605e-251
-1.30681e-246
1.53792e-249
-1.21617e-244
1.38597e-247
-1.08958e-242
1.19955e-245
-9.41382e-241
9.98651e-244
-7.85644e-239
8.00846e-242
-6.3429e-237
6.19388e-240
-4.96086e-235
4.62514e-238
-3.76348e-233
3.33762e-236
-2.77269e-231
2.3293e-234
-1.98597e-229
1.57299e-232
-1.38434e-227
1.02825e-230
-9.39975e-226
6.507e-229
-6.22254e-224
3.98548e-227
-4.01918e-222
2.36119e-225
-2.53476e-220
1.35156e-223
-1.56186e-218
7.46038e-222
-9.40816e-217
3.95892e-220
-5.54295e-215
2.00978e-218
-3.1955e-213
9.68116e-217
-1.80324e-211
4.36147e-215
-9.96332e-210
1.78567e-213
-5.39117e-208
6.19569e-212
-2.85725e-206
1.3955e-210
-1.44178e-204
-4.15577e-206
-6.41485e-203
-9.28503e-204
-2.49835e-201
-7.08888e-202
-8.45493e-200
-3.81463e-200
-2.4686e-198
-1.61325e-198
-6.17724e-197
-5.54936e-197
-1.31731e-195
-1.57326e-195
-2.38414e-194
-3.69626e-194
-3.65429e-193
-7.21783e-193
-4.74301e-192
-1.17494e-191
-5.21622e-191
-1.60071e-190
-4.85884e-190
-1.83228e-189
-3.84201e-189
-1.76456e-188
-2.61972e-188
-1.43337e-187
-1.57696e-187
-9.99172e-187
-8.43542e-187
-6.13858e-186
-3.95377e-186
-3.35246e-185
-1.61386e-185
-1.60384e-184
-5.81464e-185
-6.67669e-184
-1.90171e-184
-2.45166e-183
-5.79295e-184
-8.17076e-183
-1.65356e-183
-2.53862e-182
-4.39692e-183
-7.40047e-182
-1.08227e-182
-2.01229e-181
-2.46294e-182
-5.07165e-181
-5.1964e-182
-1.1836e-180
-1.02272e-181
-2.56521e-180
-1.89306e-181
-5.19538e-180
-3.3246e-181
-9.91353e-180
-5.57669e-181
-1.79811e-179
-8.9839e-181
-3.12117e-179
-1.39476e-180
-5.21429e-179
-2.09082e-180
-8.41449e-179
-3.02964e-180
-1.31438e-178
-4.24697e-180
-1.98995e-178
-5.76408e-180
-2.92314e-178
-7.58049e-180
-4.17086e-178
-9.66557e-180
-5.7873e-178
-1.19565e-179
-7.81671e-178
-1.4359e-179
-1.02889e-177
-1.67488e-179
-1.32148e-177
-1.89792e-179
-1.65813e-177
-2.08919e-179
-2.03485e-177
-2.23281e-179
-2.44498e-177
-2.31432e-179
-2.87923e-177
-2.32193e-179
-3.32604e-177
-2.24772e-179
-3.77218e-177
-2.08844e-179
-4.20351e-177
-1.8431e-179
-4.60567e-177
-1.49477e-179
-4.95728e-177
-9.1946e-180
-5.15424e-177
-8.7061e-181
-4.40039e-177
-7.02161e-190
-6.68726e-178
-1.41579e-186
5.0523e-187
-9.74015e-184
3.33603e-178
-2.42331e-175
3.17525e-177
-1.43758e-174
5.08282e-177
-1.65908e-174
6.2846e-177
-1.60186e-174
7.16653e-177
-1.49936e-174
7.76788e-177
-1.37935e-174
8.08387e-177
-1.24782e-174
8.12004e-177
-1.10934e-174
7.89855e-177
-9.68586e-175
7.45531e-177
-8.29978e-175
6.8363e-177
-6.97422e-175
6.0936e-177
-5.74166e-175
5.28045e-177
-4.62635e-175
4.44776e-177
-3.64448e-175
3.64002e-177
-2.80368e-175
2.8926e-177
-2.10372e-175
2.23066e-177
-1.53795e-175
1.66843e-177
-1.0944e-175
1.20938e-177
-7.57155e-176
8.48921e-178
-5.08753e-176
5.76617e-178
-3.31661e-176
3.78599e-178
-2.09518e-176
2.39842e-178
-1.27996e-176
1.46098e-178
-7.53476e-177
8.51094e-179
-4.25032e-177
4.71059e-179
-2.28233e-177
2.45544e-179
-1.1564e-177
1.19581e-179
-5.48495e-178
5.40829e-180
-2.42055e-178
2.26545e-180
-9.90984e-179
8.8006e-181
-3.76741e-179
3.19146e-181
-1.33857e-179
1.08691e-181
-4.47136e-180
3.45319e-182
-1.3945e-180
9.96682e-183
-3.95103e-181
2.54012e-183
-9.88123e-182
5.64329e-184
-2.15318e-182
1.10138e-184
-4.12117e-183
1.91641e-185
-7.03473e-184
2.94668e-186
-1.05923e-184
3.90086e-187
-1.36647e-185
4.3777e-188
-1.48527e-186
4.15978e-189
-1.3583e-187
3.34761e-190
-1.04337e-188
2.27854e-191
-6.70011e-190
1.31123e-192
-3.58098e-191
6.39213e-194
-1.58813e-192
2.65061e-195
-5.82761e-194
9.40246e-197
-1.76003e-195
2.87221e-198
-4.31937e-197
7.60981e-200
-8.33111e-199
1.76156e-201
-1.13738e-200
3.58877e-203
-5.67288e-203
6.93156e-205
2.20053e-207
1.31007e-206
1.02429e-208
2.42274e-208
3.0361e-210
4.38327e-210
7.5937e-212
7.75657e-212
1.72252e-213
1.3421e-213
3.64949e-215
2.26976e-215
7.32942e-217
3.75017e-217
1.407e-218
6.05016e-219
2.59473e-220
9.52492e-221
4.61127e-222
1.46231e-222
7.91294e-224
2.18761e-224
1.31269e-225
3.18634e-226
2.10654e-227
4.51451e-228
3.27092e-229
6.21572e-230
4.91396e-231
8.30743e-232
7.1403e-233
1.07653e-233
1.00297e-234
1.3509e-235
1.36093e-236
1.6393e-237
1.78222e-238
1.92082e-239
2.25011e-240
2.16974e-241
2.73547e-242
2.35867e-243
3.19771e-244
2.46286e-245
3.58879e-246
2.46506e-247
3.86015e-248
2.35969e-249
3.97166e-250
2.15502e-251
3.90055e-252
1.87258e-253
3.64786e-254
1.54355e-255
3.2402e-256
1.20297e-257
2.72559e-258
8.83141e-260
2.16419e-260
6.08196e-262
1.61619e-262
3.91066e-264
1.13049e-264
2.33514e-266
7.37222e-267
1.28688e-268
4.45826e-269
6.49798e-271
2.48478e-271
2.98063e-273
1.26717e-273
1.22924e-275
5.8626e-276
4.50026e-278
2.43541e-278
1.43928e-280
8.96941e-281
3.93797e-283
2.88207e-283
8.95889e-286
7.91252e-286
1.62642e-288
1.80398e-288
2.20831e-291
3.27795e-291
1.99298e-294
4.44919e-294
8.96864e-298
4.00898e-297
7.0007e-304
1.79896e-300
-1.17154e-297
2.35929e-300
-2.60233e-294
5.25512e-297
-2.87754e-291
5.81971e-294
-2.11382e-288
4.27634e-291
-1.16108e-285
2.34667e-288
-5.08867e-283
1.0262e-285
-1.85426e-280
3.72644e-283
-5.78024e-278
1.15615e-280
-1.57406e-275
3.12951e-278
-3.80517e-273
7.51023e-276
-8.27047e-271
1.61832e-273
-1.63299e-268
3.16366e-271
-2.95438e-266
5.65914e-269
-4.93315e-264
9.33001e-267
-7.64988e-262
1.42648e-264
-1.10763e-259
2.03338e-262
-1.50448e-257
2.715e-260
-1.92505e-255
3.40958e-258
-2.32899e-253
4.042e-256
-2.67304e-251
4.53802e-254
-2.91914e-249
4.83923e-252
-3.04153e-247
4.91435e-250
-3.03102e-245
4.76389e-248
-2.89549e-243
4.41763e-246
-2.65698e-241
3.92632e-244
-2.34645e-239
3.35046e-242
-1.99777e-237
2.7493e-240
-1.64246e-235
2.17242e-238
-1.30586e-233
1.65501e-236
-1.00543e-231
1.2169e-234
-7.50595e-230
8.64367e-233
-5.43961e-228
5.93537e-231
-3.83093e-226
3.94216e-229
-2.6245e-224
2.53335e-227
-1.75061e-222
1.57529e-225
-1.13786e-220
9.47595e-224
-7.21235e-219
5.51058e-222
-4.46114e-217
3.09432e-220
-2.69439e-215
1.67445e-218
-1.58983e-213
8.70471e-217
-9.16886e-212
4.32547e-215
-5.17037e-210
2.03747e-213
-2.85168e-208
8.96436e-212
-1.53869e-206
3.57735e-210
-8.12337e-205
1.20496e-208
-4.19646e-203
2.5884e-207
-2.05486e-201
-6.64662e-203
-8.84288e-200
-1.33717e-200
-3.31974e-198
-9.76009e-199
-1.07922e-196
-5.03142e-197
-3.01663e-195
-2.03465e-195
-7.2033e-194
-6.67434e-194
-1.46152e-192
-1.79931e-192
-2.51035e-191
-4.00905e-191
-3.64509e-190
-7.40732e-190
-4.47848e-189
-1.13904e-188
-4.6639e-188
-1.4651e-187
-4.11568e-187
-1.58452e-186
-3.08156e-186
-1.44311e-185
-1.98972e-185
-1.10839e-184
-1.13696e-184
-7.30672e-184
-5.79522e-184
-4.25561e-183
-2.59517e-183
-2.21174e-182
-1.01376e-182
-1.00974e-181
-3.50021e-182
-4.0193e-181
-1.09877e-181
-1.41365e-180
-3.22005e-181
-4.52049e-180
-8.86417e-181
-1.35066e-179
-2.27809e-180
-3.79493e-179
-5.43021e-180
-9.96603e-179
-1.19907e-179
-2.43059e-178
-2.45946e-179
-5.50046e-178
-4.71438e-179
-1.15841e-177
-8.51239e-179
-2.28439e-177
-1.46047e-178
-4.25148e-177
-2.39661e-178
-7.53289e-177
-3.78207e-178
-1.27913e-176
-5.75922e-178
-2.09324e-176
-8.47824e-178
-3.31299e-176
-1.20782e-177
-5.08156e-176
-1.66644e-177
-7.56278e-176
-2.22846e-177
-1.09326e-175
-2.89062e-177
-1.53668e-175
-3.63896e-177
-2.10267e-175
-4.44868e-177
-2.80345e-175
-5.28489e-177
-3.64613e-175
-6.10347e-177
-4.63163e-175
-6.85392e-177
-5.75308e-175
-7.48315e-177
-6.99545e-175
-7.93913e-177
-8.33583e-175
-8.17555e-177
-9.74341e-175
-8.15581e-177
-1.11813e-174
-7.85648e-177
-1.26079e-174
-7.26965e-177
-1.39798e-174
-6.39447e-177
-1.52531e-174
-5.17523e-177
-1.63623e-174
-3.19219e-177
-1.69757e-174
-3.1528e-178
-1.45296e-174
-4.09939e-187
-2.30147e-175
-7.92821e-184
2.12898e-184
-3.95148e-181
8.87709e-176
-6.13207e-173
8.20617e-175
-3.53024e-172
1.31355e-174
-4.06977e-172
1.62651e-174
-3.93186e-172
1.85891e-174
-3.68657e-172
2.02148e-174
-3.40159e-172
2.11279e-174
-3.09012e-172
2.13354e-174
-2.76175e-172
2.0884e-174
-2.42663e-172
1.98546e-174
-2.09462e-172
1.83549e-174
-1.77471e-172
1.651e-174
-1.47462e-172
1.44509e-174
-1.20036e-172
1.23063e-174
-9.5622e-173
1.01924e-174
-7.44607e-173
8.20488e-175
-5.661e-173
6.41604e-175
-4.19747e-173
4.87122e-175
-3.03254e-173
3.58793e-175
-2.13228e-173
2.56193e-175
-1.45762e-173
1.7721e-175
-9.67777e-174
1.18631e-175
-6.23366e-174
7.672e-176
-3.88772e-174
4.77714e-176
-2.33946e-174
2.84876e-176
-1.35097e-174
1.61653e-176
-7.43872e-175
8.65384e-177
-3.872e-175
4.33687e-177
-1.89091e-175
2.02265e-177
-8.61178e-176
8.75519e-178
-3.64652e-176
3.52141e-178
-1.43651e-176
1.32486e-178
-5.29857e-177
4.6916e-179
-1.84107e-177
1.55332e-179
-5.98543e-178
4.68007e-180
-1.77118e-178
1.24723e-180
-4.6365e-179
2.90315e-181
-1.05997e-179
5.95282e-182
-2.13449e-180
1.09234e-182
-3.84747e-181
1.77536e-183
-6.13153e-182
2.48429e-184
-8.37399e-183
2.94618e-185
-9.63653e-184
2.96067e-186
-9.34183e-185
2.52096e-187
-7.6131e-186
1.81415e-188
-5.18376e-187
1.10178e-189
-2.93293e-188
5.65444e-191
-1.3739e-189
2.4613e-192
-5.31148e-191
9.13618e-194
-1.68545e-192
2.9107e-195
-4.33467e-194
8.01543e-197
-8.74511e-196
1.92187e-198
-1.25081e-197
4.04165e-200
-6.86478e-200
8.02187e-202
2.98464e-204
1.5564e-203
1.45905e-205
2.95186e-205
4.46094e-207
5.47221e-207
1.14625e-208
9.91399e-209
2.66599e-210
1.75486e-210
5.78397e-212
3.0339e-212
1.18829e-213
5.12084e-214
2.33151e-215
8.43431e-216
4.39133e-217
1.35481e-217
7.96519e-219
2.12104e-219
1.39417e-220
3.23405e-221
2.35774e-222
4.79866e-223
3.85507e-224
6.92289e-225
6.09605e-226
9.70127e-227
9.32241e-228
1.31912e-228
1.3783e-229
1.73844e-230
1.96913e-231
2.21773e-232
2.71652e-233
2.73493e-234
3.61558e-235
3.25563e-236
4.63781e-237
3.73492e-238
5.72657e-239
4.12228e-240
6.7971e-241
4.36902e-242
7.74339e-243
4.43744e-244
8.45217e-245
4.30933e-246
8.82278e-247
3.99164e-248
8.78863e-249
3.51709e-250
8.33479e-251
2.9391e-252
7.50572e-253
2.32169e-254
6.39961e-255
1.72723e-256
5.14958e-257
1.20518e-258
3.89643e-259
7.8499e-261
2.76096e-261
4.74741e-263
1.82361e-263
2.64934e-265
1.11677e-265
1.35445e-267