/*--------------------------------*- C++ -*----------------------------------*\
| =========                 |                                                 |
| \\      /  F ield         | OpenFOAM: The Open Source CFD Toolbox           |
|  \\    /   O peration     | Version:  2412                                  |
|   \\  /    A nd           | Website:  www.openfoam.com                      |
|    \\/     M anipulation  |                                                 |
\*---------------------------------------------------------------------------*/
FoamFile
{
    version     2.0;
    format      ascii;
    arch        "LSB;label=32;scalar=64";
    class       volScalarField;
    location    "1.16";
    object      p;
}
// * * * * * * * * * * * * * * * * * * * * * * * * * * * * * * * * * * * * * //

dimensions      [1 -1 -2 0 0 0 0];

internalField   nonuniform List<scalar> 
40000
(
0
3.25909e-06
-0.000102204
-0.000325236
-0.000666733
-0.00112646
-0.00170382
-0.00239824
-0.00320901
-0.00413529
-0.00517621
-0.00633089
-0.00759841
-0.00897768
-0.0104675
-0.0120664
-0.0137729
-0.0155855
-0.0175026
-0.0195225
-0.0216435
-0.0238639
-0.0261817
-0.0285948
-0.0311012
-0.0336988
-0.0363853
-0.0391583
-0.0420155
-0.0449541
-0.0479713
-0.0510642
-0.05423
-0.0574659
-0.0607688
-0.0641358
-0.0675638
-0.0710496
-0.07459
-0.0781815
-0.0818209
-0.0855045
-0.0892289
-0.0929903
-0.0967852
-0.10061
-0.10446
-0.108332
-0.112222
-0.116125
-0.120039
-0.12396
-0.127882
-0.131803
-0.135719
-0.139624
-0.143516
-0.147389
-0.15124
-0.155064
-0.158859
-0.16262
-0.166342
-0.170022
-0.173656
-0.177239
-0.180769
-0.184241
-0.187652
-0.190997
-0.194274
-0.197479
-0.200608
-0.203658
-0.206625
-0.209507
-0.212299
-0.215
-0.217605
-0.220112
-0.222518
-0.224821
-0.227018
-0.229107
-0.231086
-0.232952
-0.234703
-0.236337
-0.237852
-0.239248
-0.240521
-0.241672
-0.242698
-0.243598
-0.244373
-0.24502
-0.245539
-0.245929
-0.24619
-0.246321
-0.246323
-0.246196
-0.245939
-0.245554
-0.245039
-0.244397
-0.243627
-0.24273
-0.241708
-0.240562
-0.239292
-0.237901
-0.23639
-0.23476
-0.233013
-0.231151
-0.229177
-0.227092
-0.224898
-0.222599
-0.220196
-0.217693
-0.215091
-0.212395
-0.209607
-0.206729
-0.203766
-0.20072
-0.197595
-0.194394
-0.19112
-0.187779
-0.184372
-0.180903
-0.177377
-0.173797
-0.170167
-0.166491
-0.162772
-0.159015
-0.155224
-0.151402
-0.147554
-0.143684
-0.139796
-0.135894
-0.131982
-0.128064
-0.124144
-0.120227
-0.116315
-0.112414
-0.108526
-0.104657
-0.10081
-0.0969882
-0.0931964
-0.0894377
-0.0857158
-0.0820344
-0.0783971
-0.0748073
-0.0712686
-0.0677843
-0.0643578
-0.0609919
-0.05769
-0.054455
-0.0512904
-0.0481988
-0.0451833
-0.0422469
-0.0393915
-0.0366199
-0.0339347
-0.0313379
-0.0288324
-0.0264199
-0.0241036
-0.0218838
-0.0197637
-0.017744
-0.0158277
-0.0140158
-0.0123103
-0.0107129
-0.00922355
-0.00784515
-0.00657754
-0.00542242
-0.00438112
-0.0034536
-0.00264141
-0.0019454
-0.00136487
-0.000902153
-0.000555641
-0.000328283
-0.000220588
-0.000229723
-3.92401
-3.924
-3.9241
-3.92432
-3.92467
-3.92513
-3.9257
-3.9264
-3.92721
-3.92814
-3.92918
-3.93033
-3.9316
-3.93298
-3.93447
-3.93607
-3.93777
-3.93959
-3.9415
-3.94352
-3.94565
-3.94787
-3.95018
-3.9526
-3.9551
-3.9577
-3.96039
-3.96316
-3.96602
-3.96896
-3.97198
-3.97507
-3.97824
-3.98147
-3.98477
-3.98814
-3.99157
-3.99506
-3.9986
-4.00219
-4.00583
-4.00951
-4.01324
-4.017
-4.02079
-4.02462
-4.02847
-4.03234
-4.03623
-4.04013
-4.04405
-4.04797
-4.05189
-4.05581
-4.05973
-4.06363
-4.06752
-4.0714
-4.07525
-4.07907
-4.08287
-4.08663
-4.09035
-4.09403
-4.09766
-4.10124
-4.10477
-4.10824
-4.11165
-4.115
-4.11828
-4.12148
-4.12461
-4.12766
-4.13062
-4.13351
-4.1363
-4.139
-4.1416
-4.14411
-4.14651
-4.14882
-4.15101
-4.1531
-4.15508
-4.15694
-4.15869
-4.16033
-4.16184
-4.16324
-4.16451
-4.16566
-4.16669
-4.16759
-4.16836
-4.16901
-4.16953
-4.16992
-4.17018
-4.17031
-4.17031
-4.17018
-4.16993
-4.16954
-4.16903
-4.16839
-4.16762
-4.16672
-4.1657
-4.16455
-4.16328
-4.16189
-4.16038
-4.15875
-4.15701
-4.15514
-4.15317
-4.15109
-4.14889
-4.14659
-4.14419
-4.14169
-4.13909
-4.13639
-4.13361
-4.13073
-4.12777
-4.12472
-4.1216
-4.1184
-4.11512
-4.11178
-4.10838
-4.10491
-4.10138
-4.0978
-4.09417
-4.0905
-4.08678
-4.08302
-4.07923
-4.07541
-4.07156
-4.06769
-4.0638
-4.0599
-4.05599
-4.05207
-4.04815
-4.04423
-4.04032
-4.03642
-4.03253
-4.02867
-4.02482
-4.021
-4.0172
-4.01345
-4.00972
-4.00604
-4.0024
-3.99881
-3.99528
-3.99179
-3.98836
-3.985
-3.9817
-3.97846
-3.9753
-3.9722
-3.96919
-3.96625
-3.9634
-3.96062
-3.95794
-3.95534
-3.95284
-3.95042
-3.94811
-3.94589
-3.94377
-3.94175
-3.93983
-3.93802
-3.93631
-3.93471
-3.93322
-3.93185
-3.93058
-3.92942
-3.92838
-3.92745
-3.92664
-3.92595
-3.92537
-3.9249
-3.92456
-3.92433
-3.92422
-3.92423
-7.8479
-7.84789
-7.848
-7.84822
-7.84856
-7.84903
-7.8496
-7.8503
-7.85111
-7.85204
-7.85308
-7.85424
-7.8555
-7.85689
-7.85838
-7.85998
-7.86168
-7.8635
-7.86542
-7.86744
-7.86956
-7.87179
-7.8741
-7.87652
-7.87903
-7.88163
-7.88432
-7.88709
-7.88995
-7.8929
-7.89592
-7.89901
-7.90218
-7.90542
-7.90872
-7.9121
-7.91553
-7.91902
-7.92256
-7.92615
-7.9298
-7.93348
-7.93721
-7.94098
-7.94478
-7.9486
-7.95246
-7.95633
-7.96023
-7.96413
-7.96805
-7.97197
-7.9759
-7.97983
-7.98374
-7.98765
-7.99155
-7.99543
-7.99928
-8.00311
-8.00691
-8.01067
-8.01439
-8.01808
-8.02171
-8.0253
-8.02883
-8.03231
-8.03572
-8.03907
-8.04235
-8.04555
-8.04869
-8.05174
-8.05471
-8.05759
-8.06038
-8.06309
-8.06569
-8.0682
-8.07061
-8.07291
-8.07511
-8.0772
-8.07918
-8.08105
-8.0828
-8.08443
-8.08595
-8.08735
-8.08862
-8.08977
-8.0908
-8.0917
-8.09248
-8.09312
-8.09364
-8.09403
-8.09429
-8.09442
-8.09443
-8.0943
-8.09404
-8.09366
-8.09314
-8.0925
-8.09173
-8.09083
-8.08981
-8.08866
-8.08739
-8.086
-8.08449
-8.08286
-8.08111
-8.07925
-8.07727
-8.07519
-8.07299
-8.07069
-8.06829
-8.06578
-8.06318
-8.06048
-8.05769
-8.05481
-8.05184
-8.0488
-8.04567
-8.04247
-8.03919
-8.03585
-8.03244
-8.02897
-8.02544
-8.02186
-8.01822
-8.01454
-8.01082
-8.00706
-8.00327
-7.99944
-7.99559
-7.99172
-7.98783
-7.98392
-7.98
-7.97608
-7.97216
-7.96824
-7.96432
-7.96042
-7.95653
-7.95265
-7.9488
-7.94498
-7.94118
-7.93742
-7.9337
-7.93001
-7.92637
-7.92278
-7.91924
-7.91575
-7.91232
-7.90895
-7.90564
-7.90241
-7.89924
-7.89614
-7.89313
-7.89019
-7.88733
-7.88455
-7.88186
-7.87927
-7.87676
-7.87434
-7.87202
-7.8698
-7.86768
-7.86566
-7.86374
-7.86193
-7.86022
-7.85862
-7.85713
-7.85575
-7.85448
-7.85333
-7.85228
-7.85135
-7.85054
-7.84984
-7.84926
-7.8488
-7.84846
-7.84823
-7.84812
-7.84813
-11.7717
-11.7717
-11.7718
-11.772
-11.7723
-11.7728
-11.7734
-11.7741
-11.7749
-11.7758
-11.7769
-11.778
-11.7793
-11.7807
-11.7822
-11.7838
-11.7855
-11.7873
-11.7892
-11.7913
-11.7934
-11.7956
-11.7979
-11.8004
-11.8029
-11.8055
-11.8082
-11.8109
-11.8138
-11.8168
-11.8198
-11.8229
-11.8261
-11.8293
-11.8326
-11.836
-11.8394
-11.8429
-11.8465
-11.8501
-11.8537
-11.8574
-11.8612
-11.8649
-11.8687
-11.8726
-11.8764
-11.8803
-11.8842
-11.8881
-11.892
-11.896
-11.8999
-11.9038
-11.9078
-11.9117
-11.9156
-11.9195
-11.9233
-11.9272
-11.931
-11.9348
-11.9385
-11.9422
-11.9458
-11.9494
-11.953
-11.9564
-11.9599
-11.9632
-11.9665
-11.9697
-11.9728
-11.9759
-11.9789
-11.9818
-11.9846
-11.9873
-11.9899
-11.9924
-11.9948
-11.9971
-11.9993
-12.0014
-12.0034
-12.0053
-12.007
-12.0087
-12.0102
-12.0116
-12.0129
-12.014
-12.0151
-12.016
-12.0167
-12.0174
-12.0179
-12.0183
-12.0186
-12.0187
-12.0187
-12.0186
-12.0183
-12.0179
-12.0174
-12.0168
-12.016
-12.0151
-12.0141
-12.0129
-12.0116
-12.0102
-12.0087
-12.0071
-12.0053
-12.0035
-12.0015
-11.9994
-11.9972
-11.9949
-11.9925
-11.99
-11.9874
-11.9847
-11.9819
-11.979
-11.976
-11.973
-11.9698
-11.9666
-11.9633
-11.96
-11.9566
-11.9531
-11.9496
-11.946
-11.9423
-11.9386
-11.9349
-11.9311
-11.9273
-11.9235
-11.9196
-11.9158
-11.9119
-11.9079
-11.904
-11.9001
-11.8962
-11.8922
-11.8883
-11.8844
-11.8805
-11.8766
-11.8728
-11.8689
-11.8651
-11.8614
-11.8576
-11.8539
-11.8503
-11.8467
-11.8431
-11.8396
-11.8362
-11.8328
-11.8295
-11.8263
-11.8231
-11.82
-11.817
-11.814
-11.8112
-11.8084
-11.8057
-11.8031
-11.8006
-11.7982
-11.7958
-11.7936
-11.7915
-11.7895
-11.7875
-11.7857
-11.784
-11.7824
-11.7809
-11.7795
-11.7783
-11.7771
-11.7761
-11.7751
-11.7743
-11.7736
-11.773
-11.7726
-11.7722
-11.772
-11.7719
-11.7719
-15.6953
-15.6953
-15.6954
-15.6957
-15.696
-15.6965
-15.6971
-15.6978
-15.6986
-15.6995
-15.7006
-15.7017
-15.703
-15.7044
-15.7059
-15.7075
-15.7092
-15.711
-15.7129
-15.715
-15.7171
-15.7193
-15.7217
-15.7241
-15.7266
-15.7292
-15.7319
-15.7347
-15.7376
-15.7405
-15.7436
-15.7467
-15.7499
-15.7531
-15.7564
-15.7598
-15.7633
-15.7668
-15.7703
-15.7739
-15.7776
-15.7813
-15.7851
-15.7888
-15.7927
-15.7965
-15.8004
-15.8043
-15.8082
-15.8121
-15.816
-15.82
-15.8239
-15.8279
-15.8318
-15.8357
-15.8397
-15.8436
-15.8474
-15.8513
-15.8551
-15.8589
-15.8626
-15.8663
-15.87
-15.8736
-15.8771
-15.8806
-15.8841
-15.8874
-15.8907
-15.8939
-15.8971
-15.9002
-15.9031
-15.906
-15.9089
-15.9116
-15.9142
-15.9167
-15.9191
-15.9215
-15.9237
-15.9258
-15.9278
-15.9296
-15.9314
-15.933
-15.9346
-15.936
-15.9372
-15.9384
-15.9394
-15.9403
-15.9411
-15.9418
-15.9423
-15.9427
-15.943
-15.9431
-15.9431
-15.943
-15.9427
-15.9423
-15.9418
-15.9411
-15.9404
-15.9395
-15.9384
-15.9373
-15.936
-15.9346
-15.9331
-15.9315
-15.9297
-15.9278
-15.9258
-15.9237
-15.9215
-15.9192
-15.9168
-15.9143
-15.9117
-15.9089
-15.9061
-15.9032
-15.9003
-15.8972
-15.8941
-15.8908
-15.8875
-15.8842
-15.8808
-15.8773
-15.8737
-15.8701
-15.8665
-15.8628
-15.859
-15.8552
-15.8514
-15.8476
-15.8437
-15.8398
-15.8359
-15.832
-15.8281
-15.8241
-15.8202
-15.8162
-15.8123
-15.8084
-15.8045
-15.8006
-15.7967
-15.7929
-15.789
-15.7853
-15.7815
-15.7778
-15.7742
-15.7705
-15.767
-15.7635
-15.76
-15.7567
-15.7533
-15.7501
-15.7469
-15.7438
-15.7408
-15.7378
-15.7349
-15.7322
-15.7295
-15.7268
-15.7243
-15.7219
-15.7196
-15.7173
-15.7152
-15.7132
-15.7113
-15.7094
-15.7077
-15.7061
-15.7046
-15.7032
-15.702
-15.7008
-15.6998
-15.6988
-15.698
-15.6973
-15.6967
-15.6963
-15.6959
-15.6957
-15.6956
-15.6956
-19.6189
-19.6189
-19.619
-19.6192
-19.6196
-19.62
-19.6206
-19.6213
-19.6221
-19.6231
-19.6241
-19.6253
-19.6266
-19.628
-19.6295
-19.6311
-19.6328
-19.6346
-19.6366
-19.6386
-19.6407
-19.643
-19.6453
-19.6477
-19.6503
-19.6529
-19.6556
-19.6584
-19.6613
-19.6642
-19.6673
-19.6704
-19.6736
-19.6769
-19.6802
-19.6836
-19.6871
-19.6906
-19.6941
-19.6978
-19.7014
-19.7052
-19.7089
-19.7127
-19.7165
-19.7204
-19.7243
-19.7282
-19.7321
-19.7361
-19.74
-19.744
-19.7479
-19.7519
-19.7559
-19.7598
-19.7637
-19.7676
-19.7715
-19.7754
-19.7792
-19.783
-19.7868
-19.7905
-19.7942
-19.7978
-19.8014
-19.8049
-19.8083
-19.8117
-19.815
-19.8183
-19.8214
-19.8245
-19.8275
-19.8304
-19.8332
-19.836
-19.8386
-19.8411
-19.8436
-19.8459
-19.8481
-19.8502
-19.8522
-19.8541
-19.8559
-19.8575
-19.8591
-19.8605
-19.8618
-19.8629
-19.864
-19.8649
-19.8657
-19.8663
-19.8668
-19.8672
-19.8675
-19.8676
-19.8676
-19.8675
-19.8672
-19.8668
-19.8663
-19.8657
-19.8649
-19.864
-19.863
-19.8618
-19.8605
-19.8591
-19.8576
-19.8559
-19.8542
-19.8523
-19.8503
-19.8482
-19.846
-19.8436
-19.8412
-19.8387
-19.8361
-19.8333
-19.8305
-19.8276
-19.8246
-19.8215
-19.8184
-19.8151
-19.8118
-19.8085
-19.805
-19.8015
-19.7979
-19.7943
-19.7907
-19.7869
-19.7832
-19.7794
-19.7756
-19.7717
-19.7678
-19.7639
-19.76
-19.756
-19.7521
-19.7481
-19.7442
-19.7402
-19.7363
-19.7323
-19.7284
-19.7245
-19.7206
-19.7167
-19.7129
-19.7091
-19.7054
-19.7017
-19.698
-19.6944
-19.6908
-19.6873
-19.6838
-19.6804
-19.6771
-19.6738
-19.6706
-19.6675
-19.6645
-19.6615
-19.6586
-19.6558
-19.6531
-19.6505
-19.648
-19.6455
-19.6432
-19.641
-19.6388
-19.6368
-19.6349
-19.633
-19.6313
-19.6297
-19.6282
-19.6268
-19.6255
-19.6244
-19.6233
-19.6224
-19.6216
-19.6209
-19.6203
-19.6198
-19.6195
-19.6192
-19.6191
-19.6191
-23.5423
-23.5423
-23.5424
-23.5427
-23.543
-23.5435
-23.5441
-23.5448
-23.5456
-23.5465
-23.5476
-23.5488
-23.55
-23.5514
-23.5529
-23.5546
-23.5563
-23.5581
-23.5601
-23.5621
-23.5643
-23.5665
-23.5689
-23.5713
-23.5738
-23.5765
-23.5792
-23.582
-23.5849
-23.5879
-23.5909
-23.5941
-23.5973
-23.6005
-23.6039
-23.6073
-23.6108
-23.6143
-23.6179
-23.6215
-23.6252
-23.629
-23.6327
-23.6366
-23.6404
-23.6443
-23.6482
-23.6521
-23.6561
-23.66
-23.664
-23.668
-23.672
-23.6759
-23.6799
-23.6839
-23.6878
-23.6918
-23.6957
-23.6996
-23.7034
-23.7072
-23.711
-23.7148
-23.7184
-23.7221
-23.7257
-23.7292
-23.7327
-23.7361
-23.7394
-23.7426
-23.7458
-23.7489
-23.7519
-23.7549
-23.7577
-23.7605
-23.7631
-23.7657
-23.7681
-23.7704
-23.7727
-23.7748
-23.7768
-23.7787
-23.7805
-23.7822
-23.7837
-23.7851
-23.7864
-23.7876
-23.7886
-23.7895
-23.7903
-23.791
-23.7915
-23.7919
-23.7922
-23.7923
-23.7923
-23.7922
-23.7919
-23.7915
-23.791
-23.7903
-23.7896
-23.7887
-23.7876
-23.7864
-23.7852
-23.7837
-23.7822
-23.7805
-23.7788
-23.7769
-23.7749
-23.7727
-23.7705
-23.7682
-23.7657
-23.7632
-23.7606
-23.7578
-23.755
-23.752
-23.749
-23.7459
-23.7428
-23.7395
-23.7362
-23.7328
-23.7293
-23.7258
-23.7222
-23.7186
-23.7149
-23.7112
-23.7074
-23.7036
-23.6997
-23.6958
-23.6919
-23.688
-23.6841
-23.6801
-23.6761
-23.6721
-23.6682
-23.6642
-23.6602
-23.6563
-23.6523
-23.6484
-23.6445
-23.6406
-23.6368
-23.633
-23.6292
-23.6255
-23.6218
-23.6181
-23.6145
-23.611
-23.6075
-23.6041
-23.6008
-23.5975
-23.5943
-23.5912
-23.5881
-23.5851
-23.5822
-23.5794
-23.5767
-23.5741
-23.5715
-23.5691
-23.5668
-23.5645
-23.5624
-23.5603
-23.5584
-23.5565
-23.5548
-23.5532
-23.5517
-23.5503
-23.549
-23.5478
-23.5468
-23.5458
-23.545
-23.5443
-23.5437
-23.5433
-23.5429
-23.5427
-23.5426
-23.5426
-27.4657
-27.4657
-27.4658
-27.466
-27.4664
-27.4668
-27.4674
-27.4681
-27.469
-27.4699
-27.471
-27.4721
-27.4734
-27.4748
-27.4763
-27.478
-27.4797
-27.4815
-27.4835
-27.4855
-27.4877
-27.49
-27.4923
-27.4948
-27.4973
-27.5
-27.5027
-27.5055
-27.5084
-27.5114
-27.5145
-27.5176
-27.5209
-27.5242
-27.5275
-27.531
-27.5345
-27.538
-27.5416
-27.5453
-27.549
-27.5527
-27.5565
-27.5604
-27.5642
-27.5681
-27.5721
-27.576
-27.58
-27.584
-27.588
-27.592
-27.596
-27.6
-27.604
-27.608
-27.612
-27.6159
-27.6198
-27.6238
-27.6276
-27.6315
-27.6353
-27.639
-27.6428
-27.6464
-27.65
-27.6536
-27.6571
-27.6605
-27.6638
-27.6671
-27.6703
-27.6734
-27.6765
-27.6794
-27.6823
-27.6851
-27.6877
-27.6903
-27.6927
-27.6951
-27.6974
-27.6995
-27.7015
-27.7034
-27.7052
-27.7069
-27.7085
-27.7099
-27.7112
-27.7124
-27.7134
-27.7143
-27.7151
-27.7158
-27.7163
-27.7167
-27.717
-27.7171
-27.7171
-27.717
-27.7167
-27.7163
-27.7158
-27.7152
-27.7144
-27.7134
-27.7124
-27.7112
-27.7099
-27.7085
-27.707
-27.7053
-27.7035
-27.7016
-27.6996
-27.6974
-27.6952
-27.6928
-27.6904
-27.6878
-27.6851
-27.6824
-27.6795
-27.6766
-27.6736
-27.6704
-27.6672
-27.664
-27.6606
-27.6572
-27.6537
-27.6502
-27.6466
-27.6429
-27.6392
-27.6354
-27.6316
-27.6278
-27.6239
-27.62
-27.6161
-27.6121
-27.6081
-27.6042
-27.6002
-27.5962
-27.5922
-27.5882
-27.5842
-27.5802
-27.5762
-27.5723
-27.5684
-27.5645
-27.5606
-27.5568
-27.553
-27.5492
-27.5455
-27.5418
-27.5382
-27.5347
-27.5312
-27.5278
-27.5244
-27.5211
-27.5179
-27.5147
-27.5117
-27.5087
-27.5058
-27.5029
-27.5002
-27.4976
-27.495
-27.4926
-27.4902
-27.4879
-27.4858
-27.4837
-27.4818
-27.4799
-27.4782
-27.4766
-27.4751
-27.4737
-27.4724
-27.4712
-27.4701
-27.4692
-27.4684
-27.4677
-27.4671
-27.4666
-27.4663
-27.466
-27.4659
-27.4659
-31.3889
-31.3889
-31.389
-31.3892
-31.3896
-31.3901
-31.3906
-31.3914
-31.3922
-31.3931
-31.3942
-31.3954
-31.3967
-31.3981
-31.3996
-31.4012
-31.403
-31.4048
-31.4068
-31.4089
-31.411
-31.4133
-31.4157
-31.4182
-31.4207
-31.4234
-31.4261
-31.429
-31.4319
-31.4349
-31.438
-31.4412
-31.4444
-31.4477
-31.4511
-31.4546
-31.4581
-31.4616
-31.4653
-31.469
-31.4727
-31.4765
-31.4803
-31.4842
-31.4881
-31.492
-31.4959
-31.4999
-31.5039
-31.5079
-31.5119
-31.516
-31.52
-31.524
-31.5281
-31.5321
-31.5361
-31.5401
-31.544
-31.548
-31.5519
-31.5558
-31.5596
-31.5634
-31.5671
-31.5708
-31.5744
-31.578
-31.5815
-31.585
-31.5884
-31.5917
-31.5949
-31.598
-31.6011
-31.6041
-31.607
-31.6097
-31.6124
-31.615
-31.6175
-31.6199
-31.6222
-31.6243
-31.6264
-31.6283
-31.6301
-31.6318
-31.6333
-31.6348
-31.6361
-31.6373
-31.6384
-31.6393
-31.6401
-31.6407
-31.6413
-31.6417
-31.642
-31.6421
-31.6421
-31.642
-31.6417
-31.6413
-31.6408
-31.6401
-31.6393
-31.6384
-31.6373
-31.6361
-31.6348
-31.6334
-31.6318
-31.6301
-31.6283
-31.6264
-31.6244
-31.6222
-31.62
-31.6176
-31.6151
-31.6125
-31.6098
-31.6071
-31.6042
-31.6012
-31.5982
-31.595
-31.5918
-31.5885
-31.5851
-31.5817
-31.5782
-31.5746
-31.571
-31.5673
-31.5635
-31.5597
-31.5559
-31.552
-31.5481
-31.5442
-31.5402
-31.5363
-31.5323
-31.5282
-31.5242
-31.5202
-31.5162
-31.5121
-31.5081
-31.5041
-31.5001
-31.4961
-31.4922
-31.4883
-31.4844
-31.4805
-31.4767
-31.4729
-31.4692
-31.4655
-31.4619
-31.4583
-31.4548
-31.4513
-31.4479
-31.4446
-31.4414
-31.4382
-31.4351
-31.4321
-31.4292
-31.4264
-31.4236
-31.421
-31.4184
-31.4159
-31.4136
-31.4113
-31.4091
-31.407
-31.4051
-31.4032
-31.4015
-31.3999
-31.3983
-31.3969
-31.3956
-31.3944
-31.3934
-31.3924
-31.3916
-31.3909
-31.3903
-31.3898
-31.3895
-31.3892
-31.3891
-31.3891
-35.312
-35.312
-35.3121
-35.3123
-35.3127
-35.3132
-35.3138
-35.3145
-35.3153
-35.3163
-35.3173
-35.3185
-35.3198
-35.3212
-35.3228
-35.3244
-35.3262
-35.328
-35.33
-35.3321
-35.3343
-35.3366
-35.339
-35.3414
-35.344
-35.3467
-35.3495
-35.3523
-35.3553
-35.3583
-35.3614
-35.3646
-35.3679
-35.3712
-35.3746
-35.3781
-35.3816
-35.3852
-35.3889
-35.3926
-35.3964
-35.4002
-35.404
-35.4079
-35.4118
-35.4158
-35.4198
-35.4238
-35.4278
-35.4319
-35.4359
-35.44
-35.444
-35.4481
-35.4522
-35.4562
-35.4602
-35.4643
-35.4683
-35.4722
-35.4762
-35.4801
-35.4839
-35.4878
-35.4915
-35.4953
-35.4989
-35.5025
-35.5061
-35.5096
-35.513
-35.5163
-35.5196
-35.5227
-35.5258
-35.5288
-35.5317
-35.5345
-35.5373
-35.5399
-35.5424
-35.5448
-35.5471
-35.5493
-35.5513
-35.5533
-35.5551
-35.5568
-35.5584
-35.5598
-35.5612
-35.5624
-35.5634
-35.5644
-35.5652
-35.5658
-35.5664
-35.5668
-35.5671
-35.5672
-35.5672
-35.5671
-35.5668
-35.5664
-35.5659
-35.5652
-35.5644
-35.5635
-35.5624
-35.5612
-35.5599
-35.5584
-35.5568
-35.5551
-35.5533
-35.5514
-35.5493
-35.5471
-35.5449
-35.5425
-35.54
-35.5374
-35.5346
-35.5318
-35.5289
-35.5259
-35.5229
-35.5197
-35.5164
-35.5131
-35.5097
-35.5062
-35.5027
-35.4991
-35.4954
-35.4917
-35.4879
-35.4841
-35.4802
-35.4763
-35.4724
-35.4684
-35.4644
-35.4604
-35.4564
-35.4523
-35.4483
-35.4442
-35.4402
-35.4361
-35.432
-35.428
-35.424
-35.42
-35.416
-35.412
-35.4081
-35.4042
-35.4004
-35.3966
-35.3928
-35.3891
-35.3855
-35.3819
-35.3783
-35.3748
-35.3714
-35.3681
-35.3648
-35.3616
-35.3585
-35.3555
-35.3526
-35.3497
-35.3469
-35.3443
-35.3417
-35.3392
-35.3368
-35.3345
-35.3323
-35.3303
-35.3283
-35.3264
-35.3247
-35.323
-35.3215
-35.3201
-35.3188
-35.3176
-35.3165
-35.3156
-35.3147
-35.314
-35.3134
-35.3129
-35.3126
-35.3123
-35.3122
-35.3122
-39.235
-39.235
-39.2351
-39.2353
-39.2357
-39.2362
-39.2368
-39.2375
-39.2383
-39.2393
-39.2404
-39.2416
-39.2429
-39.2443
-39.2458
-39.2475
-39.2493
-39.2511
-39.2531
-39.2552
-39.2574
-39.2597
-39.2621
-39.2646
-39.2672
-39.2699
-39.2727
-39.2756
-39.2786
-39.2816
-39.2848
-39.288
-39.2913
-39.2946
-39.2981
-39.3016
-39.3051
-39.3088
-39.3124
-39.3162
-39.32
-39.3238
-39.3277
-39.3316
-39.3356
-39.3396
-39.3436
-39.3476
-39.3517
-39.3558
-39.3599
-39.364
-39.3681
-39.3722
-39.3763
-39.3803
-39.3844
-39.3885
-39.3925
-39.3965
-39.4005
-39.4044
-39.4083
-39.4122
-39.416
-39.4198
-39.4235
-39.4271
-39.4307
-39.4342
-39.4377
-39.441
-39.4443
-39.4475
-39.4506
-39.4537
-39.4566
-39.4595
-39.4622
-39.4648
-39.4674
-39.4698
-39.4721
-39.4743
-39.4764
-39.4784
-39.4802
-39.4819
-39.4835
-39.485
-39.4863
-39.4876
-39.4886
-39.4896
-39.4904
-39.4911
-39.4916
-39.492
-39.4923
-39.4925
-39.4925
-39.4923
-39.4921
-39.4916
-39.4911
-39.4904
-39.4896
-39.4887
-39.4876
-39.4864
-39.485
-39.4836
-39.482
-39.4803
-39.4784
-39.4765
-39.4744
-39.4722
-39.4699
-39.4675
-39.4649
-39.4623
-39.4595
-39.4567
-39.4538
-39.4507
-39.4476
-39.4444
-39.4411
-39.4378
-39.4343
-39.4308
-39.4273
-39.4236
-39.4199
-39.4161
-39.4123
-39.4085
-39.4046
-39.4006
-39.3967
-39.3927
-39.3886
-39.3846
-39.3805
-39.3764
-39.3723
-39.3682
-39.3641
-39.36
-39.356
-39.3519
-39.3478
-39.3438
-39.3398
-39.3358
-39.3318
-39.3279
-39.324
-39.3202
-39.3164
-39.3127
-39.309
-39.3054
-39.3018
-39.2983
-39.2949
-39.2915
-39.2882
-39.285
-39.2819
-39.2788
-39.2758
-39.273
-39.2702
-39.2675
-39.2649
-39.2624
-39.26
-39.2577
-39.2555
-39.2534
-39.2514
-39.2495
-39.2477
-39.2461
-39.2445
-39.2431
-39.2418
-39.2406
-39.2395
-39.2386
-39.2377
-39.237
-39.2364
-39.2359
-39.2356
-39.2353
-39.2352
-39.2352
-43.1579
-43.1579
-43.158
-43.1582
-43.1586
-43.159
-43.1597
-43.1604
-43.1612
-43.1622
-43.1633
-43.1645
-43.1658
-43.1672
-43.1688
-43.1705
-43.1723
-43.1741
-43.1761
-43.1783
-43.1805
-43.1828
-43.1852
-43.1877
-43.1904
-43.1931
-43.1959
-43.1988
-43.2018
-43.2049
-43.208
-43.2113
-43.2146
-43.218
-43.2214
-43.225
-43.2286
-43.2322
-43.236
-43.2397
-43.2436
-43.2474
-43.2513
-43.2553
-43.2593
-43.2633
-43.2674
-43.2715
-43.2756
-43.2797
-43.2838
-43.2879
-43.2921
-43.2962
-43.3004
-43.3045
-43.3086
-43.3127
-43.3168
-43.3208
-43.3248
-43.3288
-43.3328
-43.3367
-43.3405
-43.3443
-43.3481
-43.3518
-43.3554
-43.3589
-43.3624
-43.3658
-43.3692
-43.3724
-43.3756
-43.3786
-43.3816
-43.3845
-43.3872
-43.3899
-43.3925
-43.3949
-43.3973
-43.3995
-43.4016
-43.4036
-43.4055
-43.4072
-43.4088
-43.4103
-43.4117
-43.4129
-43.414
-43.415
-43.4158
-43.4165
-43.417
-43.4174
-43.4177
-43.4179
-43.4179
-43.4177
-43.4175
-43.417
-43.4165
-43.4158
-43.415
-43.414
-43.4129
-43.4117
-43.4104
-43.4089
-43.4073
-43.4055
-43.4037
-43.4017
-43.3996
-43.3973
-43.395
-43.3926
-43.39
-43.3873
-43.3846
-43.3817
-43.3787
-43.3757
-43.3725
-43.3693
-43.3659
-43.3625
-43.3591
-43.3555
-43.3519
-43.3482
-43.3445
-43.3407
-43.3368
-43.3329
-43.329
-43.325
-43.321
-43.3169
-43.3129
-43.3088
-43.3047
-43.3005
-43.2964
-43.2923
-43.2881
-43.284
-43.2799
-43.2758
-43.2717
-43.2676
-43.2635
-43.2595
-43.2555
-43.2516
-43.2476
-43.2438
-43.2399
-43.2362
-43.2325
-43.2288
-43.2252
-43.2217
-43.2182
-43.2148
-43.2115
-43.2083
-43.2051
-43.202
-43.199
-43.1961
-43.1933
-43.1906
-43.188
-43.1855
-43.183
-43.1807
-43.1785
-43.1764
-43.1744
-43.1725
-43.1707
-43.169
-43.1675
-43.1661
-43.1647
-43.1635
-43.1624
-43.1615
-43.1606
-43.1599
-43.1593
-43.1588
-43.1585
-43.1582
-43.1581
-43.1581
-47.0806
-47.0806
-47.0807
-47.081
-47.0813
-47.0818
-47.0824
-47.0832
-47.084
-47.085
-47.0861
-47.0873
-47.0886
-47.0901
-47.0917
-47.0933
-47.0951
-47.097
-47.0991
-47.1012
-47.1034
-47.1058
-47.1082
-47.1108
-47.1134
-47.1161
-47.119
-47.1219
-47.1249
-47.128
-47.1312
-47.1345
-47.1378
-47.1413
-47.1448
-47.1483
-47.152
-47.1557
-47.1594
-47.1632
-47.1671
-47.171
-47.1749
-47.1789
-47.183
-47.187
-47.1911
-47.1953
-47.1994
-47.2036
-47.2077
-47.2119
-47.2161
-47.2203
-47.2245
-47.2287
-47.2328
-47.237
-47.2411
-47.2452
-47.2492
-47.2533
-47.2573
-47.2612
-47.2651
-47.269
-47.2727
-47.2765
-47.2801
-47.2837
-47.2873
-47.2907
-47.2941
-47.2974
-47.3006
-47.3037
-47.3067
-47.3096
-47.3124
-47.3151
-47.3177
-47.3202
-47.3226
-47.3248
-47.3269
-47.329
-47.3309
-47.3326
-47.3343
-47.3358
-47.3371
-47.3384
-47.3395
-47.3405
-47.3413
-47.342
-47.3426
-47.343
-47.3433
-47.3434
-47.3434
-47.3433
-47.343
-47.3426
-47.342
-47.3413
-47.3405
-47.3395
-47.3384
-47.3372
-47.3358
-47.3343
-47.3327
-47.3309
-47.329
-47.327
-47.3249
-47.3226
-47.3203
-47.3178
-47.3152
-47.3125
-47.3097
-47.3068
-47.3038
-47.3007
-47.2975
-47.2942
-47.2908
-47.2874
-47.2839
-47.2803
-47.2766
-47.2729
-47.2691
-47.2652
-47.2614
-47.2574
-47.2534
-47.2494
-47.2453
-47.2412
-47.2371
-47.233
-47.2288
-47.2247
-47.2205
-47.2163
-47.2121
-47.2079
-47.2038
-47.1996
-47.1955
-47.1913
-47.1873
-47.1832
-47.1792
-47.1752
-47.1712
-47.1673
-47.1634
-47.1596
-47.1559
-47.1522
-47.1485
-47.145
-47.1415
-47.1381
-47.1347
-47.1314
-47.1283
-47.1252
-47.1221
-47.1192
-47.1164
-47.1136
-47.111
-47.1084
-47.106
-47.1037
-47.1014
-47.0993
-47.0973
-47.0954
-47.0936
-47.0919
-47.0903
-47.0889
-47.0875
-47.0863
-47.0852
-47.0843
-47.0834
-47.0827
-47.0821
-47.0816
-47.0812
-47.081
-47.0809
-47.0809
-51.0033
-51.0033
-51.0034
-51.0036
-51.004
-51.0045
-51.0051
-51.0058
-51.0067
-51.0077
-51.0088
-51.01
-51.0113
-51.0128
-51.0144
-51.0161
-51.0179
-51.0198
-51.0219
-51.024
-51.0263
-51.0286
-51.0311
-51.0337
-51.0363
-51.0391
-51.042
-51.0449
-51.048
-51.0511
-51.0543
-51.0576
-51.061
-51.0645
-51.068
-51.0716
-51.0753
-51.079
-51.0828
-51.0867
-51.0906
-51.0945
-51.0985
-51.1026
-51.1066
-51.1107
-51.1149
-51.1191
-51.1232
-51.1275
-51.1317
-51.1359
-51.1401
-51.1444
-51.1486
-51.1528
-51.157
-51.1612
-51.1654
-51.1696
-51.1737
-51.1777
-51.1818
-51.1858
-51.1897
-51.1936
-51.1975
-51.2013
-51.205
-51.2086
-51.2122
-51.2157
-51.2191
-51.2224
-51.2257
-51.2288
-51.2319
-51.2348
-51.2377
-51.2404
-51.243
-51.2456
-51.248
-51.2502
-51.2524
-51.2545
-51.2564
-51.2582
-51.2598
-51.2614
-51.2628
-51.264
-51.2651
-51.2661
-51.267
-51.2677
-51.2683
-51.2687
-51.269
-51.2691
-51.2691
-51.269
-51.2687
-51.2683
-51.2677
-51.267
-51.2662
-51.2652
-51.2641
-51.2628
-51.2614
-51.2599
-51.2582
-51.2564
-51.2545
-51.2525
-51.2503
-51.248
-51.2456
-51.2431
-51.2405
-51.2377
-51.2349
-51.232
-51.2289
-51.2258
-51.2225
-51.2192
-51.2158
-51.2123
-51.2087
-51.2051
-51.2014
-51.1976
-51.1938
-51.1899
-51.1859
-51.1819
-51.1779
-51.1738
-51.1697
-51.1656
-51.1614
-51.1572
-51.153
-51.1488
-51.1446
-51.1403
-51.1361
-51.1319
-51.1276
-51.1234
-51.1193
-51.1151
-51.111
-51.1068
-51.1028
-51.0987
-51.0947
-51.0908
-51.0869
-51.083
-51.0792
-51.0755
-51.0718
-51.0682
-51.0647
-51.0612
-51.0579
-51.0546
-51.0513
-51.0482
-51.0452
-51.0422
-51.0393
-51.0366
-51.0339
-51.0313
-51.0289
-51.0265
-51.0243
-51.0221
-51.0201
-51.0181
-51.0163
-51.0146
-51.0131
-51.0116
-51.0103
-51.009
-51.0079
-51.0069
-51.0061
-51.0053
-51.0047
-51.0042
-51.0039
-51.0036
-51.0035
-51.0035
-54.9258
-54.9258
-54.9259
-54.9261
-54.9265
-54.927
-54.9276
-54.9284
-54.9292
-54.9302
-54.9313
-54.9326
-54.9339
-54.9354
-54.937
-54.9387
-54.9406
-54.9425
-54.9446
-54.9467
-54.949
-54.9514
-54.9539
-54.9565
-54.9592
-54.962
-54.9649
-54.9679
-54.9709
-54.9741
-54.9774
-54.9807
-54.9841
-54.9876
-54.9912
-54.9948
-54.9985
-55.0023
-55.0062
-55.01
-55.014
-55.018
-55.022
-55.0261
-55.0303
-55.0344
-55.0386
-55.0428
-55.0471
-55.0513
-55.0556
-55.0599
-55.0642
-55.0685
-55.0727
-55.077
-55.0813
-55.0855
-55.0898
-55.094
-55.0981
-55.1023
-55.1064
-55.1104
-55.1144
-55.1184
-55.1223
-55.1261
-55.1299
-55.1336
-55.1372
-55.1407
-55.1442
-55.1476
-55.1509
-55.154
-55.1571
-55.1601
-55.163
-55.1658
-55.1685
-55.171
-55.1735
-55.1758
-55.178
-55.1801
-55.182
-55.1839
-55.1855
-55.1871
-55.1885
-55.1898
-55.1909
-55.1919
-55.1928
-55.1935
-55.1941
-55.1945
-55.1948
-55.195
-55.195
-55.1948
-55.1946
-55.1941
-55.1936
-55.1928
-55.192
-55.191
-55.1898
-55.1886
-55.1871
-55.1856
-55.1839
-55.1821
-55.1802
-55.1781
-55.1759
-55.1736
-55.1711
-55.1686
-55.1659
-55.1631
-55.1602
-55.1572
-55.1542
-55.151
-55.1477
-55.1443
-55.1408
-55.1373
-55.1337
-55.13
-55.1262
-55.1224
-55.1185
-55.1146
-55.1106
-55.1065
-55.1024
-55.0983
-55.0941
-55.0899
-55.0857
-55.0815
-55.0772
-55.0729
-55.0686
-55.0644
-55.0601
-55.0558
-55.0515
-55.0473
-55.043
-55.0388
-55.0346
-55.0305
-55.0263
-55.0223
-55.0182
-55.0142
-55.0103
-55.0064
-55.0025
-54.9988
-54.9951
-54.9914
-54.9878
-54.9844
-54.9809
-54.9776
-54.9743
-54.9712
-54.9681
-54.9651
-54.9622
-54.9594
-54.9567
-54.9541
-54.9516
-54.9493
-54.947
-54.9448
-54.9428
-54.9408
-54.939
-54.9373
-54.9357
-54.9342
-54.9328
-54.9316
-54.9305
-54.9295
-54.9286
-54.9279
-54.9273
-54.9268
-54.9264
-54.9261
-54.926
-54.926
-58.8482
-58.8482
-58.8483
-58.8485
-58.8489
-58.8494
-58.85
-58.8508
-58.8517
-58.8527
-58.8538
-58.8551
-58.8564
-58.8579
-58.8595
-58.8613
-58.8631
-58.8651
-58.8672
-58.8694
-58.8717
-58.8741
-58.8766
-58.8792
-58.8819
-58.8848
-58.8877
-58.8907
-58.8938
-58.897
-58.9003
-58.9037
-58.9072
-58.9107
-58.9143
-58.918
-58.9217
-58.9256
-58.9294
-58.9334
-58.9374
-58.9414
-58.9455
-58.9497
-58.9538
-58.9581
-58.9623
-58.9666
-58.9709
-58.9752
-58.9795
-58.9839
-58.9882
-58.9926
-58.9969
-59.0012
-59.0056
-59.0099
-59.0142
-59.0184
-59.0226
-59.0268
-59.031
-59.0351
-59.0392
-59.0432
-59.0471
-59.051
-59.0548
-59.0586
-59.0623
-59.0659
-59.0694
-59.0728
-59.0762
-59.0794
-59.0825
-59.0856
-59.0885
-59.0914
-59.0941
-59.0967
-59.0992
-59.1015
-59.1037
-59.1059
-59.1078
-59.1097
-59.1114
-59.113
-59.1144
-59.1157
-59.1169
-59.1179
-59.1188
-59.1195
-59.1201
-59.1206
-59.1209
-59.121
-59.121
-59.1209
-59.1206
-59.1201
-59.1195
-59.1188
-59.1179
-59.1169
-59.1158
-59.1145
-59.113
-59.1115
-59.1097
-59.1079
-59.1059
-59.1038
-59.1016
-59.0992
-59.0967
-59.0942
-59.0914
-59.0886
-59.0857
-59.0826
-59.0795
-59.0763
-59.0729
-59.0695
-59.066
-59.0624
-59.0587
-59.055
-59.0511
-59.0473
-59.0433
-59.0393
-59.0353
-59.0311
-59.027
-59.0228
-59.0186
-59.0143
-59.01
-59.0057
-59.0014
-58.9971
-58.9927
-58.9884
-58.984
-58.9797
-58.9754
-58.9711
-58.9668
-58.9625
-58.9583
-58.9541
-58.9499
-58.9457
-58.9416
-58.9376
-58.9336
-58.9297
-58.9258
-58.922
-58.9182
-58.9145
-58.9109
-58.9074
-58.9039
-58.9006
-58.8973
-58.8941
-58.891
-58.8879
-58.885
-58.8822
-58.8795
-58.8768
-58.8743
-58.8719
-58.8696
-58.8674
-58.8653
-58.8634
-58.8615
-58.8598
-58.8582
-58.8567
-58.8553
-58.8541
-58.8529
-58.8519
-58.8511
-58.8503
-58.8497
-58.8492
-58.8488
-58.8486
-58.8484
-58.8484
-62.7705
-62.7705
-62.7706
-62.7708
-62.7712
-62.7717
-62.7724
-62.7731
-62.774
-62.775
-62.7762
-62.7774
-62.7788
-62.7803
-62.782
-62.7837
-62.7856
-62.7876
-62.7897
-62.7919
-62.7942
-62.7966
-62.7992
-62.8018
-62.8046
-62.8075
-62.8104
-62.8135
-62.8166
-62.8199
-62.8232
-62.8266
-62.8301
-62.8337
-62.8374
-62.8411
-62.8449
-62.8488
-62.8527
-62.8567
-62.8607
-62.8648
-62.869
-62.8732
-62.8774