/*--------------------------------*- C++ -*----------------------------------*\
| =========                 |                                                 |
| \\      /  F ield         | OpenFOAM: The Open Source CFD Toolbox           |
|  \\    /   O peration     | Version:  2412                                  |
|   \\  /    A nd           | Website:  www.openfoam.com                      |
|    \\/     M anipulation  |                                                 |
\*---------------------------------------------------------------------------*/
FoamFile
{
    version     2.0;
    format      ascii;
    arch        "LSB;label=32;scalar=64";
    class       volScalarField;
    location    "1.16";
    object      p_rgh;
}
// * * * * * * * * * * * * * * * * * * * * * * * * * * * * * * * * * * * * * //

dimensions      [1 -1 -2 0 0 0 0];

internalField   nonuniform List<scalar> 
40000
(
1.962
1.962
1.9619
1.96167
1.96133
1.96087
1.9603
1.9596
1.95879
1.95786
1.95682
1.95567
1.9544
1.95302
1.95153
1.94993
1.94823
1.94641
1.9445
1.94248
1.94036
1.93814
1.93582
1.93341
1.9309
1.9283
1.92561
1.92284
1.91998
1.91705
1.91403
1.91094
1.90777
1.90453
1.90123
1.89786
1.89444
1.89095
1.88741
1.88382
1.88018
1.8765
1.87277
1.86901
1.86521
1.86139
1.85754
1.85367
1.84978
1.84587
1.84196
1.83804
1.83412
1.8302
1.82628
1.82238
1.81848
1.81461
1.81076
1.80694
1.80314
1.79938
1.79566
1.79198
1.78834
1.78476
1.78123
1.77776
1.77435
1.771
1.76773
1.76452
1.76139
1.75834
1.75537
1.75249
1.7497
1.747
1.7444
1.74189
1.73948
1.73718
1.73498
1.73289
1.73091
1.72905
1.7273
1.72566
1.72415
1.72275
1.72148
1.72033
1.7193
1.7184
1.71763
1.71698
1.71646
1.71607
1.71581
1.71568
1.71568
1.7158
1.71606
1.71645
1.71696
1.7176
1.71837
1.71927
1.72029
1.72144
1.72271
1.7241
1.72561
1.72724
1.72899
1.73085
1.73282
1.73491
1.7371
1.7394
1.7418
1.74431
1.74691
1.7496
1.75239
1.75527
1.75823
1.76128
1.76441
1.76761
1.77088
1.77422
1.77763
1.7811
1.78462
1.7882
1.79183
1.79551
1.79923
1.80299
1.80678
1.8106
1.81445
1.81832
1.8222
1.82611
1.83002
1.83394
1.83786
1.84177
1.84569
1.84959
1.85347
1.85734
1.86119
1.86501
1.8688
1.87256
1.87628
1.87997
1.8836
1.88719
1.89073
1.89422
1.89764
1.90101
1.90431
1.90754
1.91071
1.9138
1.91682
1.91975
1.92261
1.92538
1.92807
1.93066
1.93317
1.93558
1.9379
1.94012
1.94224
1.94426
1.94617
1.94798
1.94969
1.95129
1.95278
1.95415
1.95542
1.95658
1.95762
1.95855
1.95936
1.96005
1.96064
1.9611
1.96144
1.96167
1.96178
1.96177
1.96199
1.962
1.9619
1.96168
1.96133
1.96087
1.9603
1.9596
1.95879
1.95786
1.95682
1.95567
1.9544
1.95302
1.95153
1.94993
1.94823
1.94641
1.9445
1.94248
1.94035
1.93813
1.93582
1.9334
1.9309
1.9283
1.92561
1.92284
1.91998
1.91704
1.91402
1.91093
1.90776
1.90453
1.90123
1.89786
1.89443
1.89094
1.8874
1.88381
1.88017
1.87649
1.87276
1.869
1.86521
1.86138
1.85753
1.85366
1.84977
1.84587
1.84195
1.83803
1.83411
1.83019
1.82627
1.82237
1.81848
1.8146
1.81075
1.80693
1.80313
1.79937
1.79565
1.79197
1.78834
1.78476
1.78123
1.77776
1.77435
1.771
1.76772
1.76452
1.76139
1.75834
1.75538
1.75249
1.7497
1.747
1.7444
1.74189
1.73949
1.73718
1.73499
1.7329
1.73092
1.72906
1.72731
1.72567
1.72416
1.72276
1.72149
1.72034
1.71931
1.71841
1.71764
1.71699
1.71647
1.71608
1.71582
1.71569
1.71569
1.71582
1.71607
1.71646
1.71697
1.71761
1.71838
1.71928
1.7203
1.72145
1.72272
1.72411
1.72562
1.72725
1.72899
1.73086
1.73283
1.73491
1.73711
1.73941
1.74181
1.74431
1.74691
1.74961
1.75239
1.75527
1.75823
1.76128
1.7644
1.7676
1.77088
1.77422
1.77762
1.78109
1.78462
1.7882
1.79183
1.7955
1.79922
1.80298
1.80677
1.81059
1.81444
1.81831
1.8222
1.8261
1.83001
1.83393
1.83785
1.84177
1.84568
1.84958
1.85347
1.85733
1.86118
1.865
1.8688
1.87255
1.87628
1.87996
1.8836
1.88719
1.89072
1.89421
1.89764
1.901
1.9043
1.90754
1.9107
1.9138
1.91681
1.91975
1.9226
1.92538
1.92806
1.93066
1.93316
1.93558
1.93789
1.94011
1.94223
1.94425
1.94617
1.94798
1.94969
1.95129
1.95278
1.95415
1.95542
1.95658
1.95762
1.95855
1.95936
1.96005
1.96063
1.9611
1.96144
1.96167
1.96178
1.96177
1.9621
1.96211
1.962
1.96178
1.96144
1.96097
1.9604
1.9597
1.95889
1.95796
1.95692
1.95576
1.9545
1.95311
1.95162
1.95002
1.94832
1.9465
1.94458
1.94256
1.94044
1.93821
1.9359
1.93348
1.93097
1.92837
1.92568
1.92291
1.92005
1.9171
1.91408
1.91099
1.90782
1.90458
1.90128
1.8979
1.89447
1.89098
1.88744
1.88385
1.8802
1.87652
1.87279
1.86902
1.86522
1.8614
1.85754
1.85367
1.84977
1.84587
1.84195
1.83803
1.8341
1.83017
1.82626
1.82235
1.81845
1.81457
1.81072
1.80689
1.80309
1.79933
1.79561
1.79192
1.78829
1.7847
1.78117
1.77769
1.77428
1.77093
1.76765
1.76445
1.76131
1.75826
1.75529
1.75241
1.74962
1.74691
1.74431
1.7418
1.73939
1.73709
1.73489
1.7328
1.73082
1.72895
1.7272
1.72557
1.72405
1.72265
1.72138
1.72023
1.7192
1.7183
1.71752
1.71688
1.71636
1.71597
1.71571
1.71558
1.71557
1.7157
1.71596
1.71634
1.71686
1.7175
1.71827
1.71917
1.72019
1.72134
1.72261
1.724
1.72551
1.72714
1.72889
1.73075
1.73273
1.73481
1.73701
1.73931
1.74171
1.74422
1.74682
1.74952
1.75231
1.75519
1.75816
1.7612
1.76433
1.76753
1.77081
1.77415
1.77756
1.78103
1.78456
1.78814
1.79178
1.79546
1.79918
1.80294
1.80673
1.81056
1.81441
1.81828
1.82217
1.82608
1.83
1.83392
1.83784
1.84176
1.84568
1.84958
1.85347
1.85735
1.8612
1.86502
1.86882
1.87258
1.8763
1.87999
1.88363
1.88722
1.89076
1.89425
1.89768
1.90105
1.90436
1.90759
1.91076
1.91386
1.91687
1.91981
1.92267
1.92545
1.92814
1.93073
1.93324
1.93566
1.93798
1.9402
1.94232
1.94434
1.94626
1.94807
1.94978
1.95138
1.95287
1.95425
1.95552
1.95667
1.95772
1.95865
1.95946
1.96016
1.96074
1.9612
1.96154
1.96177
1.96188
1.96187
1.96232
1.96233
1.96222
1.962
1.96165
1.96119
1.96061
1.95991
1.9591
1.95817
1.95713
1.95597
1.9547
1.95332
1.95182
1.95022
1.94851
1.94669
1.94477
1.94275
1.94062
1.93839
1.93607
1.93365
1.93114
1.92853
1.92584
1.92306
1.92019
1.91725
1.91422
1.91112
1.90795
1.9047
1.90139
1.89801
1.89458
1.89108
1.88753
1.88393
1.88028
1.87658
1.87285
1.86908
1.86527
1.86144
1.85758
1.85369
1.84979
1.84588
1.84195
1.83802
1.83409
1.83015
1.82623
1.82231
1.81841
1.81452
1.81066
1.80683
1.80302
1.79925
1.79552
1.79183
1.78818
1.78459
1.78105
1.77757
1.77415
1.77079
1.7675
1.76429
1.76115
1.7581
1.75512
1.75223
1.74943
1.74672
1.74411
1.7416
1.73918
1.73687
1.73467
1.73258
1.73059
1.72872
1.72697
1.72533
1.72381
1.72241
1.72113
1.71998
1.71895
1.71805
1.71727
1.71662
1.7161
1.71571
1.71545
1.71532
1.71531
1.71544
1.7157
1.71609
1.7166
1.71725
1.71802
1.71892
1.71994
1.72109
1.72236
1.72376
1.72527
1.72691
1.72866
1.73053
1.73251
1.7346
1.7368
1.7391
1.74151
1.74402
1.74663
1.74933
1.75213
1.75502
1.75799
1.76104
1.76417
1.76739
1.77067
1.77402
1.77744
1.78091
1.78445
1.78804
1.79168
1.79537
1.7991
1.80286
1.80667
1.8105
1.81436
1.81824
1.82214
1.82605
1.82997
1.8339
1.83784
1.84176
1.84569
1.8496
1.8535
1.85738
1.86124
1.86507
1.86887
1.87264
1.87637
1.88006
1.88371
1.88731
1.89086
1.89435
1.89779
1.90117
1.90448
1.90772
1.91089
1.91399
1.91702
1.91996
1.92282
1.9256
1.9283
1.9309
1.93341
1.93583
1.93815
1.94038
1.94251
1.94453
1.94645
1.94827
1.94998
1.95158
1.95307
1.95446
1.95573
1.95688
1.95793
1.95886
1.95967
1.96037
1.96095
1.96142
1.96176
1.96199
1.9621
1.96209
1.96266
1.96266
1.96256
1.96233
1.96198
1.96152
1.96094
1.96024
1.95942
1.95849
1.95745
1.95629
1.95501
1.95363
1.95213
1.95052
1.94881
1.94699
1.94506
1.94303
1.9409
1.93867
1.93634
1.93391
1.93139
1.92878
1.92608
1.92329
1.92042
1.91747
1.91443
1.91132
1.90814
1.90489
1.90157
1.89818
1.89473
1.89123
1.88767
1.88406
1.8804
1.87669
1.87295
1.86916
1.86535
1.8615
1.85763
1.85374
1.84982
1.8459
1.84196
1.83802
1.83407
1.83013
1.82619
1.82226
1.81835
1.81445
1.81057
1.80673
1.80291
1.79913
1.79538
1.79168
1.78803
1.78442
1.78087
1.77738
1.77394
1.77058
1.76728
1.76406
1.76091
1.75784
1.75485
1.75196
1.74915
1.74643
1.74381
1.74129
1.73887
1.73655
1.73434
1.73224
1.73025
1.72837
1.72661
1.72496
1.72344
1.72203
1.72075
1.71959
1.71856
1.71766
1.71688
1.71623
1.7157
1.71531
1.71505
1.71492
1.71491
1.71504
1.7153
1.71569
1.71621
1.71685
1.71763
1.71853
1.71956
1.72071
1.72199
1.72339
1.72491
1.72655
1.72831
1.73018
1.73217
1.73426
1.73647
1.73878
1.7412
1.74372
1.74634
1.74905
1.75186
1.75475
1.75773
1.7608
1.76394
1.76716
1.77045
1.77382
1.77724
1.78073
1.78428
1.78788
1.79153
1.79523
1.79897
1.80275
1.80657
1.81041
1.81428
1.81818
1.82209
1.82601
1.82995
1.83389
1.83783
1.84177
1.84571
1.84963
1.85354
1.85743
1.8613
1.86514
1.86896
1.87274
1.87648
1.88018
1.88384
1.88745
1.89101
1.89451
1.89796
1.90134
1.90466
1.90791
1.91109
1.9142
1.91724
1.92019
1.92306
1.92584
1.92854
1.93115
1.93367
1.9361
1.93843
1.94066
1.94279
1.94482
1.94674
1.94856
1.95028
1.95189
1.95338
1.95477
1.95604
1.9572
1.95825
1.95918
1.96
1.9607
1.96128
1.96174
1.96209
1.96232
1.96242
1.96242
1.9631
1.96311
1.963
1.96277
1.96242
1.96196
1.96137
1.96067
1.95985
1.95892
1.95787
1.95671
1.95543
1.95404
1.95254
1.95093
1.94921
1.94738
1.94544
1.94341
1.94127
1.93903
1.93669
1.93426
1.93173
1.92911
1.9264
1.92361
1.92072
1.91776
1.91472
1.9116
1.9084
1.90514
1.9018
1.89841
1.89495
1.89143
1.88786
1.88423
1.88056
1.87684
1.87308
1.86928
1.86545
1.86159
1.85771
1.8538
1.84987
1.84593
1.84197
1.83802
1.83405
1.83009
1.82614
1.8222
1.81826
1.81435
1.81046
1.8066
1.80277
1.79897
1.79521
1.79149
1.78782
1.7842
1.78063
1.77712
1.77367
1.77029
1.76698
1.76374
1.76058
1.7575
1.7545
1.75159
1.74877
1.74604
1.7434
1.74087
1.73844
1.73611
1.73389
1.73178
1.72978
1.72789
1.72612
1.72447
1.72294
1.72153
1.72024
1.71908
1.71804
1.71713
1.71635
1.71569
1.71517
1.71477
1.71451
1.71438
1.71437
1.7145
1.71476
1.71515
1.71567
1.71632
1.7171
1.71801
1.71904
1.7202
1.72148
1.72289
1.72442
1.72606
1.72783
1.72971
1.73171
1.73382
1.73603
1.73836
1.74078
1.74331
1.74594
1.74867
1.75149
1.7544
1.75739
1.76047
1.76363
1.76686
1.77017
1.77355
1.77699
1.78049
1.78406
1.78767
1.79134
1.79506
1.79881
1.80261
1.80644
1.8103
1.81419
1.8181
1.82202
1.82596
1.82992
1.83387
1.83783
1.84179
1.84574
1.84968
1.8536
1.85751
1.86139
1.86525
1.86908
1.87287
1.87663
1.88034
1.88402
1.88764
1.89121
1.89473
1.89818
1.90158
1.90491
1.90817
1.91137
1.91449
1.91753
1.92049
1.92337
1.92617
1.92888
1.93149
1.93402
1.93645
1.93879
1.94103
1.94317
1.9452
1.94714
1.94896
1.95068
1.95229
1.95379
1.95518
1.95646
1.95763
1.95868
1.95961
1.96043
1.96113
1.96172
1.96218
1.96253
1.96276
1.96287
1.96286
1.96366
1.96366
1.96356
1.96333
1.96298
1.96251
1.96192
1.96122
1.9604
1.95946
1.95841
1.95724
1.95595
1.95456
1.95305
1.95143
1.94971
1.94787
1.94593
1.94389
1.94174
1.93949
1.93714
1.9347
1.93216
1.92953
1.92681
1.924
1.92111
1.91813
1.91507
1.91194
1.90873
1.90545
1.9021
1.89869
1.89522
1.89168
1.88809
1.88445
1.88076
1.87703
1.87325
1.86944
1.86559
1.86171
1.8578
1.85388
1.84993
1.84597
1.842
1.83802
1.83404
1.83006
1.82608
1.82212
1.81817
1.81423
1.81032
1.80644
1.80259
1.79877
1.79499
1.79125
1.78756
1.78392
1.78033
1.7768
1.77334
1.76994
1.76661
1.76335
1.76017
1.75707
1.75405
1.75113
1.74829
1.74554
1.7429
1.74035
1.7379
1.73556
1.73332
1.7312
1.72919
1.72729
1.72551
1.72385
1.72231
1.72089
1.71959
1.71842
1.71738
1.71646
1.71568
1.71502
1.71449
1.71409
1.71383
1.7137
1.71369
1.71382
1.71408
1.71448
1.715
1.71565
1.71644
1.71735
1.71839
1.71955
1.72084
1.72226
1.7238
1.72545
1.72723
1.72912
1.73113
1.73325
1.73548
1.73782
1.74026
1.74281
1.74545
1.74819
1.75103
1.75395
1.75696
1.76006
1.76323
1.76649
1.76981
1.77321
1.77667
1.78019
1.78378
1.78741
1.7911
1.79484
1.79861
1.80243
1.80628
1.81016
1.81407
1.818
1.82194
1.82591
1.82988
1.83385
1.83783
1.84181
1.84578
1.84974
1.85368
1.85761
1.86151
1.86538
1.86923
1.87304
1.87682
1.88055
1.88424
1.88788
1.89146
1.895
1.89847
1.90188
1.90523
1.9085
1.91171
1.91484
1.9179
1.92087
1.92377
1.92657
1.92929
1.93192
1.93446
1.9369
1.93925
1.9415
1.94364
1.94569
1.94763
1.94946
1.95119
1.95281
1.95431
1.95571
1.95699
1.95816
1.95921
1.96015
1.96097
1.96168
1.96227
1.96273
1.96308
1.96331
1.96342
1.96342
1.96433
1.96433
1.96422
1.96399
1.96364
1.96317
1.96258
1.96187
1.96105
1.96011
1.95905
1.95787
1.95659
1.95518
1.95367
1.95204
1.95031
1.94846
1.94651
1.94446
1.9423
1.94004
1.93768
1.93523
1.93268
1.93003
1.9273
1.92448
1.92157
1.91858
1.9155
1.91235
1.90913
1.90583
1.90247
1.89904
1.89554
1.89199
1.88838
1.88472
1.88101
1.87726
1.87346
1.86962
1.86575
1.86185
1.85792
1.85397
1.85
1.84602
1.84202
1.83802
1.83401
1.83001
1.82601
1.82202
1.81805
1.81409
1.81016
1.80625
1.80237
1.79853
1.79472
1.79096
1.78725
1.78358
1.77997
1.77642
1.77293
1.76951
1.76616
1.76288
1.75968
1.75656
1.75352
1.75057
1.74771
1.74495
1.74228
1.73972
1.73725
1.73489
1.73264
1.7305
1.72848
1.72657
1.72477
1.7231
1.72155
1.72012
1.71881
1.71763
1.71658
1.71566
1.71487
1.71421
1.71367
1.71327
1.71301
1.71287
1.71287
1.713
1.71326
1.71366
1.71419
1.71485
1.71563
1.71655
1.7176
1.71877
1.72007
1.7215
1.72305
1.72472
1.72651
1.72841
1.73043
1.73257
1.73481
1.73717
1.73963
1.74219
1.74485
1.74761
1.75047
1.75341
1.75645
1.75956
1.76276
1.76604
1.76938
1.7728
1.77629
1.77984
1.78344
1.7871
1.79081
1.79457
1.79837
1.80221
1.80609
1.80999
1.81393
1.81788
1.82185
1.82584
1.82983
1.83383
1.83783
1.84183
1.84583
1.84981
1.85378
1.85772
1.86165
1.86555
1.86942
1.87325
1.87704
1.8808
1.88451
1.88817
1.89177
1.89532
1.89881
1.90224
1.90561
1.9089
1.91213
1.91527
1.91834
1.92133
1.92424
1.92706
1.9298
1.93244
1.93499
1.93745
1.9398
1.94206
1.94422
1.94627
1.94822
1.95006
1.9518
1.95342
1.95494
1.95634
1.95763
1.9588
1.95986
1.9608
1.96163
1.96234
1.96293
1.9634
1.96375
1.96398
1.96409
1.96409
1.96511
1.96511
1.965
1.96477
1.96442
1.96395
1.96335
1.96264
1.96181
1.96087
1.9598
1.95862
1.95732
1.95591
1.95439
1.95276
1.95101
1.94916
1.9472
1.94513
1.94296
1.94069
1.93832
1.93585
1.93328
1.93062
1.92787
1.92503
1.92211
1.9191
1.91601
1.91284
1.9096
1.90628
1.9029
1.89944
1.89593
1.89235
1.88872
1.88504
1.8813
1.87752
1.8737
1.86984
1.86594
1.86202
1.85806
1.85409
1.85009
1.84608
1.84206
1.83803
1.83399
1.82996
1.82593
1.82192
1.81791
1.81393
1.80996
1.80603
1.80212
1.79825
1.79442
1.79063
1.78688
1.78319
1.77955
1.77597
1.77246
1.76901
1.76563
1.76232
1.7591
1.75595
1.75289
1.74992
1.74704
1.74425
1.74156
1.73897
1.73649
1.73411
1.73184
1.72969
1.72764
1.72572
1.72391
1.72222
1.72066
1.71921
1.7179
1.71671
1.71565
1.71472
1.71392
1.71325
1.71272
1.71231
1.71204
1.71191
1.7119
1.71204
1.7123
1.7127
1.71323
1.7139
1.71469
1.71562
1.71667
1.71786
1.71917
1.72061
1.72217
1.72385
1.72566
1.72758
1.72962
1.73177
1.73403
1.73641
1.73889
1.74147
1.74416
1.74694
1.74982
1.75279
1.75584
1.75898
1.76221
1.76551
1.76888
1.77233
1.77584
1.77942
1.78305
1.78674
1.79048
1.79426
1.79809
1.80196
1.80587
1.8098
1.81376
1.81774
1.82174
1.82576
1.82978
1.83381
1.83784
1.84187
1.84589
1.8499
1.85389
1.85787
1.86182
1.86574
1.86963
1.87349
1.87731
1.88109
1.88482
1.8885
1.89213
1.89571
1.89922
1.90267
1.90605
1.90937
1.91261
1.91578
1.91887
1.92188
1.9248
1.92764
1.93039
1.93305
1.93561
1.93808
1.94045
1.94272
1.94489
1.94696
1.94892
1.95077
1.95251
1.95415
1.95567
1.95708
1.95837
1.95956
1.96062
1.96157
1.9624
1.96311
1.9637
1.96417
1.96453
1.96476
1.96487
1.96487
1.96601
1.96601
1.9659
1.96567
1.96531
1.96483
1.96424
1.96352
1.96269
1.96173
1.96066
1.95948
1.95817
1.95675
1.95522
1.95358
1.95182
1.94996
1.94798
1.9459
1.94372
1.94143
1.93905
1.93656
1.93398
1.9313
1.92853
1.92568
1.92273
1.9197
1.91659
1.9134
1.91013
1.90679
1.90339
1.89991
1.89637
1.89277
1.88911
1.8854
1.88164
1.87783
1.87398
1.87009
1.86617
1.86221
1.85823
1.85422
1.85019
1.84615
1.8421
1.83803
1.83397
1.8299
1.82585
1.8218
1.81776
1.81374
1.80974
1.80577
1.80183
1.79793
1.79406
1.79024
1.78647
1.78274
1.77907
1.77546
1.77191
1.76843
1.76502
1.76169
1.75843
1.75526
1.75217
1.74917
1.74626
1.74345
1.74074
1.73812
1.73562
1.73322
1.73093
1.72875
1.72669
1.72474
1.72292
1.72121
1.71963
1.71817
1.71685
1.71565
1.71458
1.71364
1.71283
1.71215
1.71161
1.71121
1.71093
1.7108
1.71079
1.71093
1.7112
1.7116
1.71213
1.71281
1.71361
1.71454
1.71561
1.71681
1.71813
1.71958
1.72116
1.72286
1.72468
1.72662
1.72868
1.73085
1.73314
1.73553
1.73804
1.74065
1.74336
1.74616
1.74907
1.75206
1.75515
1.75832
1.76157
1.7649
1.76831
1.77178
1.77533
1.77893
1.7826
1.78632
1.79009
1.79391
1.79778
1.80168
1.80561
1.80958
1.81357
1.81759
1.82162
1.82567
1.82972
1.83379
1.83785
1.84191
1.84596
1.85
1.85402
1.85803
1.86201
1.86596
1.86989
1.87377
1.87762
1.88143
1.88519
1.88889
1.89255
1.89615
1.89969
1.90316
1.90657
1.9099
1.91317
1.91636
1.91947
1.9225
1.92544
1.9283
1.93106
1.93374
1.93632
1.93881
1.94119
1.94348
1.94566
1.94774
1.94971
1.95158
1.95333
1.95498
1.95651
1.95793
1.95923
1.96042
1.96149
1.96244
1.96328
1.96399
1.96459
1.96506
1.96542
1.96565
1.96576
1.96576
1.96702
1.96702
1.96691
1.96667
1.96632
1.96584
1.96524
1.96452
1.96368
1.96272
1.96164
1.96044
1.95913
1.9577
1.95616
1.9545
1.95273
1.95085
1.94887
1.94677
1.94457
1.94227
1.93987
1.93736
1.93476
1.93207
1.92928
1.9264
1.92343
1.92038
1.91725
1.91403
1.91074
1.90738
1.90394
1.90044
1.89687
1.89324
1.88955
1.88581
1.88202
1.87818
1.8743
1.87038
1.86642
1.86243
1.85841
1.85437
1.85031
1.84623
1.84214
1.83804
1.83394
1.82984
1.82575
1.82166
1.81759
1.81353
1.8095
1.80549
1.80151
1.79757
1.79367
1.78981
1.786
1.78223
1.77853
1.77488
1.7713
1.76779
1.76434
1.76097
1.75768
1.75448
1.75136
1.74833
1.74539
1.74255
1.7398
1.73716
1.73463
1.7322
1.72989
1.72769
1.7256
1.72364
1.72179
1.72007
1.71847
1.717
1.71566
1.71444
1.71336
1.71241
1.71159
1.71091
1.71037
1.70995
1.70968
1.70954
1.70954
1.70967
1.70994
1.71035
1.71089
1.71157
1.71238
1.71333
1.71441
1.71562
1.71696
1.71842
1.72002
1.72173
1.72358
1.72554
1.72762
1.72981
1.73213
1.73455
1.73708
1.73971
1.74245
1.74529
1.74822
1.75125
1.75437
1.75757
1.76086
1.76422
1.76766
1.77117
1.77475
1.77839
1.78209
1.78585
1.78966
1.79352
1.79742
1.80136
1.80533
1.80933
1.81336
1.81742
1.82149
1.82557
1.82966
1.83376
1.83786
1.84195
1.84604
1.85012
1.85417
1.85821
1.86223
1.86622
1.87017
1.87409
1.87797
1.88181
1.8856
1.88934
1.89302
1.89665
1.90021
1.90371
1.90715
1.91051
1.9138
1.91701
1.92015
1.9232
1.92616
1.92904
1.93183
1.93452
1.93712
1.93963
1.94203
1.94433
1.94653
1.94862
1.95061
1.95249
1.95425
1.95591
1.95745
1.95888
1.96019
1.96139
1.96247
1.96343
1.96427
1.96499
1.96559
1.96607
1.96642
1.96666
1.96677
1.96677
1.96814
1.96814
1.96803
1.9678
1.96744
1.96695
1.96635
1.96562
1.96477
1.96381
1.96272
1.96152
1.96019
1.95875
1.9572
1.95553
1.95375
1.95186
1.94985
1.94774
1.94553
1.94321
1.94078
1.93826
1.93564
1.93292
1.93011
1.92721
1.92422
1.92114
1.91798
1.91474
1.91142
1.90802
1.90456
1.90103
1.89743
1.89377
1.89005
1.88627
1.88245
1.87857
1.87466
1.8707
1.8667
1.86268
1.85862
1.85454
1.85044
1.84632
1.84219
1.83806
1.83392
1.82977
1.82564
1.82151
1.81739
1.8133
1.80922
1.80517
1.80116
1.79717
1.79323
1.78933
1.78547
1.78167
1.77792
1.77424
1.77062
1.76706
1.76358
1.76017
1.75685
1.7536
1.75045
1.74738
1.74441
1.74154
1.73876
1.73609
1.73353
1.73107
1.72873
1.7265
1.72439
1.7224
1.72054
1.71879
1.71718
1.71569
1.71433
1.7131
1.712
1.71104
1.71022
1.70952
1.70897
1.70855
1.70828
1.70814
1.70813
1.70827
1.70854
1.70896
1.70951
1.71019
1.71101
1.71197
1.71306
1.71429
1.71564
1.71713
1.71874
1.72048
1.72234
1.72433
1.72643
1.72866
1.73099
1.73344
1.736
1.73867
1.74144
1.74431
1.74728
1.75034
1.75349
1.75673
1.76006
1.76346
1.76694
1.77049
1.77411
1.77779
1.78153
1.78533
1.78918
1.79308
1.79702
1.801
1.80501
1.80906
1.81313
1.81722
1.82134
1.82546
1.82959
1.83373
1.83787
1.84201
1.84613
1.85025
1.85434
1.85842
1.86248
1.8665
1.87049
1.87445
1.87836
1.88223
1.88606
1.88983
1.89355
1.8972
1.9008
1.90433
1.9078
1.91119
1.9145
1.91774
1.9209
1.92398
1.92697
1.92987
1.93268
1.9354
1.93802
1.94054
1.94296
1.94528
1.9475
1.94961
1.95161
1.9535
1.95528
1.95695
1.95851
1.95994
1.96127
1.96247
1.96356
1.96452
1.96537
1.9661
1.9667
1.96718
1.96755
1.96778
1.96789
1.96789
1.96938
1.96939
1.96927
1.96903
1.96867
1.96818
1.96757
1.96684
1.96599
1.96501
1.96392
1.9627
1.96137
1.95992
1.95835
1.95667
1.95487
1.95296
1.95094
1.94881
1.94658
1.94424
1.94179
1.93925
1.9366
1.93386
1.93103
1.9281
1.92508
1.92197
1.91879
1.91551
1.91217
1.90874
1.90524
1.90168
1.89804
1.89435
1.89059
1.88678
1.88292
1.87901
1.87505
1.87105
1.86702
1.86295
1.85885
1.85473
1.85059
1.84643
1.84225
1.83807
1.83389
1.8297
1.82552
1.82134
1.81718
1.81304
1.80892
1.80483
1.80076
1.79673
1.79274
1.78879
1.7849
1.78105
1.77726
1.77353
1.76986
1.76626
1.76274
1.75929
1.75592
1.75264
1.74944
1.74634
1.74333
1.74042
1.73761
1.7349
1.73231
1.72982
1.72745
1.72519
1.72306
1.72104
1.71915
1.71738
1.71574
1.71423
1.71286
1.71161
1.7105
1.70953
1.70869
1.70799
1.70743
1.70701
1.70672
1.70658
1.70658
1.70672
1.707
1.70741
1.70797
1.70867
1.7095
1.71047
1.71158
1.71282
1.71419
1.71569
1.71733
1.71909
1.72098
1.72299
1.72512
1.72737
1.72974
1.73222
1.73482
1.73752
1.74032
1.74323
1.74624
1.74934
1.75253
1.75581
1.75917
1.76262
1.76614
1.76973
1.77339
1.77712
1.78091
1.78475
1.78865
1.79259
1.79658
1.8006
1.80466
1.80876
1.81287
1.81701
1.82117
1.82534
1.82952
1.8337
1.83789
1.84207
1.84624
1.85039
1.85453
1.85865
1.86275
1.86681
1.87085
1.87484
1.8788
1.8827
1.88656
1.89037
1.89413
1.89782
1.90145
1.90502
1.90851
1.91193
1.91528
1.91855
1.92174
1.92484
1.92786
1.93079
1.93362
1.93636
1.93901
1.94155
1.944
1.94634
1.94857
1.9507
1.95272
1.95462
1.95642
1.9581
1.95967
1.96112
1.96245
1.96367
1.96476
1.96574
1.96659
1.96732
1.96793
1.96842
1.96878
1.96902
1.96913
1.96913
1.97074
1.97074
1.97063
1.97039
1.97002
1.96953
1.96892
1.96818
1.96732
1.96633
1.96523
1.964
1.96266
1.96119
1.95961
1.95791
1.9561
1.95417
1.95214
1.94999
1.94773
1.94537
1.9429
1.94033
1.93766
1.93489
1.93203
1.92907
1.92603
1.92289
1.91967
1.91637
1.91299
1.90953
1.90599
1.90239
1.89872
1.89499
1.89119
1.88734
1.88344
1.87948
1.87548
1.87144
1.86736
1.86325
1.85911
1.85494
1.85075
1.84654
1.84232
1.83809
1.83386
1.82962
1.82539
1.82117
1.81696
1.81276
1.80859
1.80445
1.80033
1.79625
1.79221
1.78821
1.78426
1.78037
1.77653
1.77275
1.76904
1.76539
1.76182
1.75832
1.75491
1.75158
1.74834
1.7452
1.74215
1.73919
1.73635
1.7336
1.73097
1.72845
1.72604
1.72375
1.72159
1.71954
1.71762
1.71583
1.71417
1.71264
1.71124
1.70998
1.70885
1.70786
1.70701
1.7063
1.70573
1.70531
1.70502
1.70488
1.70487
1.70501
1.7053
1.70572
1.70629
1.70699
1.70784
1.70882
1.70994
1.7112
1.71259
1.71412
1.71578
1.71757
1.71948
1.72152
1.72368
1.72597
1.72837
1.73089
1.73352
1.73625
1.7391
1.74205
1.74509
1.74824
1.75147
1.7548
1.75821
1.7617
1.76526
1.7689
1.77261
1.77639
1.78023
1.78412
1.78806
1.79206
1.7961
1.80017
1.80428
1.80843
1.81259
1.81678
1.82099
1.82521
1.82944
1.83367
1.8379
1.84213
1.84635
1.85056
1.85474
1.85891
1.86305
1.86716
1.87124
1.87527
1.87927
1.88322
1.88712
1.89097
1.89476
1.8985
1.90216
1.90577
1.9093
1.91275
1.91614
1.91944
1.92266
1.92579
1.92884
1.93179
1.93466
1.93742
1.94009
1.94266
1.94513
1.94749
1.94974
1.95189
1.95393
1.95585
1.95766
1.95936
1.96094
1.9624
1.96375
1.96497
1.96608
1.96706
1.96792
1.96866
1.96928
1.96977
1.97014
1.97038
1.97049
1.97049
1.97222
1.97222
1.97211
1.97186
1.97149
1.971
1.97037
1.96963
1.96876
1.96777
1.96665
1.96541
1.96405
1.96258
1.96098
1.95926
1.95743
1.95549
1.95343
1.95126
1.94898
1.9466
1.94411
1.94151
1.93881
1.93602
1.93313
1.93014
1.92706
1.92389
1.92064
1.9173
1.91388
1.91038
1.90681
1.90317
1.89946
1.89568
1.89185
1.88795
1.884
1.88
1.87596
1.87187
1.86774
1.86358
1.85939
1.85517
1.85093
1.84667
1.8424
1.83811
1.83383
1.82954
1.82525
1.82097
1.81671
1.81246
1.80823
1.80403
1.79986
1.79573
1.79163
1.78758
1.78358
1.77963
1.77573
1.7719
1.76814
1.76444
1.76082
1.75727
1.75381
1.75043
1.74715
1.74395
1.74086
1.73786
1.73497
1.73219
1.72951
1.72695
1.72451
1.72219
1.71999
1.71791
1.71596
1.71414
1.71245
1.7109
1.70948
1.7082
1.70705
1.70605
1.70519
1.70447
1.70389
1.70345
1.70316
1.70302
1.70301
1.70316
1.70344
1.70387
1.70445
1.70516
1.70602
1.70702
1.70816
1.70944
1.71086
1.71241
1.71409
1.7159
1.71785
1.71992
1.72212
1.72443
1.72687
1.72943
1.7321
1.73488
1.73776
1.74076
1.74385
1.74704
1.75032
1.75369
1.75715
1.76069
1.76431
1.768
1.77177
1.7756
1.77948
1.78343
1.78743
1.79148
1.79557
1.7997
1.80387
1.80807
1.81229
1.81654
1.8208
1.82507
1.82935
1.83364
1.83793
1.84221
1.84648
1.85073
1.85497
1.85919
1.86338
1.86754
1.87166
1.87575
1.87979
1.88379
1.88773
1.89162
1.89546
1.89923
1.90294
1.90658
1.91015
1.91365
1.91706
1.9204
1.92365
1.92682
1.9299
1.93289
1.93578
1.93857
1.94127
1.94386
1.94635
1.94874
1.95102
1.95318
1.95524
1.95718
1.95901
1.96073
1.96232
1.9638
1.96516
1.9664
1.96751
1.9685
1.96937
1.97012
1.97074
1.97124
1.97161
1.97185
1.97196
1.97196
1.97381
1.97381
1.9737
1.97345
1.97308
1.97258
1.97195
1.9712
1.97032
1.96932
1.96819
1.96694
1.96557
1.96407
1.96246
1.96073
1.95888
1.95691
1.95483
1.95264
1.95034
1.94793
1.94541
1.94279
1.94006
1.93723
1.93431
1.93129
1.92817
1.92497
1.92168
1.9183
1.91485
1.91131
1.9077
1.90401
1.90026
1.89644
1.89255
1.88861
1.88462
1.88057
1.87647
1.87233
1.86815
1.86394
1.85969
1.85542
1.85112
1.84681
1.84248
1.83814
1.83379
1.82945
1.8251
1.82077
1.81644
1.81213
1.80785
1.80359
1.79936
1.79516
1.79101
1.7869
1.78284
1.77883
1.77488
1.77099
1.76716
1.76341
1.75973
1.75613
1.75261
1.74919
1.74585
1.7426
1.73946
1.73642
1.73348
1.73065
1.72793
1.72533
1.72285
1.72049
1.71825
1.71614
1.71416
1.71231
1.7106
1.70901
1.70757
1.70627
1.70511
1.70408
1.70321
1.70247
1.70188
1.70144
1.70115
1.701
1.701
1.70114
1.70143
1.70187
1.70245
1.70318
1.70406
1.70507
1.70623
1.70753
1.70897
1.71055
1.71226
1.7141
1.71608
1.71818
1.72042
1.72277
1.72525
1.72785
1.73056
1.73338
1.73632
1.73936
1.7425
1.74574
1.74907
1.7525
1.75601
1.75961
1.76328
1.76703
1.77085
1.77474
1.77868
1.78269
1.78675
1.79086
1.79501
1.7992
1.80342
1.80768
1.81196
1.81627
1.82059
1.82492
1.82926
1.83361
1.83795
1.84229
1.84661
1.85093
1.85522
1.85949
1.86373
1.86795
1.87212
1.87626
1.88035
1.8844
1.88839
1.89233
1.89621
1.90003
1.90378
1.90747
1.91108
1.91461
1.91807
1.92144
1.92473
1.92794
1.93105
1.93407
1.93699
1.93982
1.94254
1.94516
1.94768
1.95009
1.95239
1.95458
1.95666
1.95863
1.96048
1.96221
1.96382
1.96531
1.96668
1.96793
1.96906
1.97006
1.97094
1.9717
1.97232
1.97282
1.9732
1.97344
1.97356
1.97356
1.97553
1.97553
1.97541
1.97516
1.97479
1.97428
1.97365
1.97288
1.972
1.97098
1.96984
1.96858
1.96719
1.96568
1.96405
1.9623
1.96043
1.95844
1.95634
1.95412
1.9518
1.94936
1.94681
1.94416
1.9414
1.93854
1.93558
1.93253
1.92938
1.92613
1.9228
1.91939
1.91589
1.91231
1.90865
1.90492
1.90112
1.89725
1.89332
1.88932
1.88528
1.88118
1.87703
1.87283
1.8686
1.86433
1.86002
1.85569
1.85134
1.84696
1.84257
1.83817
1.83376
1.82935
1.82494
1.82054
1.81616
1.81178
1.80743
1.80311
1.79882
1.79456
1.79034
1.78616
1.78204
1.77796
1.77395
1.77
1.76611
1.7623
1.75856
1.7549
1.75133
1.74784
1.74445
1.74115
1.73795
1.73486
1.73187
1.72899
1.72623
1.72358
1.72106
1.71866
1.71638
1.71423
1.71222
1.71034
1.70859
1.70698
1.70551
1.70419
1.703
1.70196
1.70107
1.70032
1.69972
1.69927
1.69897
1.69882
1.69882
1.69897
1.69926
1.69971
1.7003
1.70104
1.70193
1.70297
1.70415
1.70547
1.70693
1.70854
1.71028
1.71216
1.71417
1.71631
1.71858
1.72098
1.7235
1.72614
1.7289
1.73178
1.73476
1.73785
1.74105
1.74434
1.74773
1.75121
1.75478
1.75844
1.76217
1.76598
1.76986
1.77381
1.77782
1.78189
1.78601
1.79018
1.7944
1.79866
1.80295
1.80727
1.81161
1.81598
1.82037
1.82476
1.82917
1.83357
1.83798
1.84238
1.84677
1.85114
1.85549
1.85982
1.86412
1.86839
1.87262
1.87681
1.88096
1.88506
1.8891
1.89309
1.89702
1.90089
1.90469
1.90842
1.91207
1.91565
1.91915
1.92257
1.9259
1.92914
1.93229
1.93534
1.9383
1.94116
1.94391
1.94656
1.94911
1.95155
1.95388
1.95609
1.95819
1.96018
1.96205
1.9638
1.96543
1.96694
1.96832
1.96959
1.97073
1.97174
1.97263
1.97339
1.97402
1.97453
1.97491
1.97516
1.97527
1.97527
1.97736
1.97737
1.97725
1.977
1.97661
1.9761
1.97546
1.97469
1.97379
1.97277
1.97161
1.97034
1.96893
1.9674
1.96576
1.96398
1.96209
1.96008
1.95796
1.95571
1.95336
1.95089
1.94831
1.94563
1.94284
1.93994
1.93695
1.93385
1.93066
1.92738
1.92401
1.92055
1.917
1.91338
1.90967
1.90589
1.90204
1.89812
1.89414
1.89009
1.88599
1.88183
1.87762
1.87337
1.86908
1.86474
1.86038
1.85598
1.85157
1.84713
1.84267
1.8382
1.83373
1.82925
1.82478
1.82031
1.81585
1.81141
1.80699
1.8026
1.79824
1.79391
1.78962
1.78538
1.78118
1.77704
1.77296
1.76894
1.76499
1.76111
1.75731
1.75358
1.74995
1.7464
1.74295
1.73959
1.73633
1.73318
1.73014
1.72721
1.7244
1.72171
1.71913
1.71669
1.71437
1.71218
1.71013
1.70821
1.70643
1.70479
1.7033
1.70195
1.70074
1.69968
1.69877
1.69801
1.6974
1.69694
1.69663
1.69648
1.69648
1.69663
1.69693
1.69738
1.69799
1.69875
1.69965
1.70071
1.70191
1.70326
1.70475
1.70638
1.70816
1.71007
1.71212
1.7143
1.71662
1.71906
1.72162
1.72431
1.72712
1.73005
1.73309
1.73623
1.73948
1.74284
1.74629
1.74983
1.75346
1.75718
1.76098
1.76486
1.7688
1.77282
1.7769
1.78103
1.78522
1.78946
1.79375
1.79807
1.80243
1.80682
1.81124
1.81568
1.82013
1.82459
1.82907
1.83354
1.83801
1.84248
1.84693
1.85137
1.85578
1.86017
1.86454
1.86887
1.87316
1.87741
1.88161
1.88577
1.88987
1.89391
1.8979
1.90181
1.90566
1.90944
1.91314
1.91677
1.92031
1.92377
1.92714
1.93042
1.93361
1.9367
1.9397
1.94259
1.94538
1.94806
1.95064
1.95311
1.95546
1.95771
1.95983
1.96184
1.96373
1.9655
1.96715
1.96868
1.97008
1.97136
1.97251
1.97354
1.97443
1.9752
1.97584
1.97636
1.97674
1.97699
1.97711
1.97711
1.97932
1.97933
1.97921
1.97895
1.97856
1.97805
1.9774
1.97662
1.97571
1.97467
1.9735
1.97221
1.97079
1.96924
1.96757
1.96578
1.96387
1.96183
1.95968
1.95741
1.95502
1.95253
1.94992
1.9472
1.94437
1.94144
1.9384
1.93527
1.93204
1.92871
1.9253
1.92179
1.9182
1.91452
1.91077
1.90693
1.90303
1.89905
1.89501
1.89091
1.88675
1.88253
1.87826
1.87395
1.86959
1.86519
1.86076
1.8563
1.85181
1.8473
1.84278
1.83824
1.83369
1.82915
1.8246
1.82006
1.81553
1.81101
1.80652
1.80205
1.79762
1.79322
1.78885
1.78454
1.78027
1.77606
1.7719
1.76781
1.76379
1.75984
1.75597
1.75218
1.74847
1.74486
1.74134
1.73792
1.7346
1.73139
1.7283
1.72531
1.72244
1.7197
1.71707
1.71458
1.71222
1.70999
1.70789
1.70594
1.70412
1.70245
1.70093