/*--------------------------------*- C++ -*----------------------------------*\
| =========                 |                                                 |
| \\      /  F ield         | OpenFOAM: The Open Source CFD Toolbox           |
|  \\    /   O peration     | Version:  2412                                  |
|   \\  /    A nd           | Website:  www.openfoam.com                      |
|    \\/     M anipulation  |                                                 |
\*---------------------------------------------------------------------------*/
FoamFile
{
    version     2.0;
    format      ascii;
    arch        "LSB;label=32;scalar=64";
    class       volScalarField;
    location    "1.16";
    object      alpha.water;
}
// * * * * * * * * * * * * * * * * * * * * * * * * * * * * * * * * * * * * * //

dimensions      [0 0 0 0 0 0 0];

internalField   nonuniform List<scalar> 
40000
(
5.87504e-189
7.78597e-180
5.33969e-179
6.53242e-179
6.51623e-179
6.14868e-179
5.61104e-179
4.98945e-179
4.33518e-179
3.6843e-179
3.0621e-179
2.48694e-179
1.97203e-179
1.52504e-179
1.14885e-179
8.4198e-180
5.9953e-180
4.14238e-180
2.77411e-180
1.79835e-180
1.12708e-180
6.82063e-181
3.97942e-181
2.23327e-181
1.20109e-181
6.15543e-182
2.98522e-182
1.35761e-182
5.73935e-183
2.24061e-183
8.05169e-184
2.66548e-184
8.17202e-185
2.33151e-185
6.15187e-186
1.46616e-186
3.07168e-187
5.57816e-188
8.81249e-189
1.22387e-189
1.48709e-190
1.55227e-191
1.37293e-192
1.0247e-193
6.45169e-195
3.42763e-196
1.53772e-197
5.83304e-199
1.87346e-200
5.09598e-202
1.17051e-203
2.24768e-205
3.5128e-207
4.14257e-209
4.68494e-211
5.22537e-213
5.7446e-215
6.22138e-217
6.63358e-219
6.95951e-221
7.1795e-223
7.27752e-225
7.2429e-227
7.07167e-229
6.76751e-231
6.34199e-233
5.81406e-235
5.20873e-237
4.55511e-239
3.88389e-241
3.22472e-243
2.60373e-245
2.04157e-247
1.55219e-249
1.14244e-251
8.12614e-254
5.57562e-256
3.68293e-258
2.33695e-260
1.42117e-262
8.26185e-265
4.57863e-267
2.41152e-269
1.20302e-271
5.66302e-274
2.50487e-276
1.03613e-278
3.98641e-281
1.41765e-283
4.62603e-286
1.37327e-288
3.67026e-291
8.71954e-294
1.81199e-296
3.22535e-299
4.77933e-302
5.65766e-305
5.01406e-308
2.95584e-311
8.6942e-315
1.21357e-314
4.08898e-311
6.87628e-308
7.69565e-305
6.4501e-302
4.32003e-299
2.40924e-296
1.15115e-293
4.81211e-291
1.78848e-288
5.98568e-286
1.82278e-283
5.09436e-281
1.31628e-278
3.16391e-276
7.11338e-274
1.50304e-271
2.99738e-269
5.66265e-267
1.01689e-264
1.74116e-262
2.85045e-260
4.47309e-258
6.74424e-256
9.79093e-254
1.37134e-251
1.85649e-249
2.43343e-247
3.09325e-245
3.81885e-243
4.58544e-241
5.36209e-239
6.11408e-237
6.80583e-235
7.40396e-233
7.88013e-231
8.21332e-229
8.39121e-227
8.41071e-225
8.27754e-223
8.00506e-221
7.61262e-219
7.12353e-217
6.56316e-215
5.95711e-213
5.32967e-211
4.70268e-209
3.98463e-207
2.54261e-205
1.31863e-203
5.71007e-202
2.08563e-200
6.44495e-199
1.68484e-197
3.72212e-196
6.94211e-195
1.09268e-193
1.45137e-192
1.62759e-191
1.54769e-190
1.26579e-189
9.0665e-189
5.71066e-188
3.12948e-187
1.4874e-186
6.22003e-186
2.35117e-185
8.22453e-185
2.67782e-184
8.07559e-184
2.24391e-183
5.74042e-183
1.35636e-182
2.97959e-182
6.13834e-182
1.19672e-181
2.2235e-181
3.9599e-181
6.78493e-181
1.12102e-180
1.78862e-180
2.75919e-180
4.12009e-180
5.96291e-180
8.37362e-180
1.14247e-179
1.51665e-179
1.9615e-179
2.4746e-179
3.04877e-179
3.67168e-179
4.32656e-179
4.99242e-179
5.64591e-179
6.26187e-179
6.80285e-179
7.10916e-179
6.02038e-179
8.13359e-180
4.09906e-189
2.18508e-185
1.9725e-176
1.25415e-175
1.47971e-175
1.45137e-175
1.36381e-175
1.24795e-175
1.1159e-175
9.76334e-176
8.36122e-176
7.00662e-176
5.74143e-176
4.59661e-176
3.59174e-176
2.73614e-176
2.0296e-176
1.46407e-176
1.02583e-176
6.97408e-177
4.59468e-177
2.93003e-177
1.80642e-177
1.07516e-177
6.16394e-178
3.3914e-178
1.78066e-178
8.86067e-179
4.141e-179
1.80201e-179
7.25452e-180
2.69359e-180
9.23319e-181
2.93843e-181
8.7267e-182
2.40362e-182
5.99386e-183
1.31673e-183
2.51327e-184
4.1865e-185
6.1555e-186
7.94887e-187
8.84448e-188
8.36304e-189
6.69764e-190
4.54493e-191
2.61594e-192
1.27953e-193
5.33601e-195
1.90589e-196
5.86126e-198
1.56048e-199
3.61437e-201
7.30932e-203
1.29197e-204
2.19371e-206
3.66145e-208
6.00528e-210
9.67522e-212
1.53058e-213
2.37636e-215
3.61911e-217
5.40339e-219
7.90362e-221
1.13181e-222
1.58552e-224
2.17102e-226
2.90309e-228
3.78743e-230
4.81581e-232
5.96151e-234
7.17619e-236
8.38944e-238
9.5123e-240
1.04453e-241
1.10907e-243
1.13678e-245
1.12275e-247
1.06642e-249
9.72069e-252
8.48366e-254
7.07126e-256
5.61359e-258
4.23153e-260
3.01861e-262
2.03023e-264
1.28201e-266
7.56453e-269
4.14832e-271
2.10112e-273
9.75802e-276
4.11968e-278
1.56478e-280
5.27957e-283
1.5571e-285
3.93107e-288
8.25661e-291
1.38458e-293
1.73734e-296
1.4495e-299
6.02985e-303
7.82817e-303
1.87536e-299
2.23904e-296
1.77731e-293
1.05563e-290
5.006e-288
1.97508e-285
6.67073e-283
1.96952e-280
5.16567e-278
1.21901e-275
2.61524e-273
5.14486e-271
9.34882e-269
1.57895e-266
2.49207e-264
3.69311e-262
5.16042e-260
6.82442e-258
8.57022e-256
1.02514e-253
1.17121e-251
1.28126e-249
1.34523e-247
1.3584e-245
1.32185e-243
1.24178e-241
1.12808e-239
9.92538e-238
8.47021e-236
7.02048e-234
5.65864e-232
4.44059e-230
3.39648e-228
2.53467e-226
1.84727e-224
1.31597e-222
9.17113e-221
6.25743e-219
4.18284e-217
2.74113e-215
1.76209e-213
1.11172e-211
6.88706e-210
4.19108e-208
2.50627e-206
1.47323e-204
8.3203e-203
4.10236e-201
1.76392e-199
6.59024e-198
2.129e-196
5.91528e-195
1.40632e-193
2.84878e-192
4.90278e-191
7.15769e-190
8.8578e-189
9.28891e-188
8.28426e-187
6.37389e-186
4.31176e-185
2.57553e-184
1.34279e-183
6.08649e-183
2.43262e-182
8.8091e-182
2.9604e-181
9.28598e-181
2.70454e-180
7.27299e-180
1.80423e-179
4.14157e-179
8.85396e-179
1.77797e-178
3.38405e-178
6.14716e-178
1.07181e-177
1.80036e-177
2.91992e-177
4.57884e-177
6.95069e-177
1.02255e-176
1.45966e-176
2.02396e-176
2.72941e-176
3.58467e-176
4.59073e-176
5.7397e-176
7.01396e-176
8.38546e-176
9.81736e-176
1.12653e-175
1.26799e-175
1.40102e-175
1.5181e-175
1.58568e-175
1.3521e-175
1.92822e-176
1.54586e-185
2.99192e-182
1.82155e-173
1.1137e-172
1.29147e-172
1.25387e-172
1.17444e-172
1.0761e-172
9.65999e-173
8.49809e-173
7.32534e-173
6.18425e-173
5.10959e-173
4.12815e-173
3.25794e-173
2.50886e-173
1.88297e-173
1.37563e-173
9.77129e-174
6.7414e-174
4.51211e-174
2.92652e-174
1.83729e-174
1.11497e-174
6.52616e-175
3.67092e-175
1.97318e-175
1.00659e-175
4.82965e-176
2.16108e-176
8.96107e-177
3.43332e-177
1.21683e-177
4.01343e-178
1.23859e-178
3.55377e-179
9.24609e-180
2.12152e-180
4.23536e-181
7.39754e-182
1.14463e-182
1.55949e-183
1.83149e-184
1.82748e-185
1.54497e-186
1.10719e-187
6.72982e-189
3.47454e-190
1.52855e-191
5.75753e-193
1.86799e-194
5.25533e-196
1.29099e-197
2.7882e-199
5.32853e-201
9.74875e-203
1.75057e-204
3.08466e-206
5.33236e-208
9.04014e-210
1.50246e-211
2.44684e-213
3.90262e-215
6.09256e-217
9.30366e-219
1.3887e-220
2.02452e-222
2.88025e-224
3.99515e-226
5.39761e-228
7.09531e-230
9.06453e-232
1.12406e-233
1.35121e-235
1.57229e-237
1.76827e-239
1.91889e-241
2.00568e-243
2.01532e-245
1.94259e-247
1.79218e-249
1.57855e-251
1.3238e-253
1.05381e-255
7.93634e-258
5.63355e-260
3.75343e-262
2.33617e-264
1.35103e-266
7.2145e-269
3.53161e-271
1.5712e-273
6.28752e-276
2.23454e-278
6.94037e-281
1.84488e-283
4.07917e-286
7.19993e-289
9.50782e-292
8.34789e-295
3.6553e-298
4.70064e-298
1.0722e-294
1.2181e-291
9.1973e-289
5.19471e-286
2.34197e-283
8.7822e-281
2.81847e-278
7.90517e-276
1.96915e-273
4.41215e-271
8.98517e-269
1.67743e-266
2.89177e-264
4.63221e-262
6.93207e-260
9.73744e-258
1.28929e-255
1.61512e-253
1.92068e-251
2.17479e-249
2.35115e-247
2.43295e-245
2.41527e-243
2.30511e-241
2.11911e-239
1.87986e-237
1.61186e-235
1.3379e-233
1.07655e-231
8.40872e-230
6.38336e-228
4.71506e-226
3.39237e-224
2.37973e-222
1.62912e-220
1.08931e-218
7.11956e-217
4.55169e-215
2.84832e-213
1.74565e-211
1.04834e-209
6.17198e-208
3.56361e-206
2.01854e-204
1.12197e-202
6.12072e-201
3.19653e-199
1.47547e-197
5.98004e-196
2.11351e-194
6.46873e-193
1.7033e-191
3.83625e-190
7.35729e-189
1.19822e-187
1.65545e-186
1.93978e-185
1.92686e-184
1.6275e-183
1.18655e-182
7.62625e-182
4.34415e-181
2.16526e-180
9.39608e-180
3.59927e-179
1.25118e-178
4.04639e-178
1.22471e-177
3.44985e-177
8.99054e-177
2.16534e-176
4.83392e-176
1.00662e-175
1.9719e-175
3.66648e-175
6.51525e-175
1.11275e-174
1.8333e-174
2.91995e-174
4.50209e-174
6.72725e-174
9.7529e-174
1.37345e-173
1.88072e-173
2.50713e-173
3.25792e-173
4.13185e-173
5.12023e-173
6.20675e-173
7.3671e-173
8.57013e-173
9.77947e-173
1.09553e-172
1.20569e-172
1.30244e-172
1.35818e-172
1.16268e-172
1.73652e-173
2.22357e-182
2.40501e-179
9.63647e-171
5.72123e-170
6.58486e-170
6.36209e-170
5.95134e-170
5.46134e-170
4.92005e-170
4.34999e-170
3.77274e-170
3.20778e-170
2.67174e-170
2.17794e-170
1.73583e-170
1.35118e-170
1.02603e-170
7.59129e-171
5.46635e-171
3.8272e-171
2.60233e-171
1.71662e-171
1.09736e-171
6.78935e-172
4.05677e-172
2.33259e-172
1.28339e-172
6.71116e-173
3.30565e-173
1.52098e-173
6.49674e-174
2.56891e-174
9.41508e-175
3.21852e-175
1.03212e-175
3.08442e-176
8.3709e-177
2.00568e-177
4.1871e-178
7.66686e-179
1.24826e-179
1.79369e-180
2.22159e-181
2.33625e-182
2.08164e-183
1.57217e-184
1.00618e-185
5.46005e-187
2.51878e-188
9.9224e-190
3.35768e-191
9.82635e-193
2.50494e-194
5.60296e-196
1.10757e-197
2.08686e-199
3.85536e-201
6.98274e-203
1.23963e-204
2.15648e-206
3.67484e-208
6.13192e-210
1.00141e-211
1.59972e-213
2.49823e-215
3.81134e-217
5.6762e-219
8.24547e-221
1.16726e-222
1.60876e-224
2.15644e-226
2.80812e-228
3.54816e-230
4.34439e-232
5.14734e-234
5.89257e-236
6.50701e-238
6.91901e-240
7.07059e-242
6.92963e-244
6.49858e-246
5.81702e-248
4.95645e-250
4.00793e-252
3.0655e-254
2.20952e-256
1.4945e-258
9.44157e-261
5.54116e-263
3.00237e-265
1.49102e-267
6.72859e-270
2.73081e-272
9.84142e-275
3.09919e-277
8.35167e-280
1.87181e-282
3.34853e-285
4.48122e-288
3.98702e-291
1.76912e-294
2.29163e-294
5.16151e-291
5.78868e-288
4.31397e-285
2.40454e-282
1.06965e-279
3.95721e-277
1.25274e-274
3.46541e-272
8.51235e-270
1.88053e-267
3.77522e-265
6.94661e-263
1.18012e-260
1.86254e-258
2.7457e-256
3.79857e-254
4.95248e-252
6.10768e-250
7.14876e-248
7.96517e-246
8.47139e-244
8.62166e-242
8.41572e-240
7.89522e-238
7.13252e-236
6.21583e-234
5.23412e-232
4.26516e-230
3.3681e-228
2.58084e-226
1.92125e-224
1.39106e-222
9.806e-221
6.73662e-219
4.5142e-217
2.95297e-215
1.88713e-213
1.17897e-211
7.20486e-210
4.3093e-208
2.52378e-206
1.44789e-204
8.13965e-203
4.48513e-201
2.42285e-199
1.28324e-197
6.47771e-196
2.88608e-194
1.1267e-192
3.82586e-191
1.12192e-189
2.82249e-188
6.05729e-187
1.10434e-185
1.70683e-184
2.2361e-183
2.48473e-182
2.34092e-181
1.87409e-180
1.29515e-179
7.91016e-179
4.29775e-178
2.04833e-177
8.51152e-177
3.12554e-176
1.04312e-175
3.24657e-175
9.48077e-175
2.5826e-174
6.52145e-174
1.52476e-173
3.31027e-173
6.71493e-173
1.28329e-172
2.33118e-172
4.05264e-172
6.78052e-172
1.09576e-171
1.714e-171
2.59844e-171
3.82196e-171
5.46016e-171
7.58527e-171
1.02566e-170
1.35146e-170
1.73747e-170
2.18203e-170
2.67994e-170
3.22245e-170
3.79725e-170
4.38906e-170
4.98033e-170
5.55227e-170
6.08581e-170
6.55294e-170
6.81993e-170
5.85625e-170
9.13446e-171
1.8731e-179
1.34555e-176
3.46987e-168
2.00147e-167
2.29665e-167
2.21575e-167
2.07345e-167
1.9069e-167
1.72434e-167
1.53218e-167
1.33696e-167
1.14481e-167
9.61177e-168
7.9057e-168
6.36344e-168
5.00721e-168
3.8473e-168
2.88303e-168
2.10477e-168
1.4956e-168
1.0332e-168
6.93208e-169
4.51237e-169
2.84627e-169
1.73613e-169
1.0204e-169
5.74673e-170
3.08059e-170
1.55795e-170
7.37333e-171
3.24572e-171
1.32525e-171
5.02525e-172
1.78125e-172
5.9372e-173
1.84845e-173
5.23443e-174
1.3104e-174
2.86294e-175
5.50088e-176
9.43347e-177
1.43109e-177
1.87112e-178
2.07606e-179
1.95237e-180
1.55655e-181
1.05064e-182
6.00173e-184
2.9072e-185
1.19904e-186
4.23466e-188
1.28917e-189
3.40736e-191
7.87634e-193
1.60397e-194
3.09988e-196
5.86843e-198
1.08818e-199
1.97614e-201
3.51388e-203
6.11616e-205
1.04169e-206
1.73531e-208
2.82602e-210
4.49658e-212
6.9858e-214
1.05893e-215
1.56492e-217
2.25278e-219
3.15601e-221
4.2984e-223
5.6852e-225
7.29356e-227
9.06414e-229
1.08969e-230
1.26537e-232
1.41698e-234
1.52749e-236
1.58208e-238
1.57114e-240
1.49263e-242
1.35322e-244
1.16755e-246
9.55825e-249
7.3999e-251
5.39769e-253
3.69414e-255
2.36098e-257
1.40155e-259
7.68007e-262
3.85664e-264
1.75959e-266
7.21902e-269
2.62957e-271
8.36869e-274
2.27882e-276
5.16026e-279
9.32578e-282
1.26067e-284
1.13287e-287
5.07667e-291
6.65794e-291
1.485e-287
1.64899e-284
1.21661e-281
6.71256e-279
2.95545e-276
1.08204e-273
3.38945e-271
9.27637e-269
2.25407e-266
4.92526e-264
9.77817e-262
1.77904e-259
2.98791e-257
4.66122e-255
6.79085e-253
9.28301e-251
1.19566e-248
1.45642e-246
1.68337e-244
1.85177e-242
1.94397e-240
1.95239e-238
1.88018e-236
1.73976e-234
1.54976e-232
1.33135e-230
1.10478e-228
8.86889e-227
6.89721e-225
5.20292e-223
3.8116e-221
2.71476e-219
1.88174e-217
1.27056e-215
8.36405e-214
5.37229e-212
3.36926e-210
2.06453e-208
1.23671e-206
7.24588e-205
4.15412e-203
2.33125e-201
1.28097e-199
6.89325e-198
3.63325e-196
1.87576e-194
9.1887e-193
3.95987e-191
1.49019e-189
4.86102e-188
1.36474e-186
3.27643e-185
6.69026e-184
1.15764e-182
1.69503e-181
2.10215e-180
2.212e-179
1.97435e-178
1.49674e-177
9.79526e-177
5.67913e-176
2.94031e-175
1.33893e-174
5.32464e-174
1.87382e-173
6.00261e-173
1.7974e-172
5.0621e-172
1.33279e-171
3.25925e-171
7.39432e-171
1.5607e-170
3.08345e-170
5.74846e-170
1.02018e-169
1.73507e-169
2.84377e-169
4.50771e-169
6.92442e-169
1.03209e-168
1.49417e-168
2.10324e-168
2.88192e-168
3.84748e-168
5.01022e-168
6.37179e-168
7.92304e-168
9.64337e-168
1.15011e-167
1.34536e-167
1.54496e-167
1.74314e-167
1.93382e-167
2.11091e-167
2.26542e-167
2.35276e-167
2.02572e-167
3.29478e-168
1.08775e-176
5.67771e-174
9.25108e-166
5.17655e-165
5.93181e-165
5.72552e-165
5.36628e-165
4.94936e-165
4.49376e-165
4.01366e-165
3.52396e-165
3.03914e-165
2.57241e-165
2.13504e-165
1.73579e-165
1.38088e-165
1.07372e-165
8.15056e-166
6.03369e-166
4.35192e-166
3.05488e-166
2.08487e-166
1.38201e-166
8.88766e-167
5.53408e-167
3.32477e-167
1.9167e-167
1.05338e-167
5.47096e-168
2.66437e-168
1.20941e-168
5.10263e-169
2.00324e-169
7.36652e-170
2.553e-170
8.28271e-171
2.44834e-171
6.40889e-172
1.46697e-172
2.96123e-173
5.35522e-174
8.58692e-175
1.1867e-175
1.39134e-176
1.3837e-177
1.16717e-178
8.329e-180
5.02106e-181
2.56035e-182
1.10844e-183
4.09621e-185
1.30051e-186
3.57249e-188
8.55323e-190
1.79791e-191
3.57049e-193
6.93849e-195
1.31943e-196
2.45504e-198
4.46911e-200
7.9574e-202
1.3854e-203
2.35756e-205
3.91952e-207
6.3629e-209
1.008e-210
1.55725e-212
2.34432e-214
3.43617e-216
4.8993e-218
6.78837e-220
9.13062e-222
1.19077e-223
1.50384e-225
1.83663e-227
2.16594e-229
2.46248e-231
2.6943e-233
2.83165e-235
2.85273e-237
2.74872e-239
2.52683e-241
2.21015e-243
1.83387e-245
1.43872e-247
1.06324e-249
7.37112e-252
4.77127e-254
2.86812e-256
1.59121e-258
8.08873e-261
3.7353e-263
1.55086e-265
5.71604e-268
1.84046e-270
5.06967e-273
1.16115e-275
2.12222e-278
2.90098e-281
2.63578e-284
1.19412e-287
1.5891e-287
3.50576e-284
3.85007e-281
2.80895e-278
1.53238e-275
6.67017e-273
2.41398e-270
7.47375e-268
2.02138e-265
4.85327e-263
1.04768e-260
2.05459e-258
3.69192e-256
6.12294e-254
9.43073e-252
1.35626e-249
1.8298e-247
2.32558e-245
2.79469e-243
3.18608e-241
3.45618e-239
3.57712e-237
3.54108e-235
3.36034e-233
3.06317e-231
2.68735e-229
2.27299e-227
1.85649e-225
1.4664e-223
1.12168e-221
8.31953e-220
5.99023e-218
4.19153e-216
2.85308e-214
1.89088e-212
1.22119e-210
7.69118e-209
4.72708e-207
2.8369e-205
1.66332e-203
9.53212e-202
5.34134e-200
2.92746e-198
1.56968e-196
8.23512e-195
4.22761e-193
2.12361e-191
1.00751e-189
4.19007e-188
1.5162e-186
4.73876e-185
1.27031e-183
2.90251e-182
5.62429e-181
9.21278e-180
1.2748e-178
1.49317e-177
1.48494e-176
1.25376e-175
8.9888e-175
5.5642e-174
3.05882e-173
1.50733e-172
6.55101e-172
2.49136e-171
8.39881e-171
2.58178e-170
7.43515e-170
2.01843e-169
5.13297e-169
1.21476e-168
2.67263e-168
5.48199e-168
1.05463e-167
1.91777e-167
3.32494e-167
5.53217e-167
8.88218e-167
1.38093e-166
2.08307e-166
3.05226e-166
4.34866e-166
6.03047e-166
8.14881e-166
1.07393e-165
1.38185e-165
1.73814e-165
2.13961e-165
2.58039e-165
3.05206e-165
3.54374e-165
4.04274e-165
4.53502e-165
5.00608e-165
5.44166e-165
5.82026e-165
6.03151e-165
5.20553e-165
8.81893e-166
4.72362e-174
1.89023e-171
1.91382e-163
1.03746e-162
1.18788e-162
1.14828e-162
1.0788e-162
9.98355e-163
9.1045e-163
8.17572e-163
7.22395e-163
6.27577e-163
5.35599e-163
4.48644e-163
3.68474e-163
2.96413e-163
2.33288e-163
1.79422e-163
1.34708e-163
9.86408e-164
7.03683e-164
4.88561e-164
3.29816e-164
2.16255e-164
1.3746e-164
8.44144e-165
4.98152e-165
2.8071e-165
1.49766e-165
7.50904e-166
3.51732e-166
1.53472e-166
6.24289e-167
2.38303e-167
8.58989e-168
2.90475e-168
8.96681e-169
2.45653e-169
5.89845e-170
1.25252e-170
2.39154e-171
4.05801e-172
5.93585e-173
7.36645e-174
7.76373e-175
6.9456e-176
5.25341e-177
3.35099e-178
1.80378e-179
8.22043e-181
3.18802e-182
1.05871e-183
3.0316e-185
7.53963e-187
1.64054e-188
3.35622e-190
6.71117e-192
1.31182e-193
2.50658e-195
4.68151e-197
8.54505e-199
1.5239e-200
2.6544e-202
4.51403e-204
7.49095e-206
1.21237e-207
1.91242e-209
2.93807e-211
4.39267e-213
6.38553e-215
9.01672e-217
1.23545e-218
1.6407e-220
2.10921e-222
2.62126e-224
3.14456e-226
3.63564e-228
4.04408e-230
4.31979e-232
4.42198e-234
4.32823e-236
4.04089e-238
3.58878e-240
3.02289e-242
2.40696e-244
1.80501e-246
1.26955e-248
8.33573e-251
5.08186e-253
2.85889e-255
1.4734e-257
6.89718e-260
2.9024e-262
1.08407e-264
3.53673e-267
9.86981e-270
2.28987e-272
4.23891e-275
5.86801e-278
5.39865e-281
2.47627e-284
3.35016e-284
7.29931e-281
7.91594e-278
5.70241e-275
3.0712e-272
1.31962e-269
4.71364e-267
1.44017e-264
3.84337e-262
9.10387e-260
1.93857e-257
3.74946e-255
6.64381e-253
1.08636e-250
1.64941e-248
2.33786e-246
3.10802e-244
3.89163e-242
4.60644e-240
5.17156e-238
5.52327e-236
5.62681e-234
5.48132e-232
5.11726e-230
4.58784e-228
3.95745e-226
3.2901e-224
2.64047e-222
2.04864e-220
1.53869e-218
1.12015e-216
7.913e-215
5.42999e-213
3.623e-211
2.3525e-209
1.48775e-207
9.17025e-206
5.51264e-204
3.23378e-202
1.85202e-200
1.03596e-198
5.66166e-197
3.02383e-195
1.57853e-193
8.05496e-192
4.01771e-190
1.95862e-188
8.97364e-187
3.59075e-185
1.24557e-183
3.71843e-182
9.48849e-181
2.05723e-179
3.77214e-178
5.83343e-177
7.60828e-176
8.39592e-175
7.87446e-174
6.27857e-173
4.2513e-172
2.48626e-171
1.29439e-170
6.06308e-170
2.51179e-169
9.12675e-169
2.94614e-168
8.68834e-168
2.40565e-167
6.29134e-167
1.54412e-166
3.53352e-166
7.5337e-166
1.50095e-165
2.81094e-165
4.98518e-165
8.44331e-165
1.37435e-164
2.16155e-164
3.29605e-164
4.882e-164
7.03153e-164
9.85752e-164
1.34644e-163
1.79388e-163
2.3333e-163
2.96602e-163
3.68919e-163
4.49494e-163
5.37049e-163
6.29876e-163
7.25837e-163
8.22502e-163
9.17247e-163
1.0074e-162
1.0904e-162
1.16226e-162
1.20172e-162
1.03936e-162
1.83233e-163
1.60793e-171
5.10536e-169
3.16004e-161
1.65813e-160
1.89756e-160
1.83803e-160
1.73183e-160
1.60873e-160
1.47398e-160
1.33108e-160
1.18386e-160
1.03621e-160
8.91839e-161
7.54106e-161
6.25809e-161
5.09172e-161
4.05712e-161
3.16221e-161
2.40841e-161
1.79082e-161
1.29855e-161
9.17306e-162
6.30699e-162
4.21644e-162
2.73591e-162
1.71735e-162
1.03745e-162
5.99493e-163
3.28666e-163
1.69759e-163
8.21265e-164
3.70961e-164
1.56493e-164
6.20476e-165
2.32694e-165
8.20337e-166
2.64581e-166
7.59418e-167
1.91564e-167
4.28519e-168
8.64881e-169
1.55478e-169
2.41071e-170
3.17245e-171
3.55121e-172
3.37792e-173
2.71513e-174
1.83753e-175
1.04711e-176
5.03851e-178
2.05698e-179
7.16771e-181
2.14626e-182
5.56213e-184
1.25665e-185
2.6554e-187
5.47755e-189
1.10325e-190
2.16987e-192
4.16739e-194
7.81491e-196
1.43064e-197
2.55603e-199
4.45523e-201
7.57274e-203
1.25454e-204
2.02445e-206
3.17994e-208
4.85837e-210
7.21361e-212
1.03991e-213
1.45405e-215
1.96976e-217
2.58207e-219
3.27086e-221
3.99826e-223
4.70879e-225
5.33377e-227
5.80012e-229
6.04271e-231
6.01802e-233
5.71533e-235
5.16212e-237
4.42104e-239
3.57847e-241
2.72738e-243
1.94926e-245
1.30027e-247
8.05201e-250
4.60039e-252
2.40748e-254
1.14415e-256
4.88736e-259
1.85273e-261
6.13383e-264
1.7368e-266
4.08794e-269
7.67607e-272
1.07773e-274
1.0055e-277
4.67641e-281
6.44531e-281
1.38479e-277
1.48073e-274
1.0516e-271
5.5829e-269
2.36429e-266
8.32244e-264
2.50546e-261
6.58721e-259
1.53697e-256
3.2233e-254
6.13903e-252
1.07099e-249
1.72386e-247
2.57596e-245
3.59277e-243
4.69904e-241
5.78735e-239
6.73661e-237
7.43581e-235
7.80602e-233
7.81471e-231
7.47892e-229
6.85762e-227
6.03671e-225
5.11127e-223
4.16968e-221
3.2825e-219
2.49724e-217
1.83844e-215
1.3113e-213
9.07195e-212
6.09386e-210
3.97815e-208
2.52601e-206
1.56129e-204
9.39984e-203
5.51578e-201
3.15622e-199
1.76194e-197
9.5991e-196
5.10512e-194
2.65091e-192
1.34411e-190
6.65467e-189
3.21675e-187
1.51781e-185
6.69444e-184
2.56907e-182
8.51499e-181
2.4201e-179
5.85947e-178
1.20174e-176
2.07893e-175
3.02673e-174
3.711e-173
3.84841e-172
3.39635e-171
2.55268e-170
1.63002e-169
8.99585e-169
4.43011e-168
1.96972e-167
7.76687e-167
2.69355e-166
8.3218e-166
2.35394e-165
6.26444e-165
1.57726e-164
3.73275e-164
8.25144e-164
1.70338e-163
3.29429e-163
6.00387e-163
1.03833e-162
1.71791e-162
2.73566e-162
4.21483e-162
6.30337e-162
9.16669e-162
1.2976e-161
1.78962e-161
2.40719e-161
3.1614e-161
4.05741e-161
5.09408e-161
6.26408e-161
7.55265e-161
8.93815e-161
1.03931e-160
1.18845e-160
1.33753e-160
1.48268e-160
1.62002e-160
1.7459e-160
1.85444e-160
1.9129e-160
1.65748e-160
3.03796e-161
4.4201e-169
1.13924e-166
4.23744e-159
2.15134e-158
2.4613e-158
2.38974e-158
2.25894e-158
2.10691e-158
1.94e-158
1.7622e-158
1.57794e-158
1.39183e-158
1.20834e-158
1.03162e-158
8.65257e-159
7.12218e-159
5.74705e-159
4.54074e-159
3.5092e-159
2.6503e-159
1.95381e-159
1.40452e-159
9.83634e-160
6.70506e-160
4.44119e-160
2.84943e-160
1.76211e-160
1.04433e-160
5.88554e-161
3.13393e-161
1.56751e-161
7.3382e-162
3.21381e-162
1.32446e-162
5.16919e-163
1.90016e-163
6.4065e-164
1.92901e-164
5.12074e-165
1.20854e-165
2.58127e-166
4.9218e-167
8.10228e-168
1.13292e-168
1.3501e-169
1.36896e-170
1.17248e-171
8.44263e-173
5.10827e-174
2.60342e-175
1.1225e-176
4.11786e-178
1.29369e-179
3.50516e-181
8.24969e-183
1.80547e-184
3.85204e-186
8.01451e-188
1.62643e-189
3.21959e-191
6.21682e-193
1.17081e-194
2.15012e-196
3.84919e-198
6.71481e-200
1.14091e-201
1.88704e-203
3.0363e-205
4.74926e-207
7.21556e-209
1.06386e-210
1.52069e-212
2.10504e-214
2.81853e-216
3.64553e-218
4.54839e-220
5.4656e-222
6.31487e-224
7.00224e-226
7.43667e-228
7.54793e-230
7.3035e-232
6.71934e-234
5.86044e-236
4.82962e-238
3.74695e-240
2.72541e-242
1.84985e-244
1.16539e-246
6.77241e-249
3.60427e-251
1.7417e-253
7.56356e-256
2.91446e-258
9.80631e-261
2.82155e-263
6.74747e-266
1.28711e-268
1.83553e-271
1.7392e-274
8.2137e-278
1.156e-277
2.44552e-274
2.57442e-271
1.79975e-268
9.40419e-266
3.91924e-263
1.35746e-260
4.02048e-258
1.03977e-255
2.38605e-253
4.92067e-251
9.21419e-249
1.58016e-246
2.49976e-244
3.67057e-242
5.02961e-240
6.46155e-238
7.81513e-236
8.9316e-234
9.67708e-232
9.96935e-230
9.79168e-228
9.19117e-226
8.26356e-224
7.13054e-222
5.91615e-220
4.72773e-218
3.64448e-216
2.71398e-214
1.95494e-212
1.36374e-210
9.22314e-209
6.05347e-207
3.85922e-205
2.39174e-203
1.44199e-201
8.46297e-200
4.83762e-198
2.6946e-196
1.4631e-194
7.74638e-193
3.99998e-191
2.01464e-189
9.8974e-188
4.74226e-186
2.21564e-184
1.00906e-182
4.27015e-181
1.56626e-179
4.943e-178
1.33288e-176
3.05157e-175
5.90083e-174
9.60124e-173
1.31223e-171
1.50834e-170
1.46609e-169
1.21464e-168
8.5882e-168
5.16341e-167
2.68608e-166
1.24982e-165
5.26653e-165
1.97321e-164
6.52309e-164
1.92788e-163
5.22972e-163
1.33731e-162
3.23933e-162
7.38441e-162
1.57502e-161
3.14484e-161
5.89967e-161
1.04597e-160
1.76373e-160
2.85051e-160
4.44096e-160
6.70265e-160
9.83076e-160
1.40352e-159
1.95231e-159
2.64836e-159
3.5071e-159
4.539e-159
5.74644e-159
7.12382e-159
8.65814e-159
1.03279e-158
1.21038e-158
1.39506e-158
1.5827e-158
1.76882e-158
1.94879e-158
2.1181e-158
2.2726e-158
2.40524e-158
2.47497e-158
2.1476e-158
4.08896e-159
1.00061e-166
2.12554e-164
4.66105e-157
2.2895e-156
2.61955e-156
2.55003e-156
2.41883e-156
2.26572e-156
2.09703e-156
1.91643e-156
1.72809e-156
1.53642e-156
1.34582e-156
1.16043e-156
9.83971e-157
8.19649e-157
6.70004e-157
5.36797e-157
4.21091e-157
3.23122e-157
2.42245e-157
1.77249e-157
1.2646e-157
8.79014e-158
5.9434e-158
3.89748e-158
2.46739e-158
1.50002e-158
8.6938e-159
4.77649e-159
2.47303e-159
1.20153e-159
5.46961e-160
2.3448e-160
9.52661e-161
3.65198e-161
1.2879e-161
4.07423e-162
1.14048e-162
2.84458e-163
6.43654e-164
1.30324e-164
2.28202e-165
3.39796e-166
4.32149e-167
4.68352e-168
4.28607e-169
3.29325e-170
2.12234e-171
1.14942e-172
5.25202e-174
2.03546e-175
6.73298e-177
1.91393e-178
4.70883e-180
1.07041e-181
2.36854e-183
5.10384e-185
1.07136e-186
2.19118e-188
4.36674e-190
8.47924e-192
1.60405e-193
2.95554e-195
5.30239e-197
9.25855e-199
1.57264e-200
2.597e-202
4.16652e-204
6.4893e-206
9.80322e-208
1.43505e-209
2.03344e-211
2.78582e-213
3.68534e-215
4.70104e-217
5.77349e-219
6.81528e-221
7.71857e-223
8.37004e-225
8.67167e-227
8.56277e-229
8.03723e-231
7.1499e-233
6.00858e-235
4.75258e-237
3.52357e-239
2.43725e-241
1.56444e-243
9.26136e-246
5.02013e-248
2.47036e-250
1.09226e-252
4.28454e-255
1.46733e-257
4.2965e-260
1.04547e-262
2.0289e-265
2.94322e-268
2.83637e-271
1.36219e-274
1.96301e-274
4.08279e-271
4.22505e-268
2.90316e-265
1.49083e-262
6.10505e-260
2.07747e-257
6.04414e-255
1.53524e-252
3.45964e-250
7.00508e-248
1.28768e-245
2.16739e-243
3.36461e-241
4.84715e-239
6.51501e-237
8.20827e-235
9.73394e-233
1.09048e-230
1.15787e-228
1.16869e-226
1.12431e-224
1.03341e-222
9.09508e-221
7.68001e-219
6.23349e-217
4.87124e-215
3.67072e-213
2.67101e-211
1.87917e-209
1.27976e-207
8.44553e-206
5.406e-204
3.35931e-202
2.02808e-200
1.19035e-198
6.79634e-197
3.77663e-195
2.04333e-193
1.07676e-191
5.52766e-190
2.76479e-188
1.34739e-186
6.3973e-185
2.95858e-183
1.33233e-181
5.8396e-180
2.36262e-178
8.25268e-177
2.47082e-175
6.29786e-174
1.35852e-172
2.46826e-171
3.76512e-170
4.81625e-169
5.17543e-168
4.70229e-167
3.64816e-166
2.42118e-165
1.36806e-164
6.70084e-164
2.94261e-163
1.17315e-162
4.16799e-162
1.31147e-161
3.70572e-161
9.63896e-161
2.36768e-160
5.51315e-160
1.20911e-159
2.48491e-159
4.79326e-159
8.71499e-159
1.50245e-158
2.46974e-158
3.89902e-158
5.94308e-158
8.7868e-158
1.26384e-157
1.77114e-157
2.4204e-157
3.22852e-157
4.20782e-157
5.36501e-157
6.69789e-157
8.19616e-157
9.84271e-157
1.16125e-156
1.34738e-156
1.53899e-156
1.73192e-156
1.92177e-156
2.10405e-156
2.27455e-156
2.42943e-156
2.5618e-156
2.62925e-156
2.28363e-156
4.51282e-157
1.88963e-164
3.34068e-162
4.22406e-155
2.00766e-154
2.29858e-154
2.24389e-154
2.1362e-154
2.00994e-154
1.87031e-154
1.72e-154
1.5622e-154
1.40034e-154
1.23793e-154
1.07835e-154
9.24696e-155
7.79782e-155
6.45955e-155
5.24997e-155
4.18202e-155
3.26181e-155
2.48779e-155
1.85341e-155
1.34744e-155
9.55192e-156
6.5932e-156
4.41914e-156
2.86406e-156
1.78637e-156
1.06525e-156
6.04474e-157
3.2442e-157
1.63842e-157
7.76357e-158
3.46541e-158
1.46616e-158
5.86214e-159
2.16384e-159
7.205e-160
2.13184e-160
5.62989e-161
1.35099e-161
2.90826e-162
5.42849e-163
8.62937e-164
1.17425e-164
1.36401e-165
1.33764e-166
1.1001e-167
7.57621e-169
4.37557e-170
2.12651e-171
8.73915e-173
3.05507e-174
9.14534e-176
2.36069e-177
5.59087e-179
1.28673e-180
2.87951e-182
6.26859e-184
1.32792e-185
2.7378e-187
5.49395e-189
1.07299e-190
2.03923e-192
3.77038e-194
6.77945e-196
1.18495e-197
2.01217e-199
3.31753e-201
5.30675e-203
8.22901e-205
1.23586e-206
1.79575e-208
2.52164e-210
3.41772e-212
4.46487e-214
5.61365e-216
6.78154e-218
7.85728e-220
8.71398e-222
9.23028e-224
9.31593e-226
8.93514e-228
8.12019e-230
6.96952e-232
5.62892e-234
4.26035e-236
3.00771e-238
1.97007e-240
1.18987e-242
6.57896e-245
3.30173e-247
1.48858e-249
5.95302e-252
2.07814e-254
6.2017e-257
1.53774e-259
3.04049e-262
4.49315e-265
4.41032e-268
2.15705e-271
3.19265e-271
6.51879e-268
6.62163e-265
4.46544e-262
2.25017e-259
9.04085e-257
3.01799e-254
8.61214e-252
2.14524e-249
4.74e-247
9.40878e-245
1.6952e-242
2.79616e-240
4.2529e-238
6.0017e-236
7.90038e-234
9.74614e-232
1.1314e-229
1.24046e-227
1.28871e-225
1.27233e-223
1.19694e-221
1.0755e-219
9.25046e-218
7.63109e-216
6.04877e-214
4.61446e-212
3.39315e-210
2.40829e-208
1.6519e-206
1.09627e-204
7.04623e-203
4.39041e-201
2.65411e-199
1.55781e-197
8.88309e-196
4.92383e-194
2.65413e-192
1.39179e-190
7.10178e-189
3.52667e-187
1.70447e-185
8.01689e-184
3.66889e-182
1.63319e-180
7.06818e-179
2.97223e-177
1.14535e-175
3.79519e-174
1.07373e-172
2.57689e-171
5.21719e-170
8.87346e-169
1.26461e-167
1.50925e-166
1.51171e-165
1.28031e-164
9.27744e-164
5.76466e-163
3.05466e-162
1.40709e-161
5.82545e-161
2.19313e-160
7.371e-160
2.2036e-159
5.94909e-159
1.48355e-158
3.49933e-158
7.82526e-158
1.64871e-157
3.25971e-157
6.06589e-157
1.06785e-156
1.78929e-156
2.86679e-156
4.42082e-156
6.59263e-156
9.5478e-156
1.34654e-155
1.85183e-155
2.48542e-155
3.25866e-155
4.1783e-155
5.24606e-155
6.45597e-155
7.79529e-155
9.24656e-155
1.07865e-154
1.23874e-154
1.40183e-154
1.56452e-154
1.7233e-154
1.87466e-154
2.0154e-154
2.1427e-154
2.25097e-154
2.3039e-154
2.00149e-154
4.1021e-155
3.00107e-162
4.4399e-160
3.15169e-153
1.44952e-152
1.66213e-152
1.6275e-152
1.55527e-152
1.47012e-152
1.37559e-152
1.27326e-152
1.16507e-152
1.05321e-152
9.39908e-153
8.27401e-153
7.17779e-153
6.13013e-153
5.14841e-153
4.2468e-153
3.43711e-153
2.72646e-153
2.11676e-153
1.60653e-153
1.19067e-153
8.61104e-154
6.06894e-154
4.15797e-154
2.75897e-154
1.7658e-154
1.08393e-154
6.35956e-155
3.54371e-155
1.86374e-155
9.20846e-156
4.28504e-156
1.88879e-156
7.87823e-157
3.04616e-157
1.06991e-157
3.35562e-158
9.40269e-159
2.39543e-159
5.48958e-160
1.09512e-160
1.86386e-161
2.72101e-162
3.39772e-163
3.58173e-164
3.16339e-165
2.33639e-166
1.44437e-167
7.49525e-169
3.27925e-170
1.21638e-171
3.84973e-173
1.04671e-174
2.5911e-176
6.22149e-178
1.45009e-179