/*--------------------------------*- C++ -*----------------------------------*\
| =========                 |                                                 |
| \\      /  F ield         | OpenFOAM: The Open Source CFD Toolbox           |
|  \\    /   O peration     | Version:  2412                                  |
|   \\  /    A nd           | Website:  www.openfoam.com                      |
|    \\/     M anipulation  |                                                 |
\*---------------------------------------------------------------------------*/
FoamFile
{
    version     2.0;
    format      ascii;
    arch        "LSB;label=32;scalar=64";
    class       surfaceScalarField;
    location    "1.16";
    object      phi;
}
// * * * * * * * * * * * * * * * * * * * * * * * * * * * * * * * * * * * * * //

dimensions      [0 3 -1 0 0 0 0];

oriented        oriented;

internalField   nonuniform List<scalar> 
79600
(
2.16549e-11
-2.16219e-11
5.41325e-11
-3.24777e-11
9.00367e-11
-3.59036e-11
1.27367e-10
-3.73296e-11
1.65303e-10
-3.79371e-11
2.03386e-10
-3.80835e-11
2.41368e-10
-3.79826e-11
2.7915e-10
-3.77815e-11
3.16684e-10
-3.75338e-11
3.53948e-10
-3.72641e-11
3.90924e-10
-3.69766e-11
4.27593e-10
-3.66687e-11
4.63934e-10
-3.63398e-11
4.99924e-10
-3.5989e-11
5.35539e-10
-3.56149e-11
5.70756e-10
-3.52164e-11
6.05548e-10
-3.47922e-11
6.3989e-10
-3.43419e-11
6.73754e-10
-3.38651e-11
7.07116e-10
-3.33613e-11
7.39946e-10
-3.283e-11
7.72216e-10
-3.22711e-11
8.039e-10
-3.16843e-11
8.34969e-10
-3.10694e-11
8.65395e-10
-3.04262e-11
8.9515e-10
-2.97547e-11
9.24205e-10
-2.90548e-11
9.52531e-10
-2.83265e-11
9.80101e-10
-2.75701e-11
1.00689e-09
-2.67855e-11
1.03286e-09
-2.59728e-11
1.05799e-09
-2.51318e-11
1.08225e-09
-2.42626e-11
1.10562e-09
-2.33652e-11
1.12805e-09
-2.24399e-11
1.14954e-09
-2.1487e-11
1.17005e-09
-2.05067e-11
1.18955e-09
-1.94993e-11
1.20801e-09
-1.8465e-11
1.22542e-09
-1.74039e-11
1.24173e-09
-1.63164e-11
1.25694e-09
-1.52031e-11
1.271e-09
-1.40645e-11
1.2839e-09
-1.29012e-11
1.29562e-09
-1.17141e-11
1.30612e-09
-1.05038e-11
1.31539e-09
-9.27116e-12
1.32341e-09
-8.01706e-12
1.33015e-09
-6.74244e-12
1.3356e-09
-5.44817e-12
1.33973e-09
-4.13502e-12
1.34254e-09
-2.8034e-12
1.34399e-09
-1.45277e-12
1.34408e-09
-8.65288e-14
1.34277e-09
1.30673e-12
1.34007e-09
2.69825e-12
1.33597e-09
4.09749e-12
1.33047e-09
5.50344e-12
1.32356e-09
6.91588e-12
1.31522e-09
8.33366e-12
1.30547e-09
9.75517e-12
1.29429e-09
1.11787e-11
1.28169e-09
1.26023e-11
1.26767e-09
1.40243e-11
1.25222e-09
1.54427e-11
1.23537e-09
1.68557e-11
1.2171e-09
1.8261e-11
1.19745e-09
1.96565e-11
1.17641e-09
2.104e-11
1.154e-09
2.24093e-11
1.13024e-09
2.37623e-11
1.10514e-09
2.50971e-11
1.07873e-09
2.64115e-11
1.05103e-09
2.77034e-11
1.02206e-09
2.89705e-11
9.91846e-10
3.02105e-11
9.60425e-10
3.14211e-11
9.27824e-10
3.26004e-11
8.94077e-10
3.37462e-11
8.5922e-10
3.48566e-11
8.2329e-10
3.59295e-11
7.86327e-10
3.69627e-11
7.48373e-10
3.79541e-11
7.09472e-10
3.89017e-11
6.69669e-10
3.98036e-11
6.29011e-10
4.06582e-11
5.87547e-10
4.14637e-11
5.45328e-10
4.22186e-11
5.02407e-10
4.29214e-11
4.58836e-10
4.35708e-11
4.14671e-10
4.41654e-11
3.69967e-10
4.47041e-11
3.24782e-10
4.51858e-11
2.79173e-10
4.56092e-11
2.332e-10
4.59737e-11
1.86921e-10
4.62785e-11
1.40399e-10
4.65229e-11
9.3692e-11
4.67065e-11
4.68635e-11
4.68285e-11
-2.41021e-14
4.68878e-11
-4.69114e-11
4.68878e-11
-9.37392e-11
4.68285e-11
-1.40445e-10
4.67065e-11
-1.86968e-10
4.6523e-11
-2.33246e-10
4.62786e-11
-2.79219e-10
4.59738e-11
-3.24828e-10
4.56095e-11
-3.70013e-10
4.51863e-11
-4.14717e-10
4.47049e-11
-4.58882e-10
4.41664e-11
-5.02454e-10
4.35721e-11
-5.45375e-10
4.29232e-11
-5.87594e-10
4.22205e-11
-6.29059e-10
4.14656e-11
-6.69719e-10
4.06601e-11
-7.09525e-10
3.98056e-11
-7.48429e-10
3.89036e-11
-7.86386e-10
3.79562e-11
-8.23352e-10
3.69652e-11
-8.59284e-10
3.59323e-11
-8.94143e-10
3.48596e-11
-9.27892e-10
3.37495e-11
-9.60495e-10
3.26038e-11
-9.91919e-10
3.14244e-11
-1.02213e-09
3.02137e-11
-1.05111e-09
2.89742e-11
-1.07882e-09
2.77077e-11
-1.10523e-09
2.64166e-11
-1.13033e-09
2.51025e-11
-1.1541e-09
2.37676e-11
-1.17652e-09
2.24147e-11
-1.19756e-09
2.10459e-11
-1.21722e-09
1.96627e-11
-1.23549e-09
1.82674e-11
-1.25236e-09
1.68632e-11
-1.26781e-09
1.54517e-11
-1.28184e-09
1.4034e-11
-1.29445e-09
1.26126e-11
-1.30564e-09
1.11897e-11
-1.31541e-09
9.76664e-12
-1.32375e-09
8.34522e-12
-1.33068e-09
6.92692e-12
-1.33619e-09
5.5134e-12
-1.3403e-09
4.10657e-12
-1.343e-09
2.70638e-12
-1.34432e-09
1.3135e-12
-1.34424e-09
-8.07322e-14
-1.34279e-09
-1.44683e-12
-1.33999e-09
-2.79698e-12
-1.33587e-09
-4.12759e-12
-1.33043e-09
-5.43938e-12
-1.3237e-09
-6.7316e-12
-1.31569e-09
-8.00354e-12
-1.30644e-09
-9.25529e-12
-1.29595e-09
-1.04858e-11
-1.28425e-09
-1.16944e-11
-1.27137e-09
-1.28807e-11
-1.25733e-09
-1.40438e-11
-1.24215e-09
-1.51828e-11
-1.22585e-09
-1.62966e-11
-1.20846e-09
-1.73847e-11
-1.19002e-09
-1.84463e-11
-1.17054e-09
-1.94806e-11
-1.15005e-09
-2.04875e-11
-1.12858e-09
-2.14669e-11
-1.10616e-09
-2.24186e-11
-1.08282e-09
-2.33422e-11
-1.05858e-09
-2.42379e-11
-1.03348e-09
-2.51061e-11
-1.00753e-09
-2.59458e-11
-9.80771e-10
-2.67581e-11
-9.53228e-10
-2.75426e-11
-9.24929e-10
-2.82981e-11
-8.95905e-10
-2.90237e-11
-8.66186e-10
-2.97189e-11
-8.35801e-10
-3.03847e-11
-8.0478e-10
-3.10211e-11
-7.73147e-10
-3.16307e-11
-7.40935e-10
-3.22147e-11
-7.08162e-10
-3.27717e-11
-6.74863e-10
-3.33008e-11
-6.4106e-10
-3.38015e-11
-6.06787e-10
-3.42726e-11
-5.72072e-10
-3.47137e-11
-5.36945e-10
-3.5127e-11
-5.01435e-10
-3.55117e-11
-4.65565e-10
-3.58686e-11
-4.29365e-10
-3.62001e-11
-3.92859e-10
-3.65061e-11
-3.56072e-10
-3.67859e-11
-3.19035e-10
-3.70388e-11
-2.81771e-10
-3.7263e-11
-2.44313e-10
-3.74571e-11
-2.06692e-10
-3.76205e-11
-1.68937e-10
-3.7751e-11
-1.31101e-10
-3.78362e-11
-9.32819e-11
-3.78179e-11
-5.59629e-11
-3.73335e-11
-2.15664e-11
-3.44234e-11
-2.15933e-11
3.616e-11
-5.77819e-11
9.00265e-11
-8.63456e-11
1.46458e-10
-9.23366e-11
2.03463e-10
-9.43321e-11
2.60803e-10
-9.52756e-11
3.18276e-10
-9.55562e-11
3.75717e-10
-9.5425e-11
4.32999e-10
-9.50656e-11
4.90037e-10
-9.45719e-11
5.46762e-10
-9.39883e-11
6.03119e-10
-9.33322e-11
6.5906e-10
-9.26088e-11
7.14542e-10
-9.18201e-11
7.6952e-10
-9.09668e-11
8.23954e-10
-9.00484e-11
8.77801e-10
-8.90639e-11
9.31021e-10
-8.80124e-11
9.83572e-10
-8.68932e-11
1.03541e-09
-8.57056e-11
1.0865e-09
-8.44489e-11
1.13679e-09
-8.31226e-11
1.18625e-09
-8.1726e-11
1.23482e-09
-8.02588e-11
1.28247e-09
-7.87204e-11
1.32915e-09
-7.71105e-11
1.37483e-09
-7.5429e-11
1.41945e-09
-7.36758e-11
1.46297e-09
-7.18508e-11
1.50536e-09
-6.99542e-11
1.54656e-09
-6.79856e-11
1.58653e-09
-6.59452e-11
1.62523e-09
-6.38327e-11
1.66261e-09
-6.16485e-11
1.69864e-09
-5.93927e-11
1.73326e-09
-5.70659e-11
1.76645e-09
-5.46686e-11
1.79814e-09
-5.22013e-11
1.8283e-09
-4.96645e-11
1.8569e-09
-4.70587e-11
1.88388e-09
-4.43846e-11
1.90921e-09
-4.16434e-11
1.93284e-09
-3.88361e-11
1.95474e-09
-3.59643e-11
1.97487e-09
-3.30292e-11
1.99319e-09
-3.00324e-11
2.00966e-09
-2.69758e-11
2.02425e-09
-2.38612e-11
2.03692e-09
-2.06908e-11
2.04764e-09
-1.7467e-11
2.05639e-09
-1.41921e-11
2.06312e-09
-1.08688e-11
2.06782e-09
-7.49934e-12
2.07045e-09
-4.08636e-12
2.071e-09
-6.32682e-13
2.06945e-09
2.86095e-12
2.06576e-09
6.38293e-12
2.05993e-09
9.93117e-12
2.05193e-09
1.35026e-11
2.04176e-09
1.7094e-11
2.02939e-09
2.07014e-11
2.01482e-09
2.43207e-11
1.99806e-09
2.79476e-11
1.97908e-09
3.15774e-11
1.9579e-09
3.52055e-11
1.93451e-09
3.8827e-11
1.90893e-09
4.24366e-11
1.88117e-09
4.60287e-11
1.85122e-09
4.95979e-11
1.81913e-09
5.31387e-11
1.78489e-09
5.66457e-11
1.74854e-09
6.01134e-11
1.7101e-09
6.35364e-11
1.6696e-09
6.69089e-11
1.62708e-09
7.02251e-11
1.58257e-09
7.34793e-11
1.53612e-09
7.66656e-11
1.48776e-09
7.97784e-11
1.43755e-09
8.28124e-11
1.38553e-09
8.5762e-11
1.33177e-09
8.86217e-11
1.27631e-09
9.13857e-11
1.21922e-09
9.40485e-11
1.16057e-09
9.66047e-11
1.10043e-09
9.90491e-11
1.03885e-09
1.01377e-10
9.75927e-10
1.03584e-10
9.11726e-10
1.05665e-10
8.46328e-10
1.07616e-10
7.79816e-10
1.09434e-10
7.12274e-10
1.11114e-10
6.43788e-10
1.12652e-10
5.74447e-10
1.14046e-10
5.0434e-10
1.15293e-10
4.3356e-10
1.1639e-10
3.62201e-10
1.17334e-10
2.90355e-10
1.18124e-10
2.18121e-10
1.18758e-10
1.45594e-10
1.19234e-10
7.28713e-11
1.19551e-10
5.12684e-14
1.19709e-10
-7.27685e-11
1.19709e-10
-1.4549e-10
1.19552e-10
-2.18017e-10
1.19234e-10
-2.90251e-10
1.18758e-10
-3.62096e-10
1.18125e-10
-4.33456e-10
1.17335e-10
-5.04236e-10
1.16391e-10
-5.74343e-10
1.15295e-10
-6.43685e-10
1.14049e-10
-7.12172e-10
1.12655e-10
-7.79714e-10
1.11117e-10
-8.46227e-10
1.09437e-10
-9.11625e-10
1.0762e-10
-9.75828e-10
1.05669e-10
-1.03876e-09
1.03587e-10
-1.10033e-09
1.01381e-10
-1.16048e-09
9.90531e-11
-1.21913e-09
9.66089e-11
-1.27622e-09
9.40532e-11
-1.33168e-09
9.13911e-11
-1.38545e-09
8.86278e-11
-1.43747e-09
8.57685e-11
-1.48768e-09
8.28191e-11
-1.53604e-09
7.97851e-11
-1.5825e-09
7.66726e-11
-1.62702e-09
7.34871e-11
-1.66954e-09
7.02338e-11
-1.71004e-09
6.69183e-11
-1.74849e-09
6.35466e-11
-1.78484e-09
6.0124e-11
-1.81908e-09
5.66563e-11
-1.85119e-09
5.31496e-11
-1.88114e-09
4.96097e-11
-1.90891e-09
4.60415e-11
-1.9345e-09
4.24511e-11
-1.95789e-09
3.8844e-11
-1.97908e-09
3.52243e-11
-1.99806e-09
3.1597e-11
-2.01484e-09
2.79677e-11
-2.02941e-09
2.43409e-11
-2.04179e-09
2.0721e-11
-2.05197e-09
1.71127e-11
-2.05998e-09
1.35201e-11
-2.06582e-09
9.94744e-12
-2.06951e-09
6.39817e-12
-2.07107e-09
2.87475e-12
-2.07053e-09
-6.19879e-13
-2.06791e-09
-4.07378e-12
-2.06322e-09
-7.48611e-12
-2.05649e-09
-1.08537e-11
-2.04776e-09
-1.41741e-11
-2.03704e-09
-1.74452e-11
-2.02438e-09
-2.06648e-11
-2.0098e-09
-2.38312e-11
-1.99335e-09
-2.69426e-11
-1.97504e-09
-2.99973e-11
-1.95493e-09
-3.29934e-11
-1.93304e-09
-3.59285e-11
-1.90943e-09
-3.88007e-11
-1.88411e-09
-4.16083e-11
-1.85715e-09
-4.43501e-11
-1.82857e-09
-4.70245e-11
-1.79842e-09
-4.96303e-11
-1.76674e-09
-5.21664e-11
-1.73358e-09
-5.46325e-11
-1.69897e-09
-5.70272e-11
-1.66296e-09
-5.93513e-11
-1.62559e-09
-6.1604e-11
-1.58691e-09
-6.37857e-11
-1.54696e-09
-6.58963e-11
-1.50578e-09
-6.79362e-11
-1.46342e-09
-6.99047e-11
-1.41991e-09
-7.17994e-11
-1.37532e-09
-7.36202e-11
-1.32967e-09
-7.53668e-11
-1.28301e-09
-7.70389e-11
-1.2354e-09
-7.86403e-11
-1.18685e-09
-8.01712e-11
-1.13744e-09
-8.16341e-11
-1.08718e-09
-8.30263e-11
-1.03613e-09
-8.43498e-11
-9.84332e-10
-8.56011e-11
-9.31823e-10
-8.67804e-11
-8.78649e-10
-8.78887e-11
-8.24851e-10
-8.89251e-11
-7.70471e-10
-8.98916e-11
-7.15549e-10
-9.07899e-11
-6.60129e-10
-9.16214e-11
-6.04247e-10
-9.23867e-11
-5.47947e-10
-9.30855e-11
-4.91269e-10
-9.37165e-11
-4.34252e-10
-9.4278e-11
-3.76938e-10
-9.47692e-11
-3.1937e-10
-9.51912e-11
-2.61582e-10
-9.55385e-11
-2.03624e-10
-9.57972e-11
-1.45569e-10
-9.5854e-11
-8.79584e-11
-9.49072e-11
-3.41103e-11
-8.82175e-11
-5.57188e-11
3.8346e-11
-9.61272e-11
9.715e-11
-1.4515e-10
1.58651e-10
-1.53839e-10
2.20093e-10
-1.55775e-10
2.81386e-10
-1.56568e-10
3.42588e-10
-1.56758e-10
4.0369e-10
-1.56527e-10
4.64624e-10
-1.56001e-10
5.2532e-10
-1.55268e-10
5.85711e-10
-1.54379e-10
6.45737e-10
-1.53357e-10
7.05343e-10
-1.52214e-10
7.64479e-10
-1.50954e-10
8.23094e-10
-1.49582e-10
8.81142e-10
-1.48097e-10
9.38577e-10
-1.46499e-10
9.95354e-10
-1.44789e-10
1.05143e-09
-1.42966e-10
1.10675e-09
-1.41029e-10
1.16128e-09
-1.38977e-10
1.21496e-09
-1.3681e-10
1.26776e-09
-1.34527e-10
1.31963e-09
-1.32128e-10
1.37052e-09
-1.29611e-10
1.42039e-09
-1.26977e-10
1.46919e-09
-1.24225e-10
1.51686e-09
-1.21355e-10
1.56338e-09
-1.18367e-10
1.60869e-09
-1.1526e-10
1.65273e-09
-1.12034e-10
1.69548e-09
-1.08689e-10
1.73687e-09
-1.05226e-10
1.77687e-09
-1.01644e-10
1.81542e-09
-9.79448e-11
1.85248e-09
-9.41277e-11
1.888e-09
-9.0194e-11
1.92195e-09
-8.61444e-11
1.95426e-09
-8.19796e-11
1.98491e-09
-7.77008e-11
2.01383e-09
-7.33094e-11
2.041e-09
-6.8807e-11
2.06635e-09
-6.41955e-11
2.08987e-09
-5.94769e-11
2.11149e-09
-5.46536e-11
2.13119e-09
-4.97279e-11
2.14891e-09
-4.47028e-11
2.16463e-09
-3.95813e-11
2.17831e-09
-3.43671e-11
2.18991e-09
-2.90639e-11
2.19939e-09
-2.36757e-11
2.20673e-09
-1.82068e-11
2.21189e-09
-1.26618e-11
2.21485e-09
-7.04582e-12
2.21558e-09
-1.36499e-12
2.21407e-09
4.37655e-12
2.21028e-09
1.01732e-11
2.20419e-09
1.60188e-11
2.19579e-09
2.19067e-11
2.18505e-09
2.78299e-11
2.17197e-09
3.37818e-11
2.15654e-09
3.97553e-11
2.13874e-09
4.5743e-11
2.11858e-09
5.17373e-11
2.09606e-09
5.77303e-11
2.07117e-09
6.37137e-11
2.04393e-09
6.9679e-11
2.01434e-09
7.56171e-11
1.98242e-09
8.15192e-11
1.94818e-09
8.73762e-11
1.91165e-09
9.31791e-11
1.87284e-09
9.89187e-11
1.8318e-09
1.04586e-10
1.78854e-09
1.1017e-10
1.7431e-09
1.15663e-10
1.69552e-09
1.21054e-10
1.64586e-09
1.26334e-10
1.59414e-09
1.31494e-10
1.54043e-09
1.36524e-10
1.48477e-09
1.41415e-10
1.42724e-09
1.46157e-10
1.36788e-09
1.50742e-10
1.30677e-09
1.55159e-10
1.24397e-09
1.59401e-10
1.17956e-09
1.63458e-10
1.11362e-09
1.67323e-10
1.04621e-09
1.70988e-10
9.77432e-10
1.74445e-10
9.07361e-10
1.77687e-10
8.36088e-10
1.80707e-10
7.63703e-10
1.83499e-10
6.903e-10
1.86057e-10
6.15973e-10
1.88374e-10
5.4082e-10
1.90447e-10
4.6494e-10
1.92271e-10
3.88433e-10
1.93841e-10
3.11402e-10
1.95155e-10
2.33951e-10
1.96209e-10
1.56182e-10
1.97002e-10
7.82029e-11
1.97531e-10
1.1696e-13
1.97795e-10
-7.79688e-11
1.97796e-10
-1.55948e-10
1.97532e-10
-2.33715e-10
1.97003e-10
-3.11166e-10
1.96211e-10
-3.88197e-10
1.95156e-10
-4.64704e-10
1.93843e-10
-5.40584e-10
1.92273e-10
-6.15738e-10
1.90449e-10
-6.90066e-10
1.88377e-10
-7.6347e-10
1.8606e-10
-8.35855e-10
1.83503e-10
-9.07128e-10
1.80712e-10
-9.772e-10
1.77692e-10
-1.04598e-09
1.7445e-10
-1.11339e-09
1.70994e-10
-1.17934e-09
1.67329e-10
-1.24375e-09
1.63464e-10
-1.30655e-09
1.59407e-10
-1.36766e-09
1.55165e-10
-1.42702e-09
1.50748e-10
-1.48456e-09
1.46165e-10
-1.54021e-09
1.41423e-10
-1.59392e-09
1.36533e-10
-1.64564e-09
1.31503e-10
-1.69531e-09
1.26344e-10
-1.74289e-09
1.21064e-10
-1.78833e-09
1.15674e-10
-1.83159e-09
1.10181e-10
-1.87264e-09
1.04597e-10
-1.91145e-09
9.89317e-11
-1.94799e-09
9.31929e-11
-1.98223e-09
8.73906e-11
-2.01415e-09
8.15349e-11
-2.04374e-09
7.56344e-11
-2.07099e-09
6.96976e-11
-2.09588e-09
6.3734e-11
-2.11841e-09
5.7752e-11
-2.13857e-09
5.17599e-11
-2.15637e-09
4.57662e-11
-2.17181e-09
3.97786e-11
-2.18489e-09
3.38048e-11
-2.19563e-09
2.78524e-11
-2.20404e-09
2.19283e-11
-2.21013e-09
1.60391e-11
-2.21392e-09
1.01922e-11
-2.21544e-09
4.3946e-12
-2.21471e-09
-1.34756e-12
-2.21176e-09
-7.028e-12
-2.2066e-09
-1.26428e-11
-2.19927e-09
-1.81856e-11
-2.18979e-09
-2.36511e-11
-2.1782e-09
-2.90359e-11
-2.16453e-09
-3.43355e-11
-2.14881e-09
-3.95462e-11
-2.13109e-09
-4.46648e-11
-2.1114e-09
-4.9688e-11
-2.08978e-09
-5.46127e-11
-2.06627e-09
-5.94356e-11
-2.04092e-09
-6.41541e-11
-2.01376e-09
-6.87659e-11
-1.98484e-09
-7.32687e-11
-1.95421e-09
-7.76605e-11
-1.9219e-09
-8.19395e-11
-1.88797e-09
-8.61034e-11
-1.85245e-09
-9.01513e-11
-1.81539e-09
-9.40819e-11
-1.77685e-09
-9.78963e-11
-1.73686e-09
-1.01593e-10
-1.69547e-09
-1.05172e-10
-1.65273e-09
-1.08634e-10
-1.60869e-09
-1.11978e-10
-1.56339e-09
-1.15203e-10
-1.51688e-09
-1.18308e-10
-1.46921e-09
-1.21292e-10
-1.42042e-09
-1.24156e-10
-1.37056e-09
-1.269e-10
-1.31968e-09
-1.29527e-10
-1.26781e-09
-1.32037e-10
-1.21501e-09
-1.34432e-10
-1.16133e-09
-1.36711e-10
-1.10681e-09
-1.38875e-10
-1.05148e-09
-1.40922e-10
-9.95412e-10
-1.42853e-10
-9.38632e-10
-1.44669e-10
-8.81189e-10
-1.46369e-10
-8.23127e-10
-1.47954e-10
-7.64488e-10
-1.49427e-10
-7.0532e-10
-1.5079e-10
-6.45664e-10
-1.52042e-10
-5.85564e-10
-1.53184e-10
-5.25065e-10
-1.54215e-10
-4.64205e-10
-1.55134e-10
-4.03031e-10
-1.55942e-10
-3.4158e-10
-1.5664e-10
-2.79892e-10
-1.57227e-10
-2.1802e-10
-1.57686e-10
-1.56061e-10
-1.57838e-10
-9.45763e-11
-1.5641e-10
-3.69842e-11
-1.45787e-10
-9.27086e-11
3.79517e-11
-1.34079e-10
9.71931e-11
-2.04389e-10
1.59924e-10
-2.16571e-10
2.2259e-10
-2.18442e-10
2.84897e-10
-2.18876e-10
3.46956e-10
-2.18816e-10
4.08805e-10
-2.18376e-10
4.70428e-10
-2.17624e-10
5.31785e-10
-2.16625e-10
5.92824e-10
-2.15418e-10
6.53493e-10
-2.14025e-10
7.13739e-10
-2.12459e-10
7.73513e-10
-2.10728e-10
8.32766e-10
-2.08835e-10
8.91451e-10
-2.06781e-10
9.4952e-10
-2.04569e-10
1.00693e-09
-2.02197e-10
1.06363e-09
-1.99666e-10
1.11957e-09
-1.96976e-10
1.17472e-09
-1.94124e-10
1.22902e-09
-1.91111e-10
1.28243e-09
-1.87936e-10
1.3349e-09
-1.84599e-10
1.38638e-09
-1.81097e-10
1.43684e-09
-1.77431e-10
1.48621e-09
-1.73601e-10
1.53446e-09
-1.69605e-10
1.58154e-09
-1.65444e-10
1.6274e-09
-1.61117e-10
1.67199e-09
-1.56623e-10
1.71526e-09
-1.51964e-10
1.75718e-09
-1.47138e-10
1.79768e-09
-1.42147e-10
1.83672e-09
-1.36991e-10
1.87427e-09
-1.3167e-10
1.91026e-09
-1.26186e-10
1.94465e-09
-1.20539e-10
1.9774e-09
-1.14731e-10
2.00847e-09
-1.08763e-10
2.03779e-09
-1.02637e-10
2.06534e-09
-9.63564e-11
2.09107e-09
-8.99224e-11
2.11493e-09
-8.33382e-11
2.13689e-09
-7.66068e-11
2.15689e-09
-6.97319e-11
2.1749e-09
-6.27172e-11
2.19089e-09
-5.55673e-11
2.20481e-09
-4.8287e-11
2.21663e-09
-4.08815e-11
2.22631e-09
-3.33562e-11
2.23382e-09
-2.57173e-11
2.23913e-09
-1.7971e-11
2.24221e-09
-1.01245e-11
2.24303e-09
-2.18613e-12
2.24157e-09
5.83791e-12
2.2378e-09
1.39405e-11
2.23171e-09
2.21133e-11
2.22327e-09
3.0347e-11
2.21246e-09
3.86322e-11
2.19929e-09
4.6959e-11
2.18373e-09
5.53175e-11
2.16577e-09
6.36972e-11
2.14542e-09
7.20874e-11
2.12267e-09
8.04768e-11
2.09753e-09
8.8854e-11
2.07001e-09
9.7207e-11
2.0401e-09
1.05523e-10
2.00783e-09
1.13791e-10
1.97321e-09
1.21997e-10
1.93626e-09
1.30128e-10
1.89701e-09
1.38172e-10
1.85548e-09
1.46114e-10
1.81171e-09
1.53943e-10
1.76573e-09
1.61644e-10
1.71758e-09
1.69203e-10
1.6673e-09
1.76608e-10
1.61495e-09
1.83845e-10
1.56058e-09
1.909e-10
1.50423e-09
1.97761e-10
1.44597e-09
2.04415e-10
1.38587e-09
2.10847e-10
1.32398e-09
2.17046e-10
1.26038e-09
2.22999e-10
1.19514e-09
2.28694e-10
1.12835e-09
2.3412e-10
1.06007e-09
2.39265e-10
9.90394e-10
2.4412e-10
9.19409e-10
2.48673e-10
8.47203e-10
2.52914e-10
7.73868e-10
2.56835e-10
6.99497e-10
2.60428e-10
6.24189e-10
2.63684e-10
5.48041e-10
2.66596e-10
4.71154e-10
2.69158e-10
3.93631e-10
2.71365e-10
3.15575e-10
2.73211e-10
2.37092e-10
2.74693e-10
1.58287e-10
2.75807e-10
7.92676e-11
2.76551e-10
1.40765e-13
2.76923e-10
-7.8986e-11
2.76923e-10
-1.58005e-10
2.76552e-10
-2.36809e-10
2.75808e-10
-3.15292e-10
2.74694e-10
-3.93348e-10
2.73213e-10
-4.70871e-10
2.71366e-10
-5.47758e-10
2.6916e-10
-6.23906e-10
2.66598e-10
-6.99216e-10
2.63686e-10
-7.73586e-10
2.60431e-10
-8.46922e-10
2.56839e-10
-9.19129e-10
2.52919e-10
-9.90114e-10
2.48678e-10
-1.05979e-09
2.44126e-10
-1.12807e-09
2.39273e-10
-1.19487e-09
2.34127e-10
-1.2601e-09
2.28701e-10
-1.32371e-09
2.23006e-10
-1.38559e-09
2.17053e-10
-1.4457e-09
2.10855e-10
-1.50396e-09
2.04424e-10
-1.56031e-09
1.97771e-10
-1.61469e-09
1.90911e-10
-1.66704e-09
1.83856e-10
-1.71731e-09
1.76619e-10
-1.76546e-09
1.69214e-10
-1.81145e-09
1.61655e-10
-1.85522e-09
1.53955e-10
-1.89675e-09
1.46127e-10
-1.936e-09
1.38186e-10
-1.97295e-09
1.30144e-10
-2.00758e-09
1.22014e-10
-2.03985e-09
1.13809e-10
-2.06976e-09
1.05543e-10
-2.09729e-09
9.72276e-11
-2.12243e-09
8.88754e-11
-2.14518e-09
8.04994e-11
-2.16553e-09
7.21111e-11
-2.18349e-09
6.3722e-11
-2.19905e-09
5.5343e-11
-2.21223e-09
4.69845e-11
-2.22303e-09
3.86572e-11
-2.23147e-09
3.03712e-11
-2.23757e-09
2.2136e-11
-2.24134e-09
1.39619e-11
-2.24281e-09
5.85903e-12
-2.24199e-09
-2.16478e-12
-2.23892e-09
-1.01021e-11
-2.23361e-09
-1.79469e-11
-2.2261e-09
-2.56911e-11
-2.21643e-09
-3.33275e-11
-2.20461e-09
-4.08503e-11
-2.19069e-09
-4.82533e-11
-2.17471e-09
-5.55308e-11
-2.1567e-09
-6.26781e-11
-2.1367e-09
-6.96905e-11
-2.11474e-09
-7.65639e-11
-2.09088e-09
-8.32943e-11
-2.06516e-09
-8.98786e-11
-2.03761e-09
-9.63131e-11
-2.00829e-09
-1.02595e-10
-1.97723e-09
-1.08721e-10
-1.94448e-09
-1.14688e-10
-1.91009e-09
-1.20495e-10
-1.8741e-09
-1.2614e-10
-1.83656e-09
-1.31621e-10
-1.79752e-09
-1.3694e-10
-1.75701e-09
-1.42094e-10
-1.7151e-09
-1.47084e-10
-1.67183e-09
-1.51909e-10
-1.62724e-09
-1.56567e-10
-1.58139e-09
-1.61058e-10
-1.53431e-09
-1.65383e-10
-1.48606e-09
-1.69541e-10
-1.43668e-09
-1.73532e-10
-1.38623e-09
-1.77357e-10
-1.33474e-09
-1.81018e-10
-1.28226e-09
-1.84516e-10
-1.22884e-09
-1.8785e-10
-1.17453e-09
-1.91022e-10
-1.11937e-09
-1.94033e-10
-1.06341e-09
-1.96882e-10
-1.0067e-09
-1.99571e-10
-9.49268e-10
-2.02099e-10
-8.9117e-10
-2.04466e-10
-8.32448e-10
-2.06676e-10
-7.73146e-10
-2.08727e-10
-7.1331e-10
-2.10625e-10
-6.52983e-10
-2.12369e-10
-5.92208e-10
-2.13957e-10
-5.31031e-10
-2.15393e-10
-4.69492e-10
-2.16673e-10
-4.07635e-10
-2.17798e-10
-3.45498e-10
-2.18772e-10
-2.83124e-10
-2.19592e-10
-2.20559e-10
-2.20239e-10
-1.57918e-10
-2.20481e-10
-9.57807e-11
-2.18563e-10
-3.75843e-11
-2.03976e-10
-1.30292e-10
3.76546e-11
-1.71735e-10
9.66101e-11
-2.63344e-10
1.59566e-10
-2.79526e-10
2.22709e-10
-2.81585e-10
2.85505e-10
-2.81672e-10
3.47983e-10
-2.81295e-10
4.10182e-10
-2.80575e-10
4.72108e-10
-2.79549e-10
5.33734e-10
-2.78251e-10
5.95022e-10
-2.76705e-10
6.55928e-10
-2.7493e-10
7.16404e-10
-2.72935e-10
7.76404e-10
-2.70728e-10
8.35882e-10
-2.68312e-10
8.9479e-10
-2.65689e-10
9.53082e-10
-2.62862e-10
1.01071e-09
-2.59829e-10
1.06764e-09
-2.5659e-10
1.12381e-09
-2.53146e-10
1.17918e-09
-2.49495e-10
1.2337e-09
-2.45636e-10
1.28733e-09
-2.41569e-10
1.34003e-09
-2.37293e-10
1.39174e-09
-2.32806e-10
1.44241e-09
-2.28109e-10
1.49201e-09
-2.23199e-10
1.54048e-09
-2.18077e-10
1.58778e-09
-2.12742e-10
1.63386e-09
-2.07194e-10
1.67867e-09
-2.01432e-10
1.72216e-09
-1.95456e-10
1.76429e-09
-1.89267e-10
1.80501e-09
-1.82865e-10
1.84427e-09
-1.76249e-10
1.88202e-09
-1.69422e-10
1.91822e-09
-1.62385e-10
1.95282e-09
-1.55138e-10
1.98577e-09
-1.47683e-10
2.01703e-09
-1.40023e-10
2.04655e-09
-1.32159e-10
2.07429e-09
-1.24095e-10
2.1002e-09
-1.15834e-10
2.12424e-09
-1.07378e-10
2.14637e-09
-9.87333e-11
2.16654e-09
-8.99028e-11
2.18472e-09
-8.08922e-11
2.20086e-09
-7.1707e-11
2.21492e-09
-6.23533e-11
2.22688e-09
-5.28376e-11
2.23669e-09
-4.31669e-11
2.24432e-09
-3.33488e-11
2.24974e-09
-2.33915e-11
2.25292e-09
-1.33039e-11
2.25383e-09
-3.09621e-12
2.25245e-09
7.22341e-12
2.24874e-09
1.76448e-11
2.2427e-09
2.81573e-11
2.23429e-09
3.87496e-11
2.22352e-09
4.94095e-11
2.21035e-09
6.01245e-11
2.19479e-09
7.08814e-11
2.17682e-09
8.16668e-11
2.15644e-09
9.24669e-11
2.13365e-09
1.03267e-10
2.10845e-09
1.14053e-10
2.08085e-09
1.24809e-10
2.05085e-09
1.35519e-10
2.01847e-09
1.46167e-10
1.98373e-09
1.56738e-10
1.94665e-09
1.67213e-10
1.90725e-09
1.77576e-10
1.86555e-09
1.87811e-10
1.8216e-09
1.97899e-10
1.77542e-09
2.07823e-10
1.72705e-09
2.17567e-10
1.67655e-09
2.27113e-10
1.62395e-09
2.36442e-10
1.56931e-09
2.45539e-10
1.51269e-09
2.54385e-10
1.45414e-09
2.62964e-10
1.39372e-09
2.71259e-10
1.33151e-09
2.79253e-10
1.26758e-09
2.86932e-10
1.20199e-09
2.94279e-10
1.13484e-09
3.01278e-10
1.06619e-09
3.07917e-10
9.96126e-10
3.1418e-10
9.24745e-10
3.20054e-10
8.52132e-10
3.25528e-10
7.7838e-10
3.30588e-10
7.03585e-10
3.35224e-10
6.27843e-10
3.39426e-10
5.51255e-10
3.43185e-10
4.73922e-10
3.46492e-10
3.95947e-10
3.4934e-10
3.17435e-10
3.51723e-10
2.38491e-10
3.53636e-10
1.59223e-10
3.55075e-10
7.97391e-11
3.56035e-10
1.46625e-13
3.56516e-10
-7.94458e-11
3.56516e-10
-1.5893e-10
3.56036e-10
-2.38198e-10
3.55076e-10
-3.17141e-10
3.53638e-10
-3.95653e-10
3.51725e-10
-4.73628e-10
3.49342e-10
-5.50962e-10
3.46493e-10
-6.2755e-10
3.43186e-10
-7.03292e-10
3.39428e-10
-7.78087e-10
3.35227e-10
-8.51839e-10
3.30592e-10
-9.24452e-10
3.25533e-10
-9.95834e-10
3.20061e-10
-1.06589e-09
3.14187e-10
-1.13455e-09
3.07924e-10
-1.20171e-09
3.01286e-10
-1.26729e-09
2.94287e-10
-1.33123e-09
2.8694e-10
-1.39344e-09
2.79263e-10
-1.45385e-09
2.71269e-10
-1.5124e-09
2.62976e-10
-1.56903e-09
2.54397e-10
-1.62367e-09
2.45551e-10
-1.67627e-09
2.36455e-10
-1.72677e-09
2.27125e-10
-1.77514e-09
2.17579e-10
-1.82132e-09
2.07836e-10
-1.86528e-09
1.97912e-10
-1.90698e-09
1.87826e-10
-1.94638e-09
1.77593e-10
-1.98347e-09
1.67231e-10
-2.01821e-09
1.56757e-10
-2.05059e-09
1.46187e-10
-2.08058e-09
1.3554e-10
-2.10819e-09
1.24831e-10
-2.13339e-09
1.14076e-10
-2.15618e-09
1.03291e-10
-2.17656e-09
9.24925e-11
-2.19453e-09
8.16934e-11
-2.2101e-09
7.09086e-11
-2.22326e-09
6.01517e-11
-2.23404e-09
4.94362e-11
-2.24245e-09
3.87756e-11
-2.24849e-09
2.81824e-11
-2.2522e-09
1.76692e-11
-2.25359e-09
7.24802e-12
-2.25268e-09
-3.07078e-12
-2.24951e-09
-1.32776e-11
-2.24409e-09
-2.33635e-11
-2.23646e-09
-3.33192e-11
-2.22665e-09
-4.31356e-11
-2.2147e-09
-5.28044e-11
-2.20064e-09
-6.2318e-11
-2.1845e-09
-7.16691e-11
-2.16632e-09
-8.08518e-11
-2.14615e-09
-8.98599e-11
-2.12403e-09
-9.86886e-11
-2.09999e-09
-1.07333e-10
-2.07408e-09
-1.15788e-10
-2.04634e-09
-1.2405e-10
-2.01682e-09
-1.32115e-10
-1.98557e-09
-1.39978e-10
-1.95262e-09
-1.47638e-10
-1.91802e-09
-1.55091e-10
-1.88182e-09
-1.62337e-10
-1.84407e-09
-1.69373e-10
-1.80481e-09
-1.76198e-10
-1.7641e-09
-1.82812e-10
-1.72197e-09
-1.89214e-10
-1.67847e-09
-1.95401e-10
-1.63366e-09
-2.01375e-10
-1.58759e-09
-2.07135e-10
-1.54029e-09
-2.12682e-10
-1.49181e-09
-2.18015e-10
-1.44221e-09
-2.23134e-10
-1.39153e-09
-2.28041e-10
-1.33981e-09
-2.32735e-10
-1.28711e-09
-2.37219e-10
-1.23347e-09
-2.41494e-10
-1.17893e-09
-2.45559e-10
-1.12355e-09
-2.49418e-10
-1.06736e-09
-2.5307e-10
-1.01042e-09
-2.56515e-10
-9.52759e-10
-2.59755e-10
-8.94436e-10
-2.62789e-10
-8.35488e-10
-2.65623e-10
-7.75963e-10
-2.68254e-10
-7.15901e-10
-2.70685e-10
-6.55349e-10
-2.7292e-10
-5.94349e-10
-2.74955e-10
-5.32946e-10
-2.76795e-10
-4.7118e-10
-2.78438e-10
-4.091e-10
-2.79884e-10
-3.46738e-10
-2.81135e-10
-2.84146e-10
-2.82188e-10
-2.21362e-10
-2.83016e-10
-1.58503e-10
-2.83334e-10
-9.61615e-11
-2.80913e-10
-3.77888e-11
-2.6235e-10
-1.68078e-10
3.76053e-11
-2.09342e-10
9.64294e-11
-3.22169e-10
1.59453e-10
-3.42549e-10
2.22845e-10
-3.44976e-10
2.85964e-10
-3.44791e-10
3.48766e-10
-3.44097e-10
4.1127e-10
-3.43078e-10
4.73473e-10
-3.41752e-10
5.35355e-10
-3.40132e-10
5.96883e-10
-3.38232e-10
6.58016e-10
-3.36063e-10
7.18714e-10
-3.33632e-10
7.7893e-10
-3.30944e-10
8.38622e-10
-3.28003e-10
8.97743e-10
-3.2481e-10
9.56247e-10
-3.21366e-10
1.01409e-09
-3.17672e-10
1.07123e-09
-3.13727e-10
1.12761e-09
-3.09529e-10
1.18319e-09
-3.0508e-10
1.23793e-09
-3.00376e-10
1.29178e-09
-2.95418e-10
1.34469e-09
-2.90204e-10
1.39662e-09
-2.84733e-10
1.44751e-09
-2.79004e-10
1.49733e-09
-2.73016e-10
1.54602e-09
-2.66768e-10
1.59354e-09
-2.6026e-10
1.63984e-09
-2.5349e-10
1.68487e-09
-2.4646e-10
1.72858e-09
-2.39168e-10
1.77093e-09
-2.31615e-10
1.81186e-09
-2.238e-10
1.85134e-09
-2.15725e-10
1.88931e-09
-2.07391e-10
1.92572e-09
-1.98798e-10
1.96053e-09
-1.89949e-10
1.99369e-09
-1.80846e-10
2.02516e-09
-1.7149e-10
2.05489e-09
-1.61886e-10
2.08283e-09
-1.52035e-10
2.10894e-09
-1.41942e-10
2.13317e-09
-1.31612e-10
2.15548e-09
-1.21048e-10
2.17584e-09
-1.10257e-10
2.19419e-09
-9.92448e-11
2.2105e-09
-8.80182e-11
2.22473e-09
-7.65843e-11
2.23685e-09
-6.49511e-11
2.2468e-09
-5.31269e-11
2.25458e-09
-4.1121e-11
2.26013e-09
-2.89436e-11
2.26343e-09
-1.66053e-11
2.26445e-09
-4.11794e-12
2.26317e-09
8.50795e-12
2.25955e-09
2.12597e-11
2.25359e-09
3.4124e-11
2.24525e-09
4.70874e-11
2.23452e-09
6.01349e-11
2.2214e-09
7.32512e-11
2.20586e-09
8.64203e-11
2.1879e-09
9.96256e-11
2.16751e-09
1.1285e-10
2.1447e-09
1.26077e-10
2.11947e-09
1.39287e-10
2.09182e-09
1.52462e-10
2.06175e-09
1.65582e-10
2.02929e-09
1.78628e-10
1.99445e-09
1.91579e-10
1.95725e-09
2.04415e-10
1.91771e-09
2.17115e-10
1.87586e-09
2.29659e-10
1.83174e-09
2.42025e-10
1.78537e-09
2.54191e-10
1.7368e-09
2.66137e-10
1.68607e-09
2.7784e-10
1.63324e-09
2.8928e-10
1.57834e-09
3.00435e-10
1.52144e-09
3.11283e-10
1.4626e-09
3.21805e-10
1.40188e-09
3.31979e-10
1.33934e-09
3.41786e-10
1.27507e-09
3.51206e-10
1.20913e-09
3.60219e-10
1.1416e-09
3.68807e-10
1.07257e-09
3.76952e-10
1.00211e-09
3.84637e-10
9.30321e-10
3.91845e-10
8.57287e-10
3.98562e-10
7.83103e-10
4.04772e-10
7.07865e-10
4.10462e-10
6.31672e-10
4.15619e-10
5.54624e-10
4.20233e-10
4.76824e-10
4.24292e-10
3.98375e-10
4.27789e-10
3.19384e-10
4.30714e-10
2.39957e-10
4.33063e-10
1.60203e-10
4.34829e-10
8.02301e-11
4.36008e-10
1.48041e-13
4.36598e-10
-7.99342e-11
4.36599e-10
-1.59907e-10
4.36009e-10
-2.39661e-10
4.3483e-10
-3.19088e-10
4.33065e-10
-3.98079e-10
4.30717e-10
-4.76527e-10
4.27791e-10
-5.54328e-10
4.24295e-10
-6.31376e-10
4.20235e-10
-7.07569e-10
4.15623e-10
-7.82807e-10
4.10466e-10
-8.56991e-10
4.04778e-10
-9.30026e-10
3.98568e-10
-1.00182e-09
3.91852e-10
-1.07227e-09
3.84644e-10
-1.14131e-09
3.7696e-10
-1.20884e-09
3.68815e-10
-1.27478e-09
3.60228e-10
-1.33906e-09
3.51216e-10
-1.40159e-09
3.41798e-10
-1.46231e-09
3.31992e-10
-1.52116e-09
3.21819e-10
-1.57806e-09
3.11297e-10
-1.63295e-09
3.00448e-10
-1.68579e-09
2.89293e-10
-1.73652e-09
2.77854e-10
-1.78509e-09
2.66151e-10
-1.83146e-09
2.54206e-10
-1.87559e-09
2.42041e-10
-1.91744e-09
2.29676e-10
-1.95698e-09
2.17134e-10
-1.99418e-09
2.04434e-10
-2.02903e-09
1.91599e-10
-2.06149e-09
1.78649e-10
-2.09155e-09
1.65604e-10
-2.11921e-09
1.52485e-10
-2.14444e-09
1.39312e-10
-2.16725e-09
1.26103e-10
-2.18764e-09
1.12878e-10
-2.2056e-09
9.96538e-11
-2.22114e-09
8.64486e-11
-2.23427e-09
7.32796e-11
-2.24499e-09
6.01632e-11
-2.25333e-09
4.71154e-11
-2.2593e-09
3.41521e-11
-2.26292e-09
2.12877e-11
-2.26421e-09
8.53634e-12
-2.26319e-09
-4.08889e-12
-2.25989e-09
-1.65758e-11
-2.25434e-09
-2.89128e-11
-2.24657e-09
-4.10888e-11
-2.23662e-09
-5.3093e-11
-2.22451e-09
-6.4915e-11
-2.21028e-09
-7.65462e-11
-2.19397e-09
-8.79779e-11
-2.17562e-09
-9.92023e-11
-2.15526e-09
-1.10212e-10
-2.13295e-09
-1.21002e-10
-2.10872e-09
-1.31565e-10
-2.08261e-09
-1.41895e-10
-2.05467e-09
-1.51988e-10
-2.02495e-09
-1.61839e-10
-1.99348e-09
-1.71443e-10
-1.96032e-09
-1.80798e-10
-1.92551e-09
-1.89901e-10
-1.8891e-09
-1.98748e-10
-1.85113e-09
-2.0734e-10
-1.81166e-09
-2.15673e-10
-1.77073e-09
-2.23747e-10
-1.72838e-09
-2.31561e-10
-1.68466e-09
-2.39113e-10
-1.63963e-09
-2.46403e-10
-1.59334e-09
-2.53433e-10
-1.54582e-09
-2.60201e-10