/*--------------------------------*- C++ -*----------------------------------*\
| =========                 |                                                 |
| \\      /  F ield         | OpenFOAM: The Open Source CFD Toolbox           |
|  \\    /   O peration     | Version:  2412                                  |
|   \\  /    A nd           | Website:  www.openfoam.com                      |
|    \\/     M anipulation  |                                                 |
\*---------------------------------------------------------------------------*/
FoamFile
{
    version     2.0;
    format      ascii;
    arch        "LSB;label=32;scalar=64";
    class       volVectorField;
    location    "1.16";
    object      U;
}
// * * * * * * * * * * * * * * * * * * * * * * * * * * * * * * * * * * * * * //

dimensions      [0 1 -1 0 0 0 0];

internalField   nonuniform List<vector> 
40000
(
(8.43173e-06 -7.46716e-06 0)
(3.72979e-05 -9.95588e-06 0)
(7.18345e-05 -1.15127e-05 0)
(0.000108405 -1.22675e-05 0)
(0.000146233 -1.25293e-05 0)
(0.000184328 -1.2591e-05 0)
(0.000222387 -1.2539e-05 0)
(0.000260279 -1.24515e-05 0)
(0.000297942 -1.23517e-05 0)
(0.000335347 -1.22504e-05 0)
(0.000372472 -1.2148e-05 0)
(0.000409298 -1.20405e-05 0)
(0.000445806 -1.19271e-05 0)
(0.000481976 -1.18074e-05 0)
(0.000517782 -1.16806e-05 0)
(0.000553202 -1.15459e-05 0)
(0.00058821 -1.14027e-05 0)
(0.000622781 -1.12509e-05 0)
(0.000656888 -1.10903e-05 0)
(0.000690505 -1.09208e-05 0)
(0.000723605 -1.07423e-05 0)
(0.00075616 -1.05545e-05 0)
(0.000788141 -1.03576e-05 0)
(0.000819522 -1.01513e-05 0)
(0.000850273 -9.93567e-06 0)
(0.000880368 -9.7107e-06 0)
(0.000909777 -9.4764e-06 0)
(0.000938472 -9.23283e-06 0)
(0.000966425 -8.98007e-06 0)
(0.000993606 -8.71816e-06 0)
(0.00101999 -8.44709e-06 0)
(0.00104554 -8.16685e-06 0)
(0.00107025 -7.87742e-06 0)
(0.00109406 -7.57884e-06 0)
(0.00111697 -7.27126e-06 0)
(0.00113894 -6.95479e-06 0)
(0.00115994 -6.62957e-06 0)
(0.00117995 -6.29566e-06 0)
(0.00119893 -5.95312e-06 0)
(0.00121687 -5.602e-06 0)
(0.00123373 -5.24245e-06 0)
(0.0012495 -4.87465e-06 0)
(0.00126414 -4.49884e-06 0)
(0.00127762 -4.11525e-06 0)
(0.00128994 -3.72412e-06 0)
(0.00130105 -3.32571e-06 0)
(0.00131094 -2.92031e-06 0)
(0.00131959 -2.50822e-06 0)
(0.00132697 -2.08978e-06 0)
(0.00133307 -1.66524e-06 0)
(0.00133786 -1.23477e-06 0)
(0.00134133 -7.98261e-07 0)
(0.00134346 -3.54664e-07 0)
(0.00134424 9.73544e-08 0)
(0.00134363 5.51096e-07 0)
(0.00134163 1.00784e-06 0)
(0.00133823 1.4652e-06 0)
(0.00133343 1.92341e-06 0)
(0.00132723 2.38296e-06 0)
(0.0013196 2.84369e-06 0)
(0.00131056 3.30514e-06 0)
(0.00130009 3.76676e-06 0)
(0.0012882 4.22798e-06 0)
(0.00127489 4.68822e-06 0)
(0.00126016 5.14691e-06 0)
(0.00124401 5.60344e-06 0)
(0.00122645 6.05711e-06 0)
(0.00120749 6.5072e-06 0)
(0.00118714 6.95298e-06 0)
(0.00116541 7.39377e-06 0)
(0.00114232 7.82896e-06 0)
(0.00111789 8.25796e-06 0)
(0.00109213 8.68015e-06 0)
(0.00106507 9.09486e-06 0)
(0.00103673 9.50135e-06 0)
(0.00100714 9.89887e-06 0)
(0.000976315 1.02867e-05 0)
(0.000944298 1.06644e-05 0)
(0.000911119 1.10311e-05 0)
(0.000876811 1.13865e-05 0)
(0.000841412 1.17298e-05 0)
(0.000804959 1.20603e-05 0)
(0.000767495 1.23773e-05 0)
(0.00072906 1.26803e-05 0)
(0.000689701 1.29686e-05 0)
(0.000649463 1.32418e-05 0)
(0.000608394 1.34993e-05 0)
(0.000566545 1.37407e-05 0)
(0.000523967 1.39656e-05 0)
(0.000480712 1.41734e-05 0)
(0.000436836 1.4364e-05 0)
(0.000392393 1.45367e-05 0)
(0.00034744 1.46914e-05 0)
(0.000302035 1.48276e-05 0)
(0.000256235 1.49451e-05 0)
(0.0002101 1.50438e-05 0)
(0.00016369 1.51234e-05 0)
(0.000117067 1.51837e-05 0)
(7.02901e-05 1.52245e-05 0)
(2.34242e-05 1.52451e-05 0)
(-2.34722e-05 1.52451e-05 0)
(-7.03376e-05 1.52245e-05 0)
(-0.000117113 1.51837e-05 0)
(-0.000163737 1.51233e-05 0)
(-0.000210146 1.50437e-05 0)
(-0.00025628 1.4945e-05 0)
(-0.00030208 1.48274e-05 0)
(-0.000347486 1.46912e-05 0)
(-0.000392439 1.45366e-05 0)
(-0.000436883 1.43639e-05 0)
(-0.000480759 1.41735e-05 0)
(-0.000524014 1.39659e-05 0)
(-0.000566592 1.37411e-05 0)
(-0.000608442 1.34997e-05 0)
(-0.000649512 1.32422e-05 0)
(-0.000689752 1.29691e-05 0)
(-0.000729114 1.26808e-05 0)
(-0.000767552 1.23779e-05 0)
(-0.000805019 1.2061e-05 0)
(-0.000841475 1.17307e-05 0)
(-0.000876877 1.13875e-05 0)
(-0.000911186 1.10322e-05 0)
(-0.000944368 1.06654e-05 0)
(-0.000976386 1.02876e-05 0)
(-0.00100721 9.89965e-06 0)
(-0.00103681 9.50224e-06 0)
(-0.00106515 9.09599e-06 0)
(-0.00109222 8.68152e-06 0)
(-0.00111798 8.25936e-06 0)
(-0.00114242 7.83019e-06 0)
(-0.00116551 7.3949e-06 0)
(-0.00118725 6.95421e-06 0)
(-0.0012076 6.50845e-06 0)
(-0.00122657 6.05837e-06 0)
(-0.00124413 5.60516e-06 0)
(-0.00126029 5.14926e-06 0)
(-0.00127504 4.69084e-06 0)
(-0.00128836 4.2308e-06 0)
(-0.00130026 3.76987e-06 0)
(-0.00131074 3.30845e-06 0)
(-0.00131979 2.84711e-06 0)
(-0.00132743 2.38624e-06 0)
(-0.00133365 1.92631e-06 0)
(-0.00133845 1.46782e-06 0)
(-0.00134186 1.01012e-06 0)
(-0.00134387 5.52773e-07 0)
(-0.00134449 9.86205e-08 0)
(-0.00134372 -3.53587e-07 0)
(-0.00134159 -7.97117e-07 0)
(-0.00133812 -1.23334e-06 0)
(-0.00133334 -1.66338e-06 0)
(-0.00132725 -2.08715e-06 0)
(-0.00131988 -2.50449e-06 0)
(-0.00131125 -2.91561e-06 0)
(-0.00130137 -3.32012e-06 0)
(-0.00129028 -3.7178e-06 0)
(-0.00127798 -4.10859e-06 0)
(-0.00126452 -4.49218e-06 0)
(-0.0012499 -4.86818e-06 0)
(-0.00123416 -5.23621e-06 0)
(-0.00121731 -5.59615e-06 0)
(-0.00119939 -5.94771e-06 0)
(-0.00118042 -6.29043e-06 0)
(-0.00116044 -6.62435e-06 0)
(-0.00113945 -6.9494e-06 0)
(-0.00111751 -7.26551e-06 0)
(-0.00109462 -7.57253e-06 0)
(-0.00107083 -7.87048e-06 0)
(-0.00104615 -8.15953e-06 0)
(-0.00102062 -8.43935e-06 0)
(-0.000994263 -8.71045e-06 0)
(-0.000967107 -8.97272e-06 0)
(-0.000939182 -9.22557e-06 0)
(-0.000910517 -9.46845e-06 0)
(-0.000881141 -9.70102e-06 0)
(-0.000851085 -9.92366e-06 0)
(-0.000820378 -1.01365e-05 0)
(-0.000789046 -1.03408e-05 0)
(-0.000757119 -1.05371e-05 0)
(-0.000724622 -1.07247e-05 0)
(-0.000691582 -1.09031e-05 0)
(-0.000658027 -1.10722e-05 0)
(-0.000623986 -1.12314e-05 0)
(-0.000589488 -1.13803e-05 0)
(-0.000554563 -1.15198e-05 0)
(-0.000519241 -1.16494e-05 0)
(-0.000483547 -1.17695e-05 0)
(-0.000447507 -1.18814e-05 0)
(-0.00041115 -1.19851e-05 0)
(-0.0003745 -1.20804e-05 0)
(-0.000337585 -1.21666e-05 0)
(-0.000300431 -1.22429e-05 0)
(-0.000263066 -1.23085e-05 0)
(-0.000225522 -1.23631e-05 0)
(-0.000187831 -1.2405e-05 0)
(-0.000150026 -1.2427e-05 0)
(-0.000112139 -1.2409e-05 0)
(-7.43423e-05 -1.22612e-05 0)
(-3.79079e-05 -1.14323e-05 0)
(-7.88895e-06 -7.92721e-06 0)
(1.28294e-05 -3.8551e-05 0)
(6.27478e-05 -5.80307e-05 0)
(0.000118176 -6.32357e-05 0)
(0.000174743 -6.53205e-05 0)
(0.000231998 -6.627e-05 0)
(0.000289464 -6.64975e-05 0)
(0.000346963 -6.6339e-05 0)
(0.000404354 -6.6009e-05 0)
(0.000461537 -6.55944e-05 0)
(0.000518435 -6.51342e-05 0)
(0.000574989 -6.46381e-05 0)
(0.000631149 -6.41049e-05 0)
(0.00068687 -6.35338e-05 0)
(0.000742108 -6.29233e-05 0)
(0.000796823 -6.22717e-05 0)
(0.000850971 -6.15771e-05 0)
(0.000904512 -6.08379e-05 0)
(0.000957405 -6.00533e-05 0)
(0.00100961 -5.92225e-05 0)
(0.00106108 -5.83447e-05 0)
(0.00111178 -5.74193e-05 0)
(0.00116166 -5.64458e-05 0)
(0.00121068 -5.54238e-05 0)
(0.0012588 -5.43528e-05 0)
(0.00130597 -5.32327e-05 0)
(0.00135216 -5.20632e-05 0)
(0.00139732 -5.08445e-05 0)
(0.0014414 -4.95765e-05 0)
(0.00148436 -4.82593e-05 0)
(0.00152616 -4.68929e-05 0)
(0.00156675 -4.54771e-05 0)
(0.00160609 -4.4012e-05 0)
(0.00164414 -4.24976e-05 0)
(0.00168086 -4.09341e-05 0)
(0.00171619 -3.93218e-05 0)
(0.0017501 -3.76612e-05 0)
(0.00178255 -3.59526e-05 0)
(0.00181349 -3.41964e-05 0)
(0.00184287 -3.23929e-05 0)
(0.00187067 -3.05425e-05 0)
(0.00189683 -2.8646e-05 0)
(0.00192132 -2.67041e-05 0)
(0.00194409 -2.47179e-05 0)
(0.00196511 -2.26883e-05 0)
(0.00198434 -2.06165e-05 0)
(0.00200174 -1.85038e-05 0)
(0.00201728 -1.63515e-05 0)
(0.00203092 -1.41612e-05 0)
(0.00204262 -1.19344e-05 0)
(0.00205236 -9.6729e-06 0)
(0.00206011 -7.37812e-06 0)
(0.00206583 -5.05135e-06 0)
(0.0020695 -2.69299e-06 0)
(0.00207109 -3.02236e-07 0)
(0.00207059 2.11267e-06 0)
(0.00206798 4.54643e-06 0)
(0.00206322 6.99475e-06 0)
(0.00205631 9.45672e-06 0)
(0.00204723 1.19311e-05 0)
(0.00203596 1.44156e-05 0)
(0.00202249 1.69076e-05 0)
(0.00200683 1.94041e-05 0)
(0.00198896 2.19019e-05 0)
(0.00196888 2.43979e-05 0)
(0.00194659 2.68887e-05 0)
(0.00192211 2.93707e-05 0)
(0.00189543 3.18402e-05 0)
(0.00186658 3.42933e-05 0)
(0.00183555 3.67263e-05 0)
(0.00180238 3.91354e-05 0)
(0.00176708 4.15169e-05 0)
(0.00172968 4.38672e-05 0)
(0.00169021 4.61825e-05 0)
(0.0016487 4.84588e-05 0)
(0.00160517 5.06923e-05 0)
(0.00155968 5.28788e-05 0)
(0.00151227 5.50146e-05 0)
(0.00146297 5.7096e-05 0)
(0.00141185 5.91193e-05 0)
(0.00135895 6.10807e-05 0)
(0.00130433 6.29765e-05 0)
(0.00124804 6.48028e-05 0)
(0.00119016 6.65558e-05 0)
(0.00113075 6.82321e-05 0)
(0.00106988 6.98284e-05 0)
(0.00100762 7.13416e-05 0)
(0.00094404 7.27687e-05 0)
(0.000879226 7.41069e-05 0)
(0.000813256 7.53535e-05 0)
(0.000746214 7.65058e-05 0)
(0.000678185 7.75616e-05 0)
(0.000609255 7.85186e-05 0)
(0.000539516 7.93747e-05 0)
(0.000469056 8.01282e-05 0)
(0.00039797 8.07774e-05 0)
(0.000326351 8.13211e-05 0)
(0.000254295 8.17582e-05 0)
(0.000181897 8.20875e-05 0)
(0.000109256 8.2308e-05 0)
(3.64701e-05 8.24185e-05 0)
(-3.63675e-05 8.24185e-05 0)
(-0.000109153 8.23082e-05 0)
(-0.000181793 8.20878e-05 0)
(-0.00025419 8.17586e-05 0)
(-0.000326246 8.13217e-05 0)
(-0.000397865 8.07781e-05 0)
(-0.000468952 8.01291e-05 0)
(-0.000539412 7.93759e-05 0)
(-0.000609152 7.85202e-05 0)
(-0.000678082 7.75637e-05 0)
(-0.000746112 7.65084e-05 0)
(-0.000813155 7.53567e-05 0)
(-0.000879125 7.41104e-05 0)
(-0.00094394 7.27722e-05 0)
(-0.00100752 7.13451e-05 0)
(-0.00106978 6.9832e-05 0)
(-0.00113066 6.82358e-05 0)
(-0.00119007 6.65597e-05 0)
(-0.00124796 6.4807e-05 0)
(-0.00130424 6.29812e-05 0)
(-0.00135887 6.10859e-05 0)
(-0.00141177 5.91249e-05 0)
(-0.0014629 5.71018e-05 0)
(-0.00151219 5.50205e-05 0)
(-0.00155961 5.2885e-05 0)
(-0.0016051 5.06993e-05 0)
(-0.00164863 4.84668e-05 0)
(-0.00169015 4.61913e-05 0)
(-0.00172963 4.38767e-05 0)
(-0.00176703 4.15267e-05 0)
(-0.00180234 3.91453e-05 0)
(-0.00183551 3.67368e-05 0)
(-0.00186654 3.43046e-05 0)
(-0.0018954 3.18524e-05 0)
(-0.00192209 2.93846e-05 0)
(-0.00194658 2.69049e-05 0)
(-0.00196887 2.44157e-05 0)
(-0.00198896 2.19208e-05 0)
(-0.00200684 1.94238e-05 0)
(-0.00202251 1.69276e-05 0)
(-0.00203598 1.44354e-05 0)
(-0.00204726 1.195e-05 0)
(-0.00205636 9.4741e-06 0)
(-0.00206328 7.01063e-06 0)
(-0.00206804 4.56081e-06 0)
(-0.00207066 2.12523e-06 0)
(-0.00207116 -2.91054e-07 0)
(-0.00206958 -2.68213e-06 0)
(-0.00206592 -5.03981e-06 0)
(-0.00206021 -7.36475e-06 0)
(-0.00205247 -9.65673e-06 0)
(-0.00204274 -1.19146e-05 0)
(-0.00203105 -1.4137e-05 0)
(-0.00201742 -1.63233e-05 0)
(-0.00200189 -1.84723e-05 0)
(-0.00198451 -2.05827e-05 0)
(-0.00196529 -2.26535e-05 0)
(-0.00194429 -2.4683e-05 0)
(-0.00192153 -2.66697e-05 0)
(-0.00189705 -2.86121e-05 0)
(-0.00187091 -3.05094e-05 0)
(-0.00184313 -3.23603e-05 0)
(-0.00181376 -3.41636e-05 0)
(-0.00178284 -3.59188e-05 0)
(-0.00175041 -3.76258e-05 0)
(-0.00171651 -3.92838e-05 0)
(-0.0016812 -4.08932e-05 0)
(-0.0016445 -4.24536e-05 0)
(-0.00160647 -4.39657e-05 0)
(-0.00156714 -4.54289e-05 0)
(-0.00152657 -4.68439e-05 0)
(-0.00148479 -4.82101e-05 0)
(-0.00144185 -4.95253e-05 0)
(-0.00139779 -5.07886e-05 0)
(-0.00135267 -5.19998e-05 0)
(-0.00130651 -5.31591e-05 0)
(-0.00125936 -5.42692e-05 0)
(-0.00121127 -5.53317e-05 0)
(-0.00116228 -5.63484e-05 0)
(-0.00111244 -5.73172e-05 0)
(-0.00106178 -5.82386e-05 0)
(-0.00101035 -5.91101e-05 0)
(-0.000958189 -5.99309e-05 0)
(-0.000905341 -6.07011e-05 0)
(-0.000851848 -6.14213e-05 0)
(-0.000797751 -6.20924e-05 0)
(-0.000743093 -6.2716e-05 0)
(-0.000687914 -6.32944e-05 0)
(-0.000632256 -6.3828e-05 0)
(-0.000576159 -6.43161e-05 0)
(-0.000519664 -6.47574e-05 0)
(-0.00046281 -6.51497e-05 0)
(-0.000405638 -6.54917e-05 0)
(-0.000348191 -6.57832e-05 0)
(-0.000290509 -6.60194e-05 0)
(-0.000232626 -6.61847e-05 0)
(-0.00017454 -6.61846e-05 0)
(-0.000116431 -6.54096e-05 0)
(-6.01718e-05 -6.04875e-05 0)
(-1.12708e-05 -3.78292e-05 0)
(1.28064e-05 -7.65396e-05 0)
(6.71022e-05 -0.0001151 0)
(0.000127957 -0.000122293 0)
(0.000189415 -0.000124349 0)
(0.000250742 -0.000125361 0)
(0.000311969 -0.000125692 0)
(0.000373128 -0.000125561 0)
(0.000434163 -0.000125147 0)
(0.000494995 -0.000124549 0)
(0.000555554 -0.000123821 0)
(0.000615776 -0.000122987 0)
(0.000675603 -0.000122056 0)
(0.000734984 -0.000121034 0)
(0.00079387 -0.000119923 0)
(0.000852211 -0.000118723 0)
(0.000909961 -0.000117435 0)
(0.000967075 -0.000116056 0)
(0.00102351 -0.000114588 0)
(0.00107921 -0.000113029 0)
(0.00113415 -0.000111378 0)
(0.00118826 -0.000109635 0)
(0.00124151 -0.000107799 0)
(0.00129386 -0.00010587 0)
(0.00134524 -0.000103847 0)
(0.00139563 -0.00010173 0)
(0.00144497 -9.95181e-05 0)
(0.00149322 -9.72119e-05 0)
(0.00154033 -9.48111e-05 0)
(0.00158624 -9.23154e-05 0)
(0.00163093 -8.97248e-05 0)
(0.00167433 -8.70393e-05 0)
(0.00171641 -8.42587e-05 0)
(0.00175711 -8.13835e-05 0)
(0.0017964 -7.84139e-05 0)
(0.00183421 -7.53504e-05 0)
(0.00187051 -7.21938e-05 0)
(0.00190526 -6.89445e-05 0)
(0.00193839 -6.56032e-05 0)
(0.00196988 -6.21708e-05 0)
(0.00199967 -5.86484e-05 0)
(0.00202773 -5.50371e-05 0)
(0.002054 -5.13386e-05 0)
(0.00207844 -4.75546e-05 0)
(0.00210102 -4.36869e-05 0)
(0.00212168 -3.97376e-05 0)
(0.0021404 -3.57089e-05 0)
(0.00215713 -3.16034e-05 0)
(0.00217184 -2.74239e-05 0)
(0.00218448 -2.31735e-05 0)
(0.00219503 -1.88554e-05 0)
(0.00220344 -1.44731e-05 0)
(0.0022097 -1.00299e-05 0)
(0.00221377 -5.52987e-06 0)
(0.00221562 -9.77263e-07 0)
(0.00221523 3.62472e-06 0)
(0.00221258 8.26875e-06 0)
(0.00220765 1.29502e-05 0)
(0.00220041 1.76643e-05 0)
(0.00219084 2.24061e-05 0)
(0.00217894 2.717e-05 0)
(0.00216468 3.19506e-05 0)
(0.00214807 3.67421e-05 0)
(0.00212909 4.15384e-05 0)
(0.00210775 4.63331e-05 0)
(0.00208404 5.11197e-05 0)
(0.00205798 5.58913e-05 0)
(0.00202956 6.06406e-05 0)
(0.0019988 6.53604e-05 0)
(0.00196572 7.00436e-05 0)
(0.00193033 7.46829e-05 0)
(0.00189266 7.9271e-05 0)
(0.00185272 8.38004e-05 0)
(0.00181056 8.82637e-05 0)
(0.00176621 9.26532e-05 0)
(0.0017197 9.69611e-05 0)
(0.00167106 0.00010118 0)
(0.00162036 0.000105302 0)
(0.00156764 0.000109321 0)
(0.00151295 0.000113228 0)
(0.00145634 0.000117016 0)
(0.00139788 0.000120679 0)
(0.00133764 0.000124207 0)
(0.00127567 0.000127595 0)
(0.00121205 0.000130836 0)
(0.00114686 0.000133922 0)
(0.00108017 0.000136849 0)
(0.00101206 0.000139609 0)
(0.000942618 0.000142198 0)
(0.00087193 0.00014461 0)
(0.000800085 0.000146839 0)
(0.000727173 0.000148881 0)
(0.000653291 0.000150731 0)
(0.000578533 0.000152386 0)
(0.000502998 0.000153842 0)
(0.000426787 0.000155096 0)
(0.00035 0.000156145 0)
(0.00027274 0.000156987 0)
(0.000195111 0.000157621 0)
(0.000117219 0.000158044 0)
(3.91702e-05 0.000158255 0)
(-3.89361e-05 0.000158255 0)
(-0.000116984 0.000158044 0)
(-0.000194876 0.000157621 0)
(-0.000272504 0.000156987 0)
(-0.000349763 0.000156145 0)
(-0.000426551 0.000155096 0)
(-0.000502762 0.000153842 0)
(-0.000578298 0.000152386 0)
(-0.000653056 0.000150731 0)
(-0.00072694 0.000148881 0)
(-0.000799851 0.00014684 0)
(-0.000871697 0.000144612 0)
(-0.000942386 0.000142201 0)
(-0.00101183 0.000139612 0)
(-0.00107994 0.000136852 0)
(-0.00114663 0.000133926 0)
(-0.00121182 0.00013084 0)
(-0.00127544 0.0001276 0)
(-0.00133741 0.000124213 0)
(-0.00139766 0.000120685 0)
(-0.00145612 0.000117023 0)
(-0.00151273 0.000113236 0)
(-0.00156742 0.000109329 0)
(-0.00162015 0.000105311 0)
(-0.00167085 0.000101189 0)
(-0.00171948 9.69704e-05 0)
(-0.001766 9.26629e-05 0)
(-0.00181036 8.82738e-05 0)
(-0.00185252 8.38111e-05 0)
(-0.00189246 7.92823e-05 0)
(-0.00193013 7.46945e-05 0)
(-0.00196553 7.00557e-05 0)
(-0.00199861 6.53736e-05 0)
(-0.00202937 6.06551e-05 0)
(-0.00205779 5.59074e-05 0)
(-0.00208386 5.1138e-05 0)
(-0.00210757 4.63532e-05 0)
(-0.00212892 4.15595e-05 0)
(-0.0021479 3.6764e-05 0)
(-0.00216452 3.19728e-05 0)
(-0.00217877 2.71917e-05 0)
(-0.00219068 2.24271e-05 0)
(-0.00220025 1.76843e-05 0)
(-0.0022075 1.29688e-05 0)
(-0.00221243 8.28604e-06 0)
(-0.00221509 3.64072e-06 0)
(-0.00221548 -9.62313e-07 0)
(-0.00221363 -5.51502e-06 0)
(-0.00220957 -1.00143e-05 0)
(-0.00220332 -1.44553e-05 0)
(-0.00219491 -1.88344e-05 0)
(-0.00218437 -2.31487e-05 0)
(-0.00217173 -2.73949e-05 0)
(-0.00215703 -3.15702e-05 0)
(-0.00214031 -3.56723e-05 0)
(-0.00212159 -3.96986e-05 0)
(-0.00210093 -4.36467e-05 0)
(-0.00207836 -4.75137e-05 0)
(-0.00205392 -5.12975e-05 0)
(-0.00202765 -5.4996e-05 0)
(-0.00199961 -5.86076e-05 0)
(-0.00196982 -6.21303e-05 0)
(-0.00193834 -6.55628e-05 0)
(-0.00190521 -6.89033e-05 0)
(-0.00187048 -7.21513e-05 0)
(-0.00183418 -7.53053e-05 0)
(-0.00179637 -7.83663e-05 0)
(-0.0017571 -8.13331e-05 0)
(-0.0017164 -8.42058e-05 0)
(-0.00167433 -8.69846e-05 0)
(-0.00163093 -8.96693e-05 0)
(-0.00158625 -9.22592e-05 0)
(-0.00154034 -9.47526e-05 0)
(-0.00149324 -9.7149e-05 0)
(-0.00144501 -9.94487e-05 0)
(-0.00139567 -0.000101651 0)
(-0.00134529 -0.000103761 0)
(-0.00129391 -0.000105777 0)
(-0.00124157 -0.000107701 0)
(-0.00118832 -0.000109533 0)
(-0.0011342 -0.000111273 0)
(-0.00107927 -0.000112919 0)
(-0.00102357 -0.000114471 0)
(-0.000967137 -0.000115929 0)
(-0.000910018 -0.000117292 0)
(-0.000852257 -0.000118564 0)
(-0.000793898 -0.000119746 0)
(-0.000734986 -0.00012084 0)
(-0.000675567 -0.000121846 0)
(-0.000615683 -0.000122766 0)
(-0.000555377 -0.000123597 0)
(-0.00049469 -0.000124337 0)
(-0.000433665 -0.000124987 0)
(-0.000372346 -0.000125546 0)
(-0.000310773 -0.000126012 0)
(-0.000248984 -0.000126371 0)
(-0.000186981 -0.000126477 0)
(-0.000124975 -0.000125294 0)
(-6.50367e-05 -0.000116651 0)
(-1.20903e-05 -7.39265e-05 0)
(1.23455e-05 -0.000115313 0)
(6.66749e-05 -0.000174885 0)
(0.000128521 -0.00018509 0)
(0.000191367 -0.000186912 0)
(0.000253826 -0.000187521 0)
(0.00031597 -0.000187604 0)
(0.000377907 -0.000187281 0)
(0.000439644 -0.00018666 0)
(0.000501142 -0.00018581 0)
(0.00056235 -0.000184773 0)
(0.000623214 -0.000183574 0)
(0.000683682 -0.000182225 0)
(0.000743701 -0.000180734 0)
(0.000803224 -0.000179104 0)
(0.000862202 -0.000177337 0)
(0.000920588 -0.000175434 0)
(0.000978335 -0.000173395 0)
(0.0010354 -0.000171219 0)
(0.00109173 -0.000168906 0)
(0.00114728 -0.000166456 0)
(0.00120202 -0.000163867 0)
(0.00125588 -0.00016114 0)
(0.00130883 -0.000158272 0)
(0.00136081 -0.000155264 0)
(0.00141179 -0.000152116 0)
(0.00146171 -0.000148826 0)
(0.00151054 -0.000145394 0)
(0.00155821 -0.00014182 0)
(0.00160468 -0.000138105 0)
(0.00164992 -0.000134247 0)
(0.00169386 -0.000130246 0)
(0.00173646 -0.000126104 0)
(0.00177768 -0.000121819 0)
(0.00181746 -0.000117393 0)
(0.00185576 -0.000112826 0)
(0.00189254 -0.000108119 0)
(0.00192774 -0.000103273 0)
(0.00196132 -9.82889e-05 0)
(0.00199324 -9.3168e-05 0)
(0.00202344 -8.79119e-05 0)
(0.00205189 -8.25226e-05 0)
(0.00207853 -7.70024e-05 0)
(0.00210334 -7.13537e-05 0)
(0.00212625 -6.55791e-05 0)
(0.00214724 -5.96816e-05 0)
(0.00216625 -5.36647e-05 0)
(0.00218326 -4.75321e-05 0)
(0.00219822 -4.1288e-05 0)
(0.0022111 -3.4937e-05 0)
(0.00222185 -2.84838e-05 0)
(0.00223045 -2.19335e-05 0)
(0.00223687 -1.52917e-05 0)
(0.00224107 -8.5645e-06 0)
(0.00224303 -1.75902e-06 0)
(0.00224271 5.11916e-06 0)
(0.0022401 1.20641e-05 0)
(0.00223518 1.90687e-05 0)
(0.00222791 2.61251e-05 0)
(0.00221829 3.32249e-05 0)
(0.00220631 4.03598e-05 0)
(0.00219194 4.75213e-05 0)
(0.00217518 5.47005e-05 0)
(0.00215603 6.18882e-05 0)
(0.00213448 6.90748e-05 0)
(0.00211054 7.62503e-05 0)
(0.0020842 8.34045e-05 0)
(0.00205548 9.05268e-05 0)
(0.00202439 9.76065e-05 0)
(0.00199094 0.000104633 0)
(0.00195516 0.000111594 0)
(0.00191705 0.000118481 0)
(0.00187666 0.00012528 0)
(0.001834 0.000131981 0)
(0.00178912 0.000138572 0)
(0.00174204 0.000145042 0)
(0.00169282 0.000151379 0)
(0.0016415 0.000157572 0)
(0.00158813 0.00016361 0)
(0.00153276 0.000169481 0)
(0.00147544 0.000175174 0)
(0.00141625 0.000180678 0)
(0.00135524 0.000185982 0)
(0.00129248 0.000191076 0)
(0.00122805 0.000195948 0)
(0.00116202 0.00020059 0)
(0.00109447 0.000204991 0)
(0.00102548 0.000209143 0)
(0.000955129 0.000213037 0)
(0.000883517 0.000216664 0)
(0.000810729 0.000220018 0)
(0.000736858 0.00022309 0)
(0.000662001 0.000225873 0)
(0.000586254 0.000228363 0)
(0.000509719 0.000230553 0)
(0.000432495 0.000232439 0)
(0.000354687 0.000234017 0)
(0.000276399 0.000235284 0)
(0.000197735 0.000236236 0)
(0.000118804 0.000236871 0)
(3.97148e-05 0.000237189 0)
(-3.94331e-05 0.000237189 0)
(-0.000118522 0.000236872 0)
(-0.000197453 0.000236237 0)
(-0.000276116 0.000235285 0)
(-0.000354404 0.000234018 0)
(-0.000432212 0.00023244 0)
(-0.000509436 0.000230554 0)
(-0.000585972 0.000228364 0)
(-0.000661719 0.000225874 0)
(-0.000736577 0.000223091 0)
(-0.000810448 0.00022002 0)
(-0.000883236 0.000216667 0)
(-0.000954849 0.00021304 0)
(-0.0010252 0.000209147 0)
(-0.00109419 0.000204996 0)
(-0.00116174 0.000200595 0)
(-0.00122777 0.000195954 0)
(-0.00129221 0.000191082 0)
(-0.00135497 0.000185989 0)
(-0.00141598 0.000180686 0)
(-0.00147517 0.000175183 0)
(-0.00153249 0.000169491 0)
(-0.00158786 0.000163621 0)
(-0.00164124 0.000157583 0)
(-0.00169256 0.000151391 0)
(-0.00174178 0.000145053 0)
(-0.00178885 0.000138583 0)
(-0.00183374 0.000131992 0)
(-0.0018764 0.000125292 0)
(-0.0019168 0.000118493 0)
(-0.0019549 0.000111608 0)
(-0.00199069 0.000104647 0)
(-0.00202414 9.76217e-05 0)
(-0.00205524 9.05434e-05 0)
(-0.00208396 8.34221e-05 0)
(-0.0021103 7.62691e-05 0)
(-0.00213424 6.9095e-05 0)
(-0.00215579 6.19097e-05 0)
(-0.00217494 5.47232e-05 0)
(-0.0021917 4.75446e-05 0)
(-0.00220607 4.03832e-05 0)
(-0.00221806 3.3248e-05 0)
(-0.00222768 2.61475e-05 0)
(-0.00223494 1.90898e-05 0)
(-0.00223987 1.20839e-05 0)
(-0.00224249 5.13843e-06 0)
(-0.00224281 -1.73987e-06 0)
(-0.00224086 -8.54479e-06 0)
(-0.00223666 -1.52706e-05 0)
(-0.00223025 -2.19102e-05 0)
(-0.00222165 -2.84575e-05 0)
(-0.0022109 -3.49077e-05 0)
(-0.00219803 -4.12554e-05 0)
(-0.00218307 -4.74959e-05 0)
(-0.00216606 -5.36254e-05 0)
(-0.00214705 -5.96399e-05 0)
(-0.00212606 -6.55358e-05 0)
(-0.00210315 -7.13094e-05 0)
(-0.00207835 -7.69579e-05 0)
(-0.0020517 -8.24784e-05 0)
(-0.00202326 -8.78682e-05 0)
(-0.00199306 -9.31248e-05 0)
(-0.00196115 -9.82462e-05 0)
(-0.00192757 -0.00010323 0)
(-0.00189237 -0.000108074 0)
(-0.0018556 -0.000112779 0)
(-0.0018173 -0.000117344 0)
(-0.00177752 -0.000121768 0)
(-0.0017363 -0.000126051 0)
(-0.0016937 -0.000130192 0)
(-0.00164976 -0.000134191 0)
(-0.00160453 -0.000138048 0)
(-0.00155805 -0.000141761 0)
(-0.00151038 -0.00014533 0)
(-0.00146156 -0.000148757 0)
(-0.00141164 -0.00015204 0)
(-0.00136066 -0.000155183 0)
(-0.00130866 -0.000158186 0)
(-0.00125571 -0.000161049 0)
(-0.00120183 -0.000163774 0)
(-0.00114709 -0.00016636 0)
(-0.00109153 -0.000168807 0)
(-0.00103518 -0.000171116 0)
(-0.000978099 -0.000173286 0)
(-0.000920327 -0.000175317 0)
(-0.000861908 -0.000177214 0)
(-0.000802888 -0.000178975 0)
(-0.000743312 -0.000180605 0)
(-0.000683224 -0.000182103 0)
(-0.000622667 -0.00018347 0)
(-0.000561684 -0.000184704 0)
(-0.000500317 -0.000185803 0)
(-0.00043861 -0.000186769 0)
(-0.000376606 -0.000187603 0)
(-0.000314348 -0.000188304 0)
(-0.000251868 -0.000188856 0)
(-0.000189174 -0.000189055 0)
(-0.0001265 -0.000187386 0)
(-6.59941e-05 -0.000174788 0)
(-1.22793e-05 -0.000111429 0)
(1.22503e-05 -0.000153058 0)
(6.61334e-05 -0.000233984 0)
(0.000127916 -0.000248057 0)
(0.000191225 -0.000249964 0)
(0.000254208 -0.000250195 0)
(0.000316815 -0.000249967 0)
(0.000379135 -0.000249388 0)
(0.000441191 -0.000248509 0)
(0.000502968 -0.00024737 0)
(0.000564432 -0.000246002 0)
(0.000625536 -0.000244424 0)
(0.000686235 -0.000242648 0)
(0.000746482 -0.000240682 0)
(0.00080623 -0.00023853 0)
(0.000865431 -0.000236193 0)
(0.00092404 -0.000233674 0)
(0.00098201 -0.000230973 0)
(0.00103929 -0.000228089 0)
(0.00109585 -0.000225022 0)
(0.00115163 -0.00022177 0)
(0.00120658 -0.000218335 0)
(0.00126067 -0.000214714 0)
(0.00131384 -0.000210907 0)
(0.00136605 -0.000206913 0)
(0.00141725 -0.000202731 0)
(0.0014674 -0.000198361 0)
(0.00151645 -0.000193803 0)
(0.00156434 -0.000189054 0)
(0.00161104 -0.000184117 0)
(0.00165649 -0.000178989 0)
(0.00170065 -0.000173672 0)
(0.00174347 -0.000168165 0)
(0.0017849 -0.000162468 0)
(0.0018249 -0.000156583 0)
(0.00186341 -0.000150509 0)
(0.0019004 -0.000144249 0)
(0.0019358 -0.000137802 0)
(0.00196959 -0.000131171 0)
(0.0020017 -0.000124358 0)
(0.0020321 -0.000117364 0)
(0.00206074 -0.000110192 0)
(0.00208757 -0.000102844 0)
(0.00211256 -9.53253e-05 0)
(0.00213565 -8.76378e-05 0)
(0.00215681 -7.97859e-05 0)
(0.00217599 -7.17741e-05 0)
(0.00219315 -6.36076e-05 0)
(0.00220826 -5.52917e-05 0)
(0.00222128 -4.68323e-05 0)
(0.00223217 -3.82356e-05 0)
(0.0022409 -2.95085e-05 0)
(0.00224743 -2.06582e-05 0)
(0.00225174 -1.16928e-05 0)
(0.00225379 -2.62116e-06 0)
(0.00225356 6.54854e-06 0)
(0.00225101 1.58083e-05 0)
(0.00224614 2.51489e-05 0)
(0.00223892 3.45598e-05 0)
(0.00222934 4.40303e-05 0)
(0.00221737 5.35492e-05 0)
(0.00220301 6.31047e-05 0)
(0.00218624 7.26851e-05 0)
(0.00216707 8.22778e-05 0)
(0.00214548 9.18702e-05 0)
(0.00212149 0.000101449 0)
(0.00209508 0.000111001 0)
(0.00206628 0.000120511 0)
(0.0020351 0.000129966 0)
(0.00200153 0.000139351 0)
(0.00196562 0.000148651 0)
(0.00192737 0.000157851 0)
(0.00188681 0.000166937 0)
(0.00184398 0.000175892 0)
(0.00179891 0.000184701 0)
(0.00175163 0.000193349 0)
(0.00170218 0.000201821 0)
(0.00165062 0.000210102 0)
(0.001597 0.000218175 0)
(0.00154135 0.000226026 0)
(0.00148376 0.00023364 0)
(0.00142426 0.000241001 0)
(0.00136294 0.000248095 0)
(0.00129985 0.000254909 0)
(0.00123508 0.000261427 0)
(0.00116869 0.000267638 0)
(0.00110077 0.000273527 0)
(0.0010314 0.000279084 0)
(0.000960665 0.000284295 0)
(0.000888651 0.000289151 0)
(0.000815452 0.000293639 0)
(0.00074116 0.000297752 0)
(0.000665874 0.000301479 0)
(0.000589691 0.000304813 0)
(0.000512711 0.000307746 0)
(0.000435039 0.000310272 0)
(0.000356776 0.000312386 0)
(0.000278029 0.000314083 0)
(0.000198904 0.000315359 0)
(0.000119508 0.000316211 0)
(3.99536e-05 0.000316637 0)
(-3.96602e-05 0.000316638 0)
(-0.000119215 0.000316212 0)
(-0.00019861 0.000315361 0)
(-0.000277735 0.000314085 0)
(-0.000356482 0.000312389 0)
(-0.000434744 0.000310275 0)
(-0.000512418 0.000307748 0)
(-0.000589397 0.000304815 0)
(-0.000665581 0.000301482 0)
(-0.000740868 0.000297755 0)
(-0.000815159 0.000293644 0)
(-0.000888359 0.000289156 0)
(-0.000960373 0.000284301 0)
(-0.00103111 0.000279091 0)
(-0.00110048 0.000273535 0)
(-0.0011684 0.000267645 0)
(-0.00123479 0.000261435 0)
(-0.00129957 0.000254916 0)
(-0.00136265 0.000248104 0)
(-0.00142398 0.000241011 0)
(-0.00148347 0.000233651 0)
(-0.00154107 0.000226038 0)
(-0.00159672 0.000218188 0)
(-0.00165035 0.000210115 0)
(-0.00170191 0.000201834 0)
(-0.00175135 0.000193362 0)
(-0.00179863 0.000184714 0)
(-0.00184371 0.000175905 0)
(-0.00188654 0.00016695 0)
(-0.0019271 0.000157867 0)
(-0.00196535 0.000148668 0)
(-0.00200127 0.000139368 0)
(-0.00203483 0.000129984 0)
(-0.00206602 0.00012053 0)
(-0.00209482 0.00011102 0)
(-0.00212123 0.000101469 0)
(-0.00214522 9.18919e-05 0)
(-0.00216681 8.2301e-05 0)
(-0.00218599 7.27096e-05 0)
(-0.00220275 6.31301e-05 0)
(-0.00221711 5.35748e-05 0)
(-0.00222908 4.40558e-05 0)
(-0.00223867 3.45848e-05 0)
(-0.00224589 2.51728e-05 0)
(-0.00225077 1.58314e-05 0)
(-0.00225331 6.57163e-06 0)
(-0.00225355 -2.59748e-06 0)
(-0.0022515 -1.1668e-05 0)
(-0.0022472 -2.06317e-05 0)
(-0.00224067 -2.948e-05 0)
(-0.00223195 -3.82049e-05 0)
(-0.00222106 -4.67994e-05 0)
(-0.00220804 -5.52564e-05 0)
(-0.00219294 -6.35696e-05 0)
(-0.00217577 -7.17335e-05 0)
(-0.00215659 -7.97428e-05 0)
(-0.00213543 -8.75931e-05 0)
(-0.00211234 -9.528e-05 0)
(-0.00208736 -0.000102799 0)
(-0.00206053 -0.000110147 0)
(-0.00203189 -0.00011732 0)
(-0.0020015 -0.000124315 0)
(-0.00196939 -0.000131128 0)
(-0.0019356 -0.000137758 0)
(-0.0019002 -0.000144203 0)
(-0.00186322 -0.000150462 0)
(-0.0018247 -0.000156534 0)
(-0.00178471 -0.000162418 0)
(-0.00174327 -0.000168113 0)
(-0.00170045 -0.000173619 0)
(-0.00165629 -0.000178935 0)
(-0.00161084 -0.00018406 0)
(-0.00156414 -0.000188996 0)
(-0.00151625 -0.000193741 0)
(-0.0014672 -0.000198295 0)
(-0.00141705 -0.000202661 0)
(-0.00136585 -0.000206838 0)
(-0.00131363 -0.000210828 0)
(-0.00126045 -0.000214633 0)
(-0.00120635 -0.000218251 0)
(-0.00115138 -0.000221686 0)
(-0.00109558 -0.000224936 0)
(-0.00103901 -0.000228004 0)
(-0.000981704 -0.000230888 0)
(-0.000923705 -0.000233589 0)
(-0.000865061 -0.000236112 0)
(-0.000805816 -0.000238455 0)
(-0.000746017 -0.000240621 0)
(-0.000685704 -0.000242611 0)
(-0.000624922 -0.000244425 0)
(-0.000563713 -0.000246062 0)
(-0.000502118 -0.000247523 0)
(-0.000440185 -0.000248806 0)
(-0.000377958 -0.000249916 0)
(-0.000315479 -0.000250852 0)
(-0.000252781 -0.00025159 0)
(-0.000189866 -0.000251873 0)
(-0.000126979 -0.000249707 0)
(-6.63028e-05 -0.000233135 0)
(-1.23611e-05 -0.000149165 0)
(1.22417e-05 -0.00019058 0)
(6.60334e-05 -0.000292801 0)
(0.000127677 -0.000311046 0)
(0.000191195 -0.000313248 0)
(0.000254499 -0.000313167 0)
(0.000317444 -0.000312619 0)
(0.000380082 -0.000311751 0)
(0.000442429 -0.00031058 0)
(0.000504471 -0.000309127 0)
(0.000566179 -0.00030741 0)
(0.000627516 -0.000305442 0)
(0.000688438 -0.000303232 0)
(0.000748903 -0.000300787 0)
(0.000808865 -0.00029811 0)
(0.000868279 -0.000295204 0)
(0.0009271 -0.000292069 0)
(0.000985282 -0.000288706 0)
(0.00104278 -0.000285115 0)
(0.00109955 -0.000281294 0)
(0.00115554 -0.000277244 0)
(0.00121071 -0.000272963 0)
(0.00126501 -0.00026845 0)
(0.0013184 -0.000263705 0)
(0.00137083 -0.000258726 0)
(0.00142225 -0.000253513 0)
(0.00147261 -0.000248064 0)
(0.00152188 -0.000242379 0)
(0.00156999 -0.000236457 0)
(0.00161691 -0.000230299 0)
(0.00166258 -0.000223903 0)
(0.00170696 -0.000217269 0)
(0.00175 -0.000210398 0)