/*--------------------------------*- C++ -*----------------------------------*\
| =========                 |                                                 |
| \\      /  F ield         | OpenFOAM: The Open Source CFD Toolbox           |
|  \\    /   O peration     | Version:  2412                                  |
|   \\  /    A nd           | Website:  www.openfoam.com                      |
|    \\/     M anipulation  |                                                 |
\*---------------------------------------------------------------------------*/
FoamFile
{
    version     2.0;
    format      ascii;
    arch        "LSB;label=32;scalar=64";
    class       surfaceScalarField;
    location    "1.02";
    object      alphaPhi0.water;
}
// * * * * * * * * * * * * * * * * * * * * * * * * * * * * * * * * * * * * * //

dimensions      [0 3 -1 0 0 0 0];

oriented        oriented;

internalField   nonuniform List<scalar> 
79600
(
5.69784e-288
-1.64999e-283
-7.42388e-288
6.63477e-292
4.75023e-288
-4.63018e-283
5.526e-287
-1.18479e-282
1.90904e-286
-2.07023e-282
3.14298e-286
-2.29719e-282
4.12302e-286
-2.28869e-282
4.62557e-286
-2.08389e-282
4.6898e-286
-1.7891e-282
4.49078e-286
-1.49174e-282
4.10586e-286
-1.21132e-282
3.59687e-286
-9.5665e-283
3.03441e-286
-7.3605e-283
2.46824e-286
-5.51127e-283
1.93624e-286
-4.01009e-283
1.46382e-286
-2.82997e-283
1.06462e-286
-1.9318e-283
7.4426e-287
-1.27358e-283
4.99206e-287
-8.08945e-284
3.20558e-287
-4.93724e-284
1.96569e-287
-2.88711e-284
1.14783e-287
-1.61247e-284
6.36244e-288
-8.57209e-285
3.33638e-288
-4.32181e-285
1.64884e-288
-2.05823e-285
7.64808e-289
-9.21963e-286
3.31444e-289
-3.8661e-286
1.33517e-289
-1.50973e-286
4.97132e-290
-5.45855e-287
1.69987e-290
-1.81535e-287
5.29949e-291
-5.51283e-288
1.49431e-291
-1.51633e-288
3.77649e-292
-3.74312e-289
8.46772e-293
-8.2083e-290
1.66545e-293
-1.58079e-290
2.83616e-294
-2.63882e-291
4.1201e-295
-3.76155e-292
5.01993e-296
-4.50129e-293
5.02988e-297
-4.43326e-294
4.05122e-298
-3.51198e-295
2.55477e-299
-2.17921e-296
1.22329e-300
-1.02681e-297
4.29088e-302
-3.54274e-299
1.05746e-303
-8.57793e-301
1.74389e-305
-1.38659e-302
1.81847e-307
-1.41145e-304
1.12374e-309
-8.45672e-307
3.83711e-312
-2.76746e-309
6.88199e-315
-4.64605e-312
7.01741e-318
-4.19365e-315
5.84974e-321
-2.83181e-318
4.94066e-324
-1.92192e-321
0
0
0
0
0
0
0
0
0
0
0
0
0
0
0
0
0
0
0
0
0
0
0
0
0
0
0
0
0
0
0
0
0
0
0
0
0
0
0
0
0
0
0
0
0
0
0
0
0
0
0
0
0
0
0
0
0
0
0
0
0
0
0
0
0
0
0
0
0
0
0
0
0
0
0
0
0
0
0
0
0
0
0
0
0
0
0
0
0
0
0
0
0
0
0
0
0
0
0
0
0
0
0
0
0
0
0
0
0
0
0
0
0
0
0
0
0
0
0
0
0
0
0
0
0
0
0
0
0
0
0
0
0
0
0
0
0
0
0
0
0
0
0
0
0
0
0
0
0
0
0
0
0
0
0
0
0
0
0
0
0
0
0
0
0
0
0
0
0
0
0
0
0
0
0
0
0
0
0
0
0
0
0
0
0
0
0
0
0
0
-9.09081e-322
-2.32211e-322
-4.69412e-319
-2.50699e-319
-1.93385e-316
-1.78884e-316
-6.16086e-314
-9.22508e-314
-1.45936e-311
-3.46286e-311
-2.46682e-309
-9.25289e-309
-2.87871e-307
-1.70528e-306
-2.28601e-305
-2.11382e-304
-1.24402e-303
-1.75072e-302
-4.74095e-302
-9.82244e-301
-1.30214e-300
-3.83324e-299
-2.65932e-299
-1.07407e-297
-4.1613e-298
-2.23352e-296
-5.12474e-297
-3.5559e-295
-5.08413e-296
-4.45498e-294
-4.15077e-295
-4.49747e-293
-2.84279e-294
-3.73854e-292
-1.66215e-293
-2.60891e-291
-8.42233e-293
-1.55561e-290
-3.747e-292
-8.04641e-290
-1.48042e-291
-3.65811e-289
-5.24794e-291
-1.47864e-288
-1.6847e-290
-5.36915e-288
-4.93531e-290
-1.76789e-287
-1.32727e-289
-5.31958e-287
-3.29249e-289
-1.47169e-286
-7.57112e-289
-3.76164e-286
-1.62361e-288
-8.92759e-286
-3.26914e-288
-1.97938e-285
-6.21896e-288
-4.12799e-285
-1.12287e-287
-8.14925e-285
-1.93016e-287
-1.53019e-284
-3.16444e-287
-2.74185e-284
-4.95471e-287
-4.69797e-284
-7.41941e-287
-7.70973e-284
-1.0642e-286
-1.21387e-283
-1.46556e-286
-1.83693e-283
-1.94287e-286
-2.67894e-283
-2.48689e-286
-3.77648e-283
-3.08078e-286
-5.16401e-283
-3.69763e-286
-6.87012e-283
-4.29757e-286
-8.90997e-283
-4.82789e-286
-1.12722e-282
-5.23067e-286
-1.39055e-282
-5.45664e-286
-1.67199e-282
-5.47421e-286
-1.96104e-282
-5.26798e-286
-2.24818e-282
-4.82829e-286
-2.52519e-282
-4.1532e-286
-2.78095e-282
-3.25366e-286
-2.9983e-282
-1.84721e-286
-3.14882e-282
-7.39231e-290
-2.71064e-282
-2.23579e-285
5.72971e-283
-4.85045e-279
8.93415e-287
7.30533e-288
3.00782e-282
-1.76108e-278
6.25191e-282
-3.25646e-278
9.74663e-282
-4.54267e-278
1.24952e-281
-5.15031e-278
1.44776e-281
-5.28238e-278
1.53217e-281
-4.98326e-278
1.52404e-281
-4.45479e-278
1.44671e-281
-3.83383e-278
1.31896e-281
-3.19493e-278
1.15846e-281
-2.58369e-278
9.82023e-282
-2.02962e-278
8.03859e-282
-1.54844e-278
6.35329e-282
-1.14641e-278
4.84443e-282
-8.22583e-279
3.55934e-282
-5.71026e-279
2.51659e-282
-3.82851e-279
1.70898e-282
-2.47352e-279
1.11242e-282
-1.53642e-279
6.92335e-283
-9.14979e-280
4.10862e-283
-5.20879e-280
2.31784e-283
-2.82541e-280
1.2388e-283
-1.45508e-280
6.24914e-284
-7.08714e-281
2.96317e-284
-3.25074e-281
1.31467e-284
-1.3976e-281
5.42991e-285
-5.60295e-282
2.076e-285
-2.08252e-282
7.30077e-286
-7.13035e-283
2.34501e-286
-2.23293e-283
6.82525e-287
-6.34479e-284
1.78418e-287
-1.62127e-284
4.14736e-288
-3.68827e-285
8.47676e-289
-7.38596e-286
1.50404e-289
-1.28536e-286
2.28311e-290
-1.91559e-287
2.91595e-291
-2.4041e-288
3.07374e-292
-2.49211e-289
2.61531e-293
-2.08646e-290
1.75036e-294
-1.37457e-291
8.94132e-296
-6.912e-293
3.36534e-297
-2.5597e-294
8.9551e-299
-6.69327e-296
1.60521e-300
-1.17604e-297
1.83222e-302
-1.31001e-299
1.24842e-304
-8.6461e-302
4.73218e-307
-3.13366e-304
9.43577e-310
-5.81651e-307
1.0485e-312
-5.62682e-310
9.20965e-316
-3.80267e-313
8.94437e-319
-2.52486e-316
9.53547e-322
-1.49055e-319
0
-3.45846e-323
0
0
0
0
0
0
0
0
0
0
0
0
0
0
0
0
0
0
0
0
0
0
0
0
0
0
0
0
0
0
0
0
0
0
0
0
0
0
0
0
0
0
0
0
0
0
0
0
0
0
0
0
0
0
0
0
0
0
0
0
0
0
0
0
0
0
0
0
0
0
0
0
0
0
0
0
0
0
0
0
0
0
0
0
0
0
0
0
0
0
0
0
0
0
0
0
0
0
0
0
0
0
0
0
0
0
0
0
0
0
0
0
0
0
0
0
0
0
0
0
0
0
0
0
0
0
0
0
0
0
0
0
0
0
0
0
0
0
0
0
0
0
0
0
0
0
0
0
0
0
0
0
0
0
0
0
0
0
0
0
0
0
0
0
0
0
0
0
0
0
0
0
0
0
0
0
0
0
0
0
0
0
-2.81617e-322
0
-2.00131e-319
-6.21535e-321
-1.20529e-316
-2.65079e-317
-5.98245e-314
-2.88342e-314
-2.37316e-311
-2.03701e-311
-7.25086e-309
-1.02991e-308
-1.63501e-306
-3.74944e-306
-2.60608e-304
-9.598e-304
-2.8428e-302
-1.67289e-301
-2.09882e-300
-1.94029e-299
-1.06012e-298
-1.49436e-297
-3.75594e-297
-7.78169e-296
-9.62442e-296
-2.82316e-294
-1.84132e-294
-7.38019e-293
-2.71028e-293
-1.43772e-291
-3.15387e-292
-2.15311e-290
-2.97058e-291
-2.54886e-289
-2.31275e-290
-2.44295e-288
-1.51623e-289
-1.93648e-287
-8.51118e-289
-1.29355e-286
-4.15098e-288
-7.40503e-286
-1.78148e-287
-3.68672e-285
-6.80377e-287
-1.61694e-284
-2.3352e-286
-6.31822e-284
-7.26701e-286
-2.22146e-283
-2.06637e-285
-7.09112e-283
-5.40418e-285
-2.07114e-282
-1.30744e-284
-5.57198e-282
-2.94161e-284
-1.38885e-281
-6.1879e-284
-3.22467e-281
-1.22363e-283
-7.0126e-281
-2.28612e-283
-1.43631e-280
-4.05278e-283
-2.78515e-280
-6.83965e-283
-5.13573e-280
-1.1016e-282
-9.03652e-280
-1.69669e-282
-1.52127e-279
-2.50425e-282
-2.45578e-279
-3.54865e-282
-3.81053e-279
-4.83814e-282
-5.69568e-279
-6.35854e-282
-8.22174e-279
-8.07223e-282
-1.14889e-278
-9.91264e-282
-1.55822e-278
-1.1784e-281
-2.05542e-278
-1.35635e-281
-2.64121e-278
-1.51033e-281
-3.31011e-278
-1.62517e-281
-4.04801e-278
-1.68746e-281
-4.83378e-278
-1.68753e-281
-5.64161e-278
-1.6193e-281
-6.44525e-278
-1.47951e-281
-7.21702e-278
-1.26959e-281
-7.92206e-278
-9.94285e-282
-8.52075e-278
-5.65404e-282
-8.94746e-278
-2.38147e-285
-7.72557e-278
-6.76337e-281
1.39856e-279
-3.18816e-275
2.89396e-278
-2.64295e-274
6.18252e-278
-4.27723e-274
1.00874e-277
-5.65681e-274
1.40556e-277
-6.66595e-274
1.72749e-277
-7.08871e-274
1.95906e-277
-7.063e-274
2.06566e-277
-6.6261e-274
2.06432e-277
-5.95479e-274
1.9747e-277
-5.17041e-274
1.81689e-277
-4.35349e-274
1.61207e-277
-3.56027e-274
1.38128e-277
-2.82947e-274
1.14339e-277
-2.18456e-274
9.1429e-278
-1.63737e-274
7.05754e-278
-1.18995e-274
5.25314e-278
-8.37196e-275
3.76554e-278
-5.69273e-275
2.5946e-278
-3.73297e-275
1.71519e-278
-2.35542e-275
1.08515e-278
-1.42624e-275
6.55328e-279
-8.26399e-276
3.76644e-279
-4.56759e-276
2.05332e-279
-2.39973e-276
1.05788e-279
-1.19388e-276
5.12991e-280
-5.60086e-277
2.33081e-280
-2.46622e-277
9.87301e-281
-1.01407e-277
3.8772e-281
-3.87175e-278
1.40286e-281
-1.36399e-278
4.64429e-282
-4.40284e-279
1.39594e-282
-1.29203e-279
3.77635e-283
-3.41679e-280
9.10504e-284
-8.06281e-281
1.93505e-284
-1.67898e-281
3.57976e-285
-3.04663e-282
5.68271e-286
-4.74855e-283
7.61528e-287
-6.25345e-284
8.45386e-288
-6.82743e-285
7.60647e-289
-6.0454e-286
5.40814e-290
-4.23164e-287
2.94966e-291
-2.27244e-288
1.19194e-292
-9.03788e-290
3.42583e-294
-2.55373e-291
6.67564e-296
-4.8808e-293
8.33934e-298
-5.95527e-295
6.26099e-300
-4.33589e-297
2.62999e-302
-1.74453e-299
5.80342e-305
-3.5971e-302
6.92166e-308
-3.76992e-305
6.10158e-311
-2.57642e-308
5.83389e-314
-1.67731e-311
6.1795e-317
-9.77484e-315
6.90556e-320
-2.08623e-318
8.89318e-323
0
0
0
0
0
0
0
0
0
0
0
0
0
0
0
0
0
0
0
0
0
0
0
0
0
0
0
0
0
0
0
0
0
0
0
0
0
0
0
0
0
0
0
0
0
0
0
0
0
0
0
0
0
0
0
0
0
0
0
0
0
0
0
0
0
0
0
0
0
0
0
0
0
0
0
0
0
0
0
0
0
0
0
0
0
0
0
0
0
0
0
0
0
0
0
0
0
0
0
0
0
0
0
0
0
0
0
0
0
0
0
0
0
0
0
0
0
0
0
0
0
0
0
0
0
0
0
0
0
0
0
0
0
0
0
0
0
0
0
0
0
0
0
0
0
0
0
0
0
0
0
0
0
0
0
0
0
0
0
0
0
0
0
0
0
0
0
0
0
0
0
0
0
0
0
0
0
-2.96439e-323
0
-2.19711e-320
0
-1.60906e-317
5.43472e-323
-1.14034e-314
-3.70386e-316
-6.80152e-312
-1.5443e-312
-3.32299e-309
-1.66088e-309
-1.28709e-306
-1.15323e-306
-3.80085e-304
-5.68135e-304
-8.1865e-302
-1.99322e-301
-1.23149e-299
-4.85623e-299
-1.25566e-297
-7.95848e-297
-8.61998e-296
-8.60021e-295
-4.04385e-294
-6.1443e-293
-1.33315e-292
-2.96696e-291
-3.19041e-291
-1.00056e-289
-5.72439e-290
-2.44122e-288
-7.93547e-289
-4.45825e-287
-8.73212e-288
-6.28633e-286
-7.81026e-287
-7.03582e-285
-5.79682e-286
-6.40295e-284
-3.63563e-285
-4.83819e-283
-1.9582e-284
-3.09161e-282
-9.18808e-284
-1.69811e-281
-3.8029e-283
-8.13347e-281
-1.40379e-282
-3.4402e-280
-4.66607e-282
-1.29927e-279
-1.40864e-281
-4.42403e-279
-3.89227e-281
-1.36996e-278
-9.90984e-281
-3.88824e-278
-2.33871e-280
-1.01834e-277
-5.14338e-280
-2.47603e-277
-1.0595e-279
-5.61957e-277
-2.05448e-279
-1.19673e-276
-3.76767e-279
-2.40364e-276
-6.56121e-279
-4.57499e-276
-1.08853e-278
-8.28704e-276
-1.72488e-278
-1.43342e-275
-2.61645e-278
-2.37417e-275
-3.808e-278
-3.77468e-275
-5.32824e-278
-5.77562e-275
-7.18277e-278
-8.52462e-275
-9.34463e-278
-1.21675e-274
-1.17518e-277
-1.68316e-274
-1.43024e-277
-2.26148e-274
-1.68559e-277
-2.95652e-274
-1.9242e-277
-3.76634e-274
-2.12678e-277
-4.68129e-274
-2.27429e-277
-5.68217e-274
-2.34998e-277
-6.74258e-274
-2.34077e-277
-7.8306e-274
-2.23774e-277
-8.91039e-274
-2.03691e-277
-9.94065e-274
-1.74273e-277
-1.08726e-273
-1.36325e-277
-1.16623e-273
-7.7527e-278
-1.22331e-273
-3.49429e-281
-1.05702e-273
-9.90742e-277
4.97341e-276
-1.62658e-271
4.40152e-274
-4.9978e-270
7.38178e-274
-5.61118e-270
1.04759e-273
-6.19236e-270
1.35575e-273
-6.62065e-270
1.61423e-273
-6.71928e-270
1.79459e-273
-6.51157e-270
1.88051e-273
-6.0465e-270
1.88079e-273
-5.42673e-270
1.80655e-273
-4.72596e-270
1.67241e-273
-4.0013e-270
1.49515e-273
-3.29603e-270
1.29225e-273
-2.64182e-270
1.08e-273
-2.05915e-270
8.72679e-274
-1.55952e-270
6.81296e-274
-1.14623e-270
5.13326e-274
-8.16309e-271
3.72806e-274
-5.62372e-271
2.60503e-274
-3.73972e-271
1.74809e-274
-2.39529e-271
1.12383e-274
-1.47379e-271
6.90397e-275
-8.68676e-272
4.0411e-275
-4.88967e-272
2.24637e-275
-2.61944e-272
1.18161e-275
-1.3305e-272
5.85791e-276
-6.38118e-273
2.72489e-276
-2.87664e-273
1.18346e-276
-1.21277e-273
4.77282e-277
-4.75519e-274
1.77649e-277
-1.7233e-274
6.06123e-278
-5.73288e-275
1.8813e-278
-1.73724e-275
5.26671e-279
-4.75424e-276
1.31713e-279
-1.16367e-276
2.91083e-280
-2.51982e-277
5.61512e-281
-4.76789e-278
9.32328e-282
-7.77289e-279
1.31122e-282
-1.07431e-279
1.53335e-283
-1.23562e-280
1.45936e-284
-1.1574e-281
1.10258e-285
-8.60992e-283
6.42267e-287
-4.93902e-284
2.78744e-288
-2.11027e-285
8.65734e-290
-6.44599e-287
1.83508e-291
-1.34093e-288
2.51116e-293
-1.79377e-290
2.07995e-295
-1.44255e-292
9.70011e-298
-6.45557e-295
2.37804e-300
-1.48437e-297
3.07341e-303
-1.70198e-300
2.74117e-306
-1.19066e-303
2.5731e-309
-7.61518e-307
2.70089e-312
-4.39921e-310
3.00546e-315
-9.43451e-314
3.93991e-318
1.19514e-320
5.38532e-321
3.95253e-323
4.94066e-324
0
0
0
0
0
0
0
0
0
0
0
0
0
0
0
0
0
0
0
0
0
0
0
0
0
0
0
0
0
0
0
0
0
0
0
0
0
0
0
0
0
0
0
0
0
0
0
0
0
0
0
0
0
0
0
0
0
0
0
0
0
0
0
0
0
0
0
0
0
0
0
0
0
0
0
0
0
0
0
0
0
0
0
0
0
0
0
0
0
0
0
0
0
0
0
0
0
0
0
0
0
0
0
0
0
0
0
0
0
0
0
0
0
0
0
0
0
0
0
0
0
0
0
0
0
0
0
0
0
0
0
0
0
0
0
0
0
0
0
0
0
0
0
0
0
0
0
0
0
0
0
0
0
0
0
0
0
0
0
0
0
0
0
0
0
0
0
0
0
0
0
-1.59089e-321
0
-1.16641e-318
1.97626e-323
-8.53112e-316
8.36947e-321
-6.22845e-313
2.68232e-318
-4.3896e-310
-1.54217e-311
-2.58882e-307
-6.14295e-308
-1.24191e-304
-6.49509e-305
-4.68211e-302
-4.41184e-302
-1.33135e-299
-2.10823e-299
-2.72736e-297
-7.09427e-297
-3.85572e-295
-1.63693e-294
-3.66191e-293
-2.51078e-292
-2.33186e-291
-2.5188e-290
-1.01474e-289
-1.6653e-288
-3.11112e-288
-7.44787e-287
-6.95186e-287
-2.33355e-285
-1.16976e-285
-5.31292e-284
-1.5274e-284
-9.09574e-283
-1.58965e-283
-1.20775e-281
-1.35017e-282
-1.27829e-280
-9.55179e-282
-1.10456e-279
-5.72969e-281
-7.9549e-279
-2.96043e-280
-4.86158e-278
-1.33606e-279
-2.56151e-277
-5.3322e-279
-1.18007e-276
-1.90237e-278
-4.81283e-276
-6.1246e-278
-1.75677e-275
-1.79418e-277
-5.79387e-275
-4.81902e-277
-1.74101e-274
-1.19474e-276
-4.80333e-274
-2.75047e-276
-1.22502e-273
-5.91137e-276
-2.90563e-273
-1.19198e-275
-6.44473e-273
-2.26568e-275
-1.34349e-272
-4.0775e-275
-2.64507e-272
-6.97539e-275
-4.94065e-272
-1.13791e-274
-8.79139e-272
-1.7747e-274
-1.49526e-271
-2.65223e-274
-2.4376e-271
-3.80688e-274
-3.81838e-271
-5.25921e-274
-5.76224e-271
-7.00809e-274
-8.39767e-271
-9.02219e-274
-1.18489e-270
-1.12378e-273
-1.62198e-270
-1.35553e-273
-2.1584e-270
-1.58415e-273
-2.79656e-270
-1.79428e-273
-3.53254e-270
-1.96925e-273
-4.35626e-270
-2.09308e-273
-5.2504e-270
-2.15177e-273
-6.19239e-270
-2.13379e-273
-7.15535e-270
-2.03132e-273
-8.10619e-270
-1.84205e-273
-9.00698e-270
-1.57189e-273
-9.81573e-270
-1.22788e-273
-1.05013e-269
-6.98904e-274
-1.09987e-269
-3.38773e-277
-9.50877e-270
-9.57023e-273
1.90286e-272
-7.17885e-268
3.52135e-270
-4.528e-266
5.70483e-270
-4.68711e-266
7.77745e-270
-4.80112e-266
9.72377e-270
-4.85765e-266
1.13129e-269
-4.76651e-266
1.23944e-269
-4.52707e-266
1.29306e-269
-4.17015e-266
1.29335e-269
-3.73476e-266
1.24585e-269
-3.25746e-266
1.1589e-269
-2.76904e-266
1.04265e-269
-2.29433e-266
9.08016e-270
-1.85236e-266
7.65498e-270
-1.45612e-266
6.24579e-270
-1.11341e-266
4.92841e-270
-8.27061e-267
3.75686e-270
-5.95871e-267
2.76311e-270
-4.15703e-267
1.95723e-270
-2.80218e-267
1.33277e-270
-1.82121e-267
8.70392e-271
-1.13828e-267
5.43783e-271
-6.82291e-268
3.24075e-271
-3.91021e-268
1.83646e-271
-2.13536e-268
9.86028e-272
-1.10709e-268
4.99646e-272
-5.42705e-269
2.37903e-272
-2.5042e-269
1.05925e-272
-1.08231e-269
4.38651e-273
-4.3574e-270
1.67942e-273
-1.6243e-270
5.90489e-274
-5.56832e-271
1.89247e-274
-1.74231e-271
5.48233e-275
-4.93394e-272
1.42209e-275
-1.25259e-272
3.26807e-276
-2.82046e-273
6.57394e-277
-5.56504e-274
1.14174e-277
-9.48977e-275
1.68529e-278
-1.37662e-275
2.07622e-279
-1.66807e-276
2.09039e-280
-1.65299e-277
1.67844e-281
-1.30696e-278
1.04439e-282
-8.00986e-280
4.86939e-284
-3.67747e-281
1.63491e-285
-1.21479e-282
3.77189e-287
-2.75207e-284
5.65864e-289
-4.03937e-286
5.1766e-291
-3.5921e-288
2.68478e-293
-1.79084e-290
7.33835e-296
-4.60681e-293
1.03736e-298
-5.82914e-296
9.46853e-302
-4.22971e-299
8.72916e-305
-2.66398e-302
9.078e-308
-1.52912e-305
1.00637e-310
-3.37827e-309
1.32017e-313
4.94881e-316
1.81251e-316
1.59304e-318
2.48149e-319
3.44858e-321
3.35965e-322
4.94066e-324
0
0
0
0
0
0
0
0
0
0
0
0
0
0
0
0
0
0
0
0
0
0
0
0
0
0
0
0
0
0
0
0
0
0
0
0
0
0
0
0
0
0
0
0
0
0
0
0
0
0
0
0
0
0
0
0
0
0
0
0
0
0
0
0
0
0
0
0
0
0
0
0
0
0
0
0
0
0
0
0
0
0
0
0
0
0
0
0
0
0
0
0
0
0
0
0
0
0
0
0
0
0
0
0
0
0
0
0
0
0
0
0
0
0
0
0
0
0
0
0
0
0
0
0
0
0
0
0
0
0
0
0
0
0
0
0
0
0
0
0
0
0
0
0
0
0
0
0
0
0
0
0
0
0
0
0
0
0
0
0
0
0
0
0
-8.89318e-323
0
-6.52809e-320
0
-4.78699e-317
1.25493e-321
-3.49685e-314
6.70823e-319
-2.54729e-311
3.11141e-316
-1.85233e-308
9.83119e-314
-1.29585e-305
-5.01402e-307
-7.53915e-303
-1.87981e-303
-3.54139e-300
-1.94557e-300
-1.29526e-297
-1.28805e-297
-3.5328e-295
-5.94663e-295
-6.85423e-293
-1.9111e-292
-9.0693e-291
-4.15721e-290
-7.99706e-289
-5.9428e-288
-4.71325e-287
-5.517e-286
-1.90007e-285
-3.36837e-284
-5.41396e-284
-1.39359e-282
-1.12913e-282
-4.05434e-281
-1.78151e-281
-8.61076e-280
-2.19093e-280
-1.3818e-278
-2.15671e-279
-1.72773e-277
-1.73938e-278
-1.72934e-276
-1.17274e-277
-1.41881e-275
-6.72733e-277
-9.73772e-275
-3.33412e-276
-5.69096e-274
-1.44724e-275
-2.87618e-273
-5.56933e-275
-1.27442e-272
-1.92036e-274
-5.01182e-272
-5.98823e-274
-1.7681e-271
-1.70248e-273
-5.6481e-271
-4.44561e-273
-1.64717e-270
-1.07337e-272
-4.41822e-270
-2.41061e-272
-1.0974e-269
-5.06269e-272
-2.53931e-269
-9.9914e-272
-5.50381e-269
-1.86138e-271
-1.12298e-268
-3.28724e-271
-2.16701e-268
-5.52402e-271
-3.97204e-268
-8.86099e-271
-6.94288e-268
-1.3603e-270
-1.16116e-267
-2.00317e-270
-1.86331e-267
-2.83616e-270
-2.87616e-267
-3.86909e-270
-4.28145e-267
-5.09648e-270
-6.16155e-267
-6.49223e-270
-8.59387e-267
-8.00859e-270
-1.16403e-266
-9.57378e-270
-1.53404e-266
-1.10954e-269
-1.9698e-266
-1.24702e-269
-2.46749e-266
-1.3591e-269
-3.01946e-266
-1.43578e-269
-3.61411e-266
-1.46824e-269
-4.23685e-266
-1.44904e-269
-4.87017e-266
-1.37358e-269
-5.4917e-266
-1.24135e-269
-6.07639e-266
-1.05699e-269
-6.59915e-266
-8.24606e-270
-7.04313e-266
-4.70035e-270
-7.36464e-266
-2.45208e-273
-6.371e-266
-6.88943e-269
7.56792e-269
-2.83655e-264
2.0551e-266
-2.80135e-262
3.34317e-266
-2.86395e-262
4.47567e-266
-2.8365e-262
5.48454e-266
-2.78402e-262
6.28805e-266
-2.67566e-262
6.83955e-266
-2.5111e-262
7.11705e-266
-2.30031e-262
7.12293e-266
-2.05746e-262
6.88076e-266
-1.7974e-262
6.42978e-266
-1.53364e-262
5.81941e-266
-1.27766e-262
5.10454e-266
-1.03862e-262
4.33927e-266
-8.2307e-263
3.57375e-266
-6.35169e-263
2.84938e-266
-4.76679e-263
2.19689e-266
-3.47331e-263
1.63591e-266
-2.45313e-263
1.17442e-266
-1.67583e-263
8.11351e-267
-1.10496e-263
5.38165e-267
-7.01394e-264
3.41871e-267
-4.27466e-264
2.07412e-267
-2.49383e-264
1.19801e-267
-1.38808e-264
6.56482e-268
-7.34452e-265
3.39975e-268
-3.67945e-265
1.65679e-268
-1.73763e-265
7.56163e-269
-7.69792e-266
3.21511e-269
-3.18198e-266
1.26605e-269
-1.21994e-266
4.58699e-270
-4.30932e-267
1.51788e-270
-1.39216e-267
4.54994e-271
-4.07925e-268
1.22411e-271
-1.07408e-268
2.92519e-272
-2.51484e-269
6.13592e-273
-5.17418e-270
1.11468e-273
-9.22901e-271
1.72688e-274
-1.40513e-271
2.24126e-275
-1.79375e-272
2.38721e-276
-1.88052e-273
2.03717e-277
-1.58039e-274
1.35422e-278
-1.03488e-275
6.78443e-280
-5.1065e-277
2.46329e-281
-1.82478e-278
6.18854e-283
-4.50406e-280
1.01854e-284
-7.25846e-282
1.03013e-286
-7.14442e-284
5.9503e-289
-3.97383e-286
1.81887e-291
-1.14683e-288
2.83604e-294
-1.61366e-291
2.68308e-297
-1.23155e-294
2.43278e-300
-7.66599e-298
2.50562e-303
-4.37821e-301
2.76798e-306
-1.00916e-304
3.63309e-309
1.60064e-311
5.01327e-312
5.23721e-314
6.89879e-315
1.14355e-316
9.45743e-318
2.15739e-319
1.29001e-320
3.7549e-322
1.97626e-323
0
0
0
0
0
0
0
0
0
0
0
0
0
0
0
0
0
0
0
0
0
0
0
0
0
0
0
0
0
0
0
0
0
0
0
0
0
0
0
0
0
0
0
0
0
0
0
0
0
0
0
0
0
0
0
0
0
0
0
0
0
0
0
0
0
0
0
0
0
0
0
0
0
0
0
0
0
0
0
0
0
0
0
0
0
0
0
0
0
0
0
0
0
0
0
0
0
0
0
0
0
0
0
0
0
0
0
0
0
0
0
0
0
0
0
0
0
0
0
0
0
0
0
0
0
0
0
0
0
0
0
0
0
0
0
0
0
0
0
0
0
0
0
0
0
0
0
0
0
0
0
0
0
0
0
0
0
-4.94066e-324
0
-3.00886e-321
0
-2.21774e-318
1.08694e-322
-1.62583e-315
6.494e-320
-1.1861e-312
3.72757e-317
-8.62029e-310
1.97932e-314
-6.24784e-307
9.09653e-312
-4.52063e-304
2.81874e-309
-3.13279e-301
-1.35902e-302
-1.79403e-298
-4.7195e-299
-8.22984e-296
-4.76405e-296
-2.91077e-293
-3.06394e-293
-7.58634e-291
-1.36157e-290
-1.38817e-288
-4.16159e-288
-1.71227e-286
-8.49673e-286
-1.39751e-284
-1.12742e-283
-7.60818e-283
-9.65679e-282
-2.83783e-281
-5.43456e-280
-7.50951e-280
-2.0776e-278
-1.46116e-278
-5.6089e-277
-2.16118e-277
-1.11081e-275
-2.50308e-276
-1.67055e-274
-2.33038e-275
-1.96678e-273
-1.78457e-274
-1.86167e-272
-1.14665e-273
-1.45018e-271
-6.28981e-273
-9.48488e-271
-2.99014e-272
-5.30056e-270
-1.2484e-271
-2.56963e-269
-4.63238e-271
-1.09516e-268
-1.54376e-270
-4.15296e-268
-4.66261e-270
-1.41604e-267
-1.28653e-269
-4.3814e-267
-3.26643e-269
-1.24014e-266
-7.68129e-269
-3.23442e-266
-1.68297e-268
-7.82473e-266
-3.45391e-268
-1.76645e-265
-6.67133e-268
-3.74146e-265
-1.21809e-267
-7.47166e-265
-2.11088e-267
-1.41312e-264
-3.48447e-267
-2.54177e-264
-5.49612e-267
-4.36439e-264
-8.30544e-267
-7.17755e-264
-1.20528e-266
-1.13377e-263
-1.68356e-266
-1.72464e-263
-2.26823e-266
-2.53283e-263
-2.95358e-266
-3.59986e-263
-3.72268e-266
-4.96349e-263
-4.54724e-266
-6.65193e-263
-5.3868e-266
-8.68068e-263
-6.19088e-266
-1.10462e-262
-6.90464e-266
-1.37225e-262
-7.47325e-266
-1.66643e-262
-7.84699e-266
-1.98099e-262
-7.98141e-266
-2.3084e-262
-7.83966e-266
-2.63932e-262
-7.40132e-266
-2.96204e-262
-6.66854e-266
-3.26397e-262
-5.66636e-266
-3.53345e-262
-4.4131e-266
-3.76256e-262
-2.51699e-266
-3.92736e-262
-1.41079e-269
-3.39932e-262
-3.94812e-265
2.84282e-265
-1.01392e-260
9.70365e-263
-1.34479e-258
1.58399e-262
-1.38336e-258
2.09511e-262
-1.34866e-258
2.53924e-262
-1.30278e-258
2.89085e-262
-1.23785e-258
3.13296e-262
-1.15376e-258
3.25742e-262
-1.05373e-258
3.26473e-262
-9.4242e-259
3.16387e-262
-8.2511e-259
2.97039e-262
-7.06846e-259
2.70449e-262
-5.92099e-259
2.38921e-262
-4.84599e-259
2.04773e-262
-3.87092e-259
1.70211e-262
-3.01438e-259
1.37108e-262
-2.2852e-259
1.06906e-262
-1.68376e-259
8.05886e-263
-1.20376e-259
5.86278e-263
-8.33268e-260
4.10878e-263
-5.57313e-260
2.76768e-263
-3.59242e-260
1.78753e-263
-2.22585e-260
1.1039e-263
-1.32174e-260
6.49831e-264
-7.4975e-261
3.63394e-264
-4.04819e-261
1.92315e-264
-2.0724e-261
9.5913e-265
-1.00155e-261
4.48681e-265
-4.54762e-262
1.95858e-265
-1.92981e-262
7.93185e-266
-7.60881e-263
2.96101e-266
-2.76924e-263
1.0116e-266
-9.23607e-264
3.13751e-267
-2.80007e-264
8.75453e-268
-7.64617e-265
2.1753e-268
-1.86146e-265
4.75793e-269
-3.99345e-266
9.04066e-270
-7.45019e-267
1.46995e-270
-1.19046e-267
2.00981e-271
-1.60097e-268
2.26461e-272
-1.77564e-269
2.05401e-273
-1.58613e-270
1.45885e-274
-1.10985e-271
7.85443e-276
-5.88655e-273
3.08467e-277
-2.27602e-274
8.44221e-279
-6.12297e-276
1.52525e-280
-1.08399e-277
1.70693e-282
-1.18196e-279
1.09958e-284
-7.34428e-282
3.76898e-287
-2.38374e-284
6.53054e-290
-3.75474e-287
6.49135e-293
-3.05735e-290
5.80511e-296
-1.89104e-293
5.91706e-299
-1.07524e-296
6.51541e-302
-2.6102e-300
8.55502e-305
4.27074e-307
1.18767e-307
1.42783e-309
1.6444e-310
3.15049e-312
2.26826e-313
5.99249e-315
3.11377e-316
1.053e-317
4.24921e-319
1.75789e-320
5.78057e-322
2.96439e-323
0
0
0
0
0
0
0
0
0
0
0
0
0
0
0
0
0
0
0
0
0
0
0
0
0
0
0
0
0
0
0
0
0
0
0
0
0
0
0
0
0
0
0
0
0
0
0
0
0
0
0
0
0
0
0
0
0
0
0
0
0
0
0
0
0
0
0
0
0
0
0
0
0
0
0
0
0
0
0
0
0
0
0
0
0
0
0
0
0
0
0
0
0
0
0
0
0
0
0
0
0
0
0
0
0
0
0
0
0
0
0
0
0
0
0
0
0
0
0
0
0
0
0
0
0
0
0
0
0
0
0
0
0
0
0
0
0
0
0
0
0
0
0
0
0
0
0
0
0
0
0
0
-1.18576e-322
0
-8.82204e-320
4.94066e-324
-6.51109e-317
4.34284e-321
-4.77174e-314
2.70092e-318
-3.47641e-311
1.6189e-315
-2.52055e-308
9.22241e-313
-1.82069e-305
4.85645e-310
-1.31164e-302
2.2075e-307
-9.43363e-300
6.67525e-305
-6.46264e-297
-3.18088e-298
-3.63469e-294
-1.01246e-294
-1.624e-291
-9.93317e-292
-5.53647e-289
-6.18598e-289
-1.37355e-286
-2.63639e-286
-2.36045e-284
-7.63149e-284
-2.70353e-282
-1.45598e-281
-2.03628e-280
-1.78618e-279
-1.02209e-278
-1.4075e-277
-3.52345e-277
-7.28863e-276
-8.65323e-276
-2.57211e-274
-1.57018e-274
-6.43982e-273
-2.17663e-273
-1.18885e-271
-2.37396e-272
-1.67523e-270
-2.09035e-271
-1.85699e-269
-1.51996e-270
-1.66232e-268
-9.30752e-270
-1.22948e-267
-4.88212e-269
-7.66355e-267
-2.22625e-268
-4.0953e-266
-8.94061e-268
-1.90438e-265
-3.19907e-267
-7.80731e-265
-1.03041e-266
-2.85495e-264
-3.0144e-266
-9.4089e-264
-8.07252e-266
-2.81989e-263
-1.99294e-265
-7.74675e-263
-4.56499e-265
-1.96468e-262
-9.7586e-265
-4.62988e-262
-1.95714e-264
-1.01982e-261
-3.69986e-264
-2.11096e-261
-6.62076e-264
-4.12606e-261
-1.12582e-263
-7.64835e-261
-1.82557e-263
-1.34995e-260
-2.83165e-263
-2.27707e-260
-4.21244e-263
-3.68265e-260
-6.02462e-263
-5.72665e-260
-8.30276e-263
-8.58522e-260
-1.10477e-262
-1.244e-259
-1.42208e-262
-1.74623e-259
-1.77331e-262
-2.38017e-259
-2.14472e-262
-3.15601e-259
-2.51752e-262
-4.07807e-259
-2.8691e-262
-5.14223e-259
-3.17568e-262
-6.335e-259
-3.41401e-262
-7.63528e-259
-3.56334e-262
-9.01538e-259
-3.60514e-262
-1.04426e-258
-3.52446e-262
-1.18757e-258
-3.31436e-262
-1.32648e-258
-2.97722e-262
-1.45587e-258
-2.52385e-262
-1.57129e-258
-1.96146e-262
-1.6693e-258
-1.11861e-262
-1.73912e-258
-6.72353e-266
-1.50597e-258
-1.87803e-261
9.74732e-262
-3.29417e-257
3.81439e-259
-5.32751e-255
6.28861e-259
-5.54752e-255
8.27575e-259
-5.36973e-255
9.97235e-259
-5.14405e-255
1.13136e-258
-4.85858e-255
1.22445e-258
-4.51328e-255
1.2738e-258
-4.11807e-255
1.27951e-258
-3.68727e-255
1.24455e-258
-3.23762e-255
1.17423e-258
-2.78573e-255
1.07566e-258
-2.34679e-255
9.571e-259
-1.93394e-255
8.27063e-259
-1.55717e-255
6.93827e-259
-1.2236e-255
5.64614e-259
-9.36986e-256
4.45196e-259
-6.98068e-256
3.39714e-259
-5.05139e-256
2.50426e-259
-3.54287e-256
1.78025e-259
-2.40342e-256
1.21772e-259
-1.5731e-256
7.99546e-260
-9.90818e-257
5.02564e-260
-5.98812e-257
3.0149e-260
-3.46138e-257
1.72039e-260
-1.90699e-257
9.30337e-261
-9.97506e-258
4.748e-261
-4.93287e-258
2.27638e-261
-2.29543e-258
1.02007e-261
-9.99899e-259
4.24816e-262
-4.05394e-259
1.63387e-262
-1.52003e-259
5.76258e-263
-5.23344e-260
1.84914e-263
-1.64144e-260
5.35084e-264
-4.64823e-261
1.3824e-264
-1.17654e-261
3.15268e-265
-2.63167e-262
6.26542e-266
-5.13483e-263
1.06909e-266
-8.61052e-264
1.53983e-267
-1.21983e-264
1.83545e-268
-1.43123e-265
1.76941e-269
-1.35891e-266
1.34277e-270
-1.01606e-267
7.7701e-272
-5.79314e-269
3.3013e-273
-2.42392e-270
9.84536e-275
-7.10896e-272
1.95353e-276
-1.38322e-273
2.42102e-278
-1.67206e-275
1.7415e-280
-1.16207e-277
6.7094e-283
-4.2513e-280
1.30029e-285
-7.53979e-283
1.37701e-288
-6.64258e-286
1.22031e-291
-4.11376e-289
1.22972e-294
-2.32883e-292
1.35005e-297
-6.00019e-296
1.77275e-300
9.74468e-303
2.47848e-303
3.34686e-305
3.45614e-306
7.47677e-308
4.80179e-309
1.43584e-310
6.63977e-312
2.54488e-313
9.12773e-315
4.28364e-316
1.24607e-317
6.94439e-319
1.68723e-320
1.09189e-321
2.47033e-323
0
0
0
0
0
0
0
0
0
0
0
0
0
0
0
0
0
0
0
0
0
0
0
0
0
0
0
0
0
0
0
0
0
0
0
0
0
0
0
0
0
0
0
0
0
0
0
0
0
0
0
0
0
0
0
0
0
0
0
0
0
0
0
0
0
0
0
0
0
0
0
0
0
0
0
0
0
0
0
0
0
0
0
0
0
0
0
0
0
0
0
0
0
0
0
0
0
0
0
0
0
0
0
0
0
0
0
0
0
0
0
0
0
0
0
0
0
0
0
0
0
0
0
0
0
0
0
0
0
0
0
0
0
0
0
0
0
0
0
0
0
0
0
0
0
-4.94066e-324
0
-3.09285e-321
0
-2.30569e-318
2.2727e-322
-1.7029e-315
1.49534e-319
-1.24753e-312
9.50823e-317
-9.07585e-310
5.86795e-314
-6.56425e-307
3.48812e-311
-4.72524e-304
1.96968e-308
-3.389e-301
1.02713e-305
-2.4243e-298
4.60985e-303
-1.73149e-295
1.35416e-300
-1.17028e-292
-6.57189e-294
-6.44886e-290
-1.90911e-290
-2.79851e-287
-1.81402e-287
-9.16484e-285
-1.09011e-284
-2.1556e-282
-4.43861e-282
-3.46388e-280
-1.2115e-279
-3.66976e-278
-2.15007e-277
-2.54354e-276
-2.42944e-275
-1.175e-274
-1.75644e-273
-3.73997e-273
-8.35551e-272
-8.51971e-272
-2.71949e-270
-1.44131e-270
-6.31149e-269
-1.87225e-269
-1.08587e-267
-1.92276e-268
-1.4335e-266
-1.60131e-267
-1.49604e-265
-1.10566e-266
-1.26656e-264
-6.45275e-266
-8.89517e-264
-3.23675e-265
-5.28424e-263
-1.41582e-264
-2.70043e-262
-5.46949e-264
-1.20459e-261
-1.88728e-263
-4.75059e-261
-5.87553e-263
-1.6753e-260
-1.66495e-262
-5.33673e-260
-4.3277e-262
-1.54934e-259
-1.03899e-261
-4.13142e-259
-2.31835e-261
-1.01897e-258
-4.8357e-261
-2.33925e-258
-9.47791e-261
-5.02789e-258
-1.75366e-260
-1.01714e-257
-3.07563e-260
-1.9459e-257
-5.13204e-260
-3.53536e-257
-8.17505e-260
-6.12347e-257
-1.24698e-259
-1.01472e-256
-1.82626e-259
-1.61391e-256
-2.57427e-259
-2.47087e-256
-3.50033e-259
-3.65099e-256
-4.59995e-259
-5.21982e-256
-5.85312e-259
-7.2368e-256
-7.22076e-259
-9.75115e-256
-8.64648e-259
-1.27921e-255
-1.00567e-258
-1.63664e-255
-1.1366e-258
-2.04492e-255
-1.24872e-258
-2.49837e-255
-1.33359e-258
-2.98878e-255
-1.38368e-258
-3.50559e-255
-1.39243e-258
-4.03641e-255
-1.35485e-258
-4.56584e-255
-1.26909e-258
-5.07577e-255
-1.13646e-258
-5.54917e-255
-9.60928e-259
-5.97098e-255
-7.4514e-259
-6.32814e-255
-4.24947e-259
-6.57985e-255
-2.74019e-262
-5.70018e-255
-7.63358e-258
3.01471e-258
-9.76417e-254
1.30299e-255
-1.8095e-251
2.15697e-255
-1.90562e-251
2.82795e-255
-1.83952e-251
3.39842e-255
-1.7557e-251
3.85042e-255
-1.65394e-251
4.16801e-255
-1.53481e-251
4.34297e-255
-1.40126e-251
4.37514e-255
-1.25735e-251
4.27311e-255
-1.1079e-251
4.05279e-255
-9.57822e-252
3.73593e-255
-8.11694e-252
3.34845e-255
-6.73601e-252
2.91751e-255
-5.46751e-252
2.47021e-255
-4.33538e-252
2.03077e-255
-3.35341e-252
1.61923e-255
-2.5261e-252
1.25069e-255
-1.85011e-252
9.34187e-256
-1.31469e-252
6.73606e-256
-9.04553e-253
4.67859e-256
-6.01131e-253
3.12278e-256
-3.84866e-253
1.99771e-256
-2.36713e-253
1.22122e-256
-1.39423e-253
7.11043e-257
-7.8371e-254
3.92869e-257
-4.18829e-254
2.05157e-257
-2.11916e-254
1.00798e-257
-1.0105e-254
4.63637e-258
-4.518e-255
1.98541e-258
-1.8834e-255
7.86646e-259
-7.27455e-256
2.86398e-259
-2.58529e-256
9.50748e-260
-8.38815e-257
2.85293e-260
-2.46308e-257
7.66293e-261
-6.48138e-258
1.82202e-261
-1.51142e-258
3.78684e-262
-3.08401e-259
6.78075e-263
-5.42676e-260
1.02876e-263
-8.09807e-261
1.29717e-264
-1.00509e-261
1.32906e-265
-1.01429e-262
1.07766e-266
-8.1038e-264
6.70247e-268
-4.96681e-265
3.08103e-269
-2.24904e-266
1.00146e-270
-7.1922e-268
2.18326e-272
-1.53861e-269
2.99847e-274
-2.06333e-271
2.41125e-276