/*--------------------------------*- C++ -*----------------------------------*\
| =========                 |                                                 |
| \\      /  F ield         | OpenFOAM: The Open Source CFD Toolbox           |
|  \\    /   O peration     | Version:  2412                                  |
|   \\  /    A nd           | Website:  www.openfoam.com                      |
|    \\/     M anipulation  |                                                 |
\*---------------------------------------------------------------------------*/
FoamFile
{
    version     2.0;
    format      ascii;
    arch        "LSB;label=32;scalar=64";
    class       volScalarField;
    location    "1.02";
    object      alpha.water;
}
// * * * * * * * * * * * * * * * * * * * * * * * * * * * * * * * * * * * * * //

dimensions      [0 0 0 0 0 0 0];

internalField   nonuniform List<scalar> 
40000
(
8.79962e-277
6.9979e-281
2.46936e-276
6.31861e-276
1.10405e-275
1.2251e-275
1.22058e-275
1.11138e-275
9.54175e-276
7.95598e-276
6.46048e-276
5.1023e-276
3.9258e-276
2.93955e-276
2.13892e-276
1.5095e-276
1.03045e-276
6.79372e-277
4.31536e-277
2.63391e-277
1.5403e-277
8.6032e-278
4.57388e-278
2.30622e-278
1.09842e-278
4.9208e-279
2.06372e-279
8.06012e-280
2.91471e-280
9.69547e-281
2.94502e-281
8.10279e-282
2.00092e-282
4.38973e-283
8.45848e-284
1.41292e-284
2.01577e-285
2.41481e-286
2.38169e-287
1.89032e-288
1.17596e-289
5.56064e-291
1.9282e-292
4.70255e-294
7.68248e-296
7.94413e-298
4.87311e-300
1.65342e-302
2.94966e-305
2.99467e-308
2.48729e-311
2.25011e-314
2.6317e-317
0
0
0
0
0
0
0
0
0
0
0
0
0
0
0
0
0
0
0
0
0
0
0
0
0
0
0
0
0
0
0
0
0
0
0
0
0
0
0
0
0
0
0
0
0
0
0
0
0
0
0
0
0
0
0
0
0
0
0
0
0
0
0
0
0
0
0
0
0
0
0
0
0
0
0
0
0
0
0
0
0
0
0
0
0
0
0
0
0
0
0
0
0
0
6.07919e-315
3.83574e-312
1.98293e-309
8.19552e-307
2.6219e-304
6.24273e-302
1.0617e-299
1.24776e-297
9.98845e-296
5.48485e-294
2.11131e-292
5.86327e-291
1.21199e-289
1.92159e-288
2.40037e-287
2.41807e-286
2.00684e-285
1.39877e-284
8.33267e-284
4.30691e-283
1.95689e-282
7.90619e-282
2.86973e-281
9.44606e-281
2.84156e-280
7.85949e-280
2.00849e-279
4.766e-279
1.05655e-278
2.20317e-278
4.34894e-278
8.16532e-278
1.46298e-277
2.50654e-277
4.11317e-277
6.47567e-277
9.79908e-277
1.42902e-276
2.01441e-276
2.75445e-276
3.6644e-276
4.7523e-276
6.01214e-276
7.4165e-276
8.91739e-276
1.04589e-275
1.19902e-275
1.34675e-275
1.48313e-275
1.59905e-275
1.6793e-275
1.44558e-275
1.19238e-278
2.58652e-272
3.05533e-276
9.39056e-272
1.73654e-271
2.42246e-271
2.74655e-271
2.81702e-271
2.65756e-271
2.37577e-271
2.04464e-271
1.70394e-271
1.37797e-271
1.08249e-271
8.25869e-272
6.1146e-272
4.38754e-272
3.04587e-272
2.04222e-272
1.31949e-272
8.19639e-273
4.88144e-273
2.77909e-273
1.50757e-273
7.76466e-274
3.78223e-274
1.73504e-274
7.46049e-275
2.99137e-275
1.11204e-275
3.80834e-276
1.19292e-276
3.39068e-277
8.6673e-278
1.97264e-278
3.95251e-279
6.88318e-280
1.02671e-280
1.28998e-281
1.33915e-282
1.12334e-283
7.41997e-285
3.74465e-286
1.39385e-287
3.67176e-289
6.52205e-291
7.38435e-293
4.99576e-295
1.88208e-297
3.73349e-300
4.13134e-303
3.61726e-306
3.50534e-309
3.73015e-312
4.18397e-315
0
0
0
0
0
0
0
0
0
0
0
0
0
0
0
0
0
0
0
0
0
0
0
0
0
0
0
0
0
0
0
0
0
0
0
0
0
0
0
0
0
0
0
0
0
0
0
0
0
0
0
0
0
0
0
0
0
0
0
0
0
0
0
0
0
0
0
0
0
0
0
0
0
0
0
0
0
0
0
0
0
0
0
0
0
0
0
0
0
0
0
1.49991e-315
1.09902e-312
7.83127e-310
4.72202e-307
2.34889e-304
9.34726e-302
2.86782e-299
6.50007e-297
1.04242e-294
1.14523e-292
8.52402e-291
4.34485e-289
1.55499e-287
4.02912e-286
7.80247e-285
1.16368e-283
1.37353e-282
1.31363e-281
1.03962e-280
6.93607e-280
3.96686e-279
1.97349e-278
8.65025e-278
3.37846e-277
1.18738e-276
3.78898e-276
1.10636e-275
2.97574e-275
7.41572e-275
1.72151e-274
3.74317e-274
7.66575e-274
1.48631e-273
2.74046e-273
4.82156e-273
8.11638e-273
1.31014e-272
2.03277e-272
3.03829e-272
4.3856e-272
6.12811e-272
8.3112e-272
1.09629e-271
1.40869e-271
1.76541e-271
2.15893e-271
2.57796e-271
3.00876e-271
3.43731e-271
3.84887e-271
4.22484e-271
4.54409e-271
4.77158e-271
4.11986e-271
3.60688e-274
1.70002e-268
1.40943e-267
2.28092e-267
3.01658e-267
3.55471e-267
3.78019e-267
3.76651e-267
3.53357e-267
3.17561e-267
2.75735e-267
2.32173e-267
1.89874e-267
1.50902e-267
1.1651e-267
8.73287e-268
6.34675e-268
4.46544e-268
3.0365e-268
1.99125e-268
1.2565e-268
7.60869e-269
4.40893e-269
2.43703e-269
1.28048e-269
6.37107e-270
2.9892e-270
1.3164e-270
5.41366e-271
2.06731e-271
7.28449e-272
2.35195e-272
6.90392e-273
1.8264e-273
4.31172e-274
8.98339e-275
1.63117e-275
2.54449e-276
3.35444e-277
3.66738e-278
3.25324e-279
2.28282e-280
1.23008e-281
4.91585e-283
1.39871e-284
2.70087e-286
3.34675e-288
2.49483e-290
1.04156e-292
2.28651e-295
2.71571e-298
2.3863e-301
2.27657e-304
2.4085e-307
2.69092e-310
3.52609e-313
4.73653e-316
0
0
0
0
0
0
0
0
0
0
0
0
0
0
0
0
0
0
0
0
0
0
0
0
0
0
0
0
0
0
0
0
0
0
0
0
0
0
0
0
0
0
0
0
0
0
0
0
0
0
0
0
0
0
0
0
0
0
0
0
0
0
0
0
0
0
0
0
0
0
0
0
0
0
0
0
0
0
0
0
0
0
0
0
0
0
0
1.57884e-316
1.17019e-313
8.5699e-311
6.27075e-308
4.44501e-305
2.65442e-302
1.29972e-299
5.05026e-297
1.49762e-294
3.24236e-292
4.90755e-290
5.03971e-288
3.48796e-286
1.65128e-284
5.49921e-283
1.33077e-281
2.41692e-280
3.39493e-279
3.7893e-278
3.44153e-277
2.59656e-276
1.65729e-275
9.09476e-275
4.35304e-274
1.84015e-273
6.94652e-273
2.36439e-272
7.31932e-272
2.07682e-271
5.43803e-271
1.32197e-270
2.99984e-270
6.38751e-270
1.28278e-269
2.44134e-269
4.42179e-269
7.64782e-269
1.26662e-268
2.01367e-268
3.08094e-268
4.54715e-268
6.49005e-268
8.97751e-268
1.20618e-267
1.57684e-267
2.0087e-267
2.49662e-267
3.03035e-267
3.59582e-267
4.17601e-267
4.75181e-267
5.30119e-267
5.79816e-267
6.21921e-267
6.52353e-267
5.63662e-267
5.28341e-270
8.67311e-265
2.66512e-263
2.99224e-263
3.30212e-263
3.53049e-263
3.58309e-263
3.47234e-263
3.22438e-263
2.8939e-263
2.52024e-263
2.13382e-263
1.75774e-263
1.40889e-263
1.09817e-263
8.31731e-264
6.11331e-264
4.35384e-264
2.99956e-264
1.99476e-264
1.2777e-264
7.86196e-265
4.63425e-265
2.60875e-265
1.39764e-265
7.09973e-266
3.40545e-266
1.53537e-266
6.47397e-267
2.53882e-267
9.20265e-268
3.06215e-268
9.28187e-269
2.54099e-269
6.22203e-270
1.348e-270
2.55222e-271
4.16406e-272
5.76102e-273
6.6347e-274
6.22536e-275
4.64183e-276
2.67128e-277
1.14651e-278
3.52502e-280
7.40406e-282
1.00498e-283
8.26472e-286
3.83065e-288
9.34248e-291
1.20236e-293
1.06893e-296
1.00114e-299
1.04955e-302
1.16762e-305
1.53182e-308
2.09839e-311
2.86821e-314
2.63138e-317
0
0
0
0
0
0
0
0
0
0
0
0
0
0
0
0
0
0
0
0
0
0
0
0
0
0
0
0
0
0
0
0
0
0
0
0
0
0
0
0
0
0
0
0
0
0
0
0
0
0
0
0
0
0
0
0
0
0
0
0
0
0
0
0
0
0
0
0
0
0
0
0
0
0
0
0
0
0
0
0
0
0
0
0
8.47305e-315
6.2123e-312
4.54366e-309
3.31728e-306
2.42004e-303
1.70598e-300
1.00737e-297
4.84342e-295
1.83191e-292
5.23099e-290
1.07719e-287
1.53228e-285
1.46573e-283
9.41005e-282
4.13256e-280
1.27993e-278
2.89211e-277
4.92605e-276
6.51764e-275
6.88068e-274
5.93438e-273
4.26782e-272
2.60541e-271
1.3716e-270
6.31456e-270
2.57396e-269
9.39128e-269
3.09613e-268
9.30079e-268
2.56537e-267
6.54121e-267
1.55122e-266
3.4401e-266
7.17039e-266
1.41154e-265
2.63631e-265
4.69065e-265
7.97734e-265
1.30039e-264
2.03688e-264
3.07366e-264
4.47924e-264
6.31983e-264
8.65085e-264
1.15115e-263
1.49146e-263
1.88393e-263
2.32318e-263
2.79998e-263
3.30228e-263
3.81576e-263
4.32277e-263
4.80309e-263
5.23433e-263
5.59987e-263
5.86504e-263
5.07041e-263
5.10342e-266
3.82775e-261
2.41448e-259
2.49938e-259
2.56015e-259
2.59029e-259
2.54169e-259
2.41402e-259
2.22371e-259
1.99156e-259
1.73706e-259
1.47662e-259
1.2235e-259
9.87829e-260
7.76536e-260
5.93788e-260
4.41087e-260
3.17799e-260
2.21716e-260
1.49461e-260
9.71432e-261
6.07189e-261
3.63974e-261
2.08607e-261
1.13929e-261
5.90723e-262
2.89608e-262
1.3365e-262
5.7771e-263
2.32626e-263
8.6732e-264
2.97397e-264
9.30795e-265
2.63672e-265
6.69652e-266
1.50859e-266
2.97835e-267
5.08263e-268
7.38003e-269
8.95352e-270
8.88696e-271
7.04195e-272
4.32872e-273
1.99581e-274
6.63324e-276
1.51639e-277
2.25638e-279
2.04938e-281
1.05631e-283
2.87216e-286
4.0429e-289
3.67813e-292
3.38319e-295
3.51386e-298
3.89427e-301
5.11226e-304
7.03115e-307
9.6533e-310
1.32162e-312
1.78932e-315
0
0
0
0
0
0
0
0
0
0
0
0
0
0
0
0
0
0
0
0
0
0
0
0
0
0
0
0
0
0
0
0
0
0
0
0
0
0
0
0
0
0
0
0
0
0
0
0
0
0
0
0
0
0
0
0
0
0
0
0
0
0
0
0
0
0
0
0
0
0
0
0
0
0
0
0
0
0
0
0
0
4.73644e-316
3.47681e-313
2.54951e-310
1.8624e-307
1.35667e-304
9.86544e-302
7.16872e-299
5.0165e-296
2.92232e-293
1.37585e-290
5.04868e-288
1.38289e-285
2.69713e-283
3.59103e-281
3.18938e-279
1.8952e-277
7.71069e-276
2.21952e-274
4.68111e-273
7.47645e-272
9.31725e-271
9.30375e-270
7.61966e-269
5.22265e-268
3.04911e-267
1.53977e-266
6.81828e-266
2.67999e-265
9.45062e-265
3.0179e-264
8.79862e-264
2.35948e-263
5.85927e-263
1.35556e-262
2.93765e-262
5.99309e-262
1.15636e-261
2.11935e-261
3.70418e-261
6.1946e-261
9.9398e-261
1.53419e-260
2.28368e-260
3.28637e-260
4.58351e-260
6.20811e-260
8.18121e-260
1.05049e-259
1.31588e-259
1.6102e-259
1.92729e-259
2.25934e-259
2.59703e-259
2.92844e-259
3.24019e-259
3.51893e-259
3.75565e-259
3.92703e-259
3.39711e-259
3.67372e-262
1.51241e-257
1.4937e-255
1.52712e-255
1.51248e-255
1.4845e-255
1.42672e-255
1.33897e-255
1.22658e-255
1.0971e-255
9.58436e-256
8.17804e-256
6.81311e-256
5.53857e-256
4.38919e-256
3.38725e-256
2.54211e-256
1.85236e-256
1.30833e-256
8.93802e-257
5.89357e-257
3.74124e-257
2.28024e-257
1.33038e-257
7.40548e-258
3.91869e-258
1.96338e-258
9.27317e-259
4.10869e-259
1.69862e-259
6.51354e-260
2.30135e-260
7.43662e-261
2.17972e-261
5.74145e-262
1.34491e-262
2.76866e-263
4.94187e-264
7.53086e-265
9.62483e-266
1.01059e-266
8.51037e-268
5.58855e-269
2.76854e-270
9.94987e-272
2.47678e-273
4.04303e-275
4.05954e-277
2.33025e-279
7.08552e-282
1.10006e-284
1.03727e-287
9.38314e-291
9.65113e-294
1.06581e-296
1.39986e-299
1.93495e-302
2.67e-305
3.6742e-308
5.03688e-311
6.87037e-314
1.05253e-316
0
0
0
0
0
0
0
0
0
0
0
0
0
0
0
0
0
0
0
0
0
0
0
0
0
0
0
0
0
0
0
0
0
0
0
0
0
0
0
0
0
0
0
0
0
0
0
0
0
0
0
0
0
0
0
0
0
0
0
0
0
0
0
0
0
0
0
0
0
0
0
0
0
0
0
0
0
2.63132e-317
1.60247e-314
1.18113e-311
8.65892e-309
6.31702e-306
4.59105e-303
3.32754e-300
2.40766e-297
1.74089e-294
1.20684e-291
6.9204e-289
3.18205e-286
1.12919e-283
2.95572e-281
5.43718e-279
6.74881e-277
5.54831e-275
3.04554e-273
1.14652e-271
3.06512e-270
6.03132e-269
9.03084e-268
1.05995e-266
1.00107e-265
7.78516e-265
5.08551e-264
2.83925e-263
1.37538e-262
5.85824e-262
2.22041e-261
7.56793e-261
2.34082e-260
6.62374e-260
1.72715e-259
4.17748e-259
9.42914e-259
1.99687e-258
3.98722e-258
7.54025e-258
1.35613e-257
2.32838e-257
3.8289e-257
6.04778e-257
9.19912e-257
1.35093e-256
1.91996e-256
2.64714e-256
3.54751e-256
4.62933e-256
5.89069e-256
7.31774e-256
8.88632e-256
1.05636e-255
1.23093e-255
1.40737e-255
1.57944e-255
1.74042e-255
1.8841e-255
2.00626e-255
2.0941e-255
1.8125e-255
2.10522e-258
5.40592e-254
7.17019e-252
7.37607e-252
7.19108e-252
6.9464e-252
6.60023e-252
6.15191e-252
5.61854e-252
5.02509e-252
4.39962e-252
3.76906e-252
3.15725e-252
2.58407e-252
2.06416e-252
1.60745e-252
1.21864e-252
8.9793e-253
6.41976e-253
4.44404e-253
2.97243e-253
1.91611e-253
1.18728e-253
7.05066e-254
3.99976e-254
2.1598e-254
1.10578e-254
5.34462e-255
2.42708e-255
1.0301e-255
4.06219e-256
1.47875e-256
4.93321e-257
1.49603e-257
4.08668e-258
9.9534e-259
2.13648e-259
3.98851e-260
6.37864e-261
8.58765e-262
9.53827e-263
8.53672e-264
5.98909e-265
3.18836e-266
1.23937e-267
3.36061e-269
6.0215e-271
6.68973e-273
4.28229e-275
1.46e-277
2.51873e-280
2.49515e-283
2.22603e-286
2.26577e-289
2.4939e-292
3.2766e-295
4.55627e-298
6.32531e-301
8.75771e-304
1.20802e-306
1.65832e-309
2.26302e-312
3.07859e-315
0
0
0
0
0
0
0
0
0
0
0
0
0
0
0
0
0
0
0
0
0
0
0
0
0
0
0
0
0
0
0
0
0
0
0
0
0
0
0
0
0
0
0
0
0
0
0
0
0
0
0
0
0
0
0
0
0
0
0
0
0
0
0
0
0
0
0
0
0
0
0
0
0
0
0
6.31507e-316
4.6984e-313
3.46765e-310
2.54131e-307
1.85145e-304
1.34239e-301
9.69665e-299
6.98557e-296
5.02424e-293
3.61135e-290
2.47501e-287
1.39394e-284
6.24315e-282
2.13561e-279
5.32148e-277
9.19407e-275
1.05973e-272
8.04043e-271
4.06945e-269
1.41595e-267
3.5134e-266
6.44767e-265
9.0487e-264
1.00017e-262
8.93462e-262
6.59799e-261
4.1078e-260
2.19315e-259
1.01911e-258
4.17561e-258
1.52621e-257
5.02791e-257
1.5064e-256
4.13726e-256
1.04903e-255
2.47162e-255
5.44333e-255
1.12658e-254
2.20172e-254
4.08084e-254
7.2021e-254
1.21474e-253
1.96444e-253
3.05458e-253
4.57908e-253
6.63478e-253
9.31299e-253
1.26935e-252
1.68305e-252
2.17471e-252
2.74212e-252
3.3781e-252
4.07139e-252
4.80723e-252
5.56819e-252
6.33227e-252
7.07285e-252
7.7627e-252
8.37808e-252
8.90062e-252
9.27274e-252
8.02944e-252
1.00137e-254
1.7563e-250
2.84042e-248
2.95781e-248
2.86303e-248
2.7427e-248
2.5905e-248
2.4064e-248
2.1957e-248
1.96602e-248
1.72629e-248
1.48535e-248
1.25133e-248
1.03121e-248
8.30326e-249
6.52472e-249
4.9965e-249
3.72256e-249
2.69383e-249
1.88942e-249
1.28181e-249
8.39013e-250
5.28482e-250
3.19414e-250
1.84648e-250
1.01737e-250
5.32214e-251
2.63219e-251
1.225e-251
5.33693e-252
2.16415e-252
8.11613e-253
2.79504e-253
8.76898e-254
2.48405e-254
6.29015e-255
1.4077e-255
2.7484e-256
4.61248e-257
6.54118e-258
7.68516e-259
7.31006e-260
5.47931e-261
3.13489e-262
1.31823e-263
3.89474e-265
7.66369e-267
9.42789e-269
6.73849e-271
2.58209e-273
4.98197e-276
5.25767e-279
4.64788e-282
4.67679e-285
5.13199e-288
6.74242e-291
9.44128e-294
1.31997e-296
1.84064e-299
2.55728e-302
3.53612e-305
4.86111e-308
6.63613e-311
8.98562e-314
1.31561e-316
0
0
0
0
0
0
0
0
0
0
0
0
0
0
0
0
0
0
0
0
0
0
0
0
0
0
0
0
0
0
0
0
0
0
0
0
0
0
0
0
0
0
0
0
0
0
0
0
0
0
0
0
0
0
0
0
0
0
0
0
0
0
0
0
0
0
0
0
0
0
0
2.63124e-317
1.64715e-314
1.22793e-311
9.06904e-309
6.64391e-306
4.83349e-303
3.49591e-300
2.51652e-297
1.80489e-294
1.29113e-291
9.2216e-289
6.58275e-286
4.45129e-283
2.45652e-280
1.06866e-277
3.51188e-275
8.29685e-273
1.3405e-270
1.4293e-268
9.98002e-267
4.64908e-265
1.4937e-263
3.43811e-262
5.88283e-261
7.737e-260
8.05306e-259
6.80454e-258
4.77196e-257
2.83168e-256
1.44583e-255
6.4451e-255
2.54038e-254
8.95468e-254
2.8515e-253
8.27585e-253
2.20625e-252
5.44026e-252
1.2487e-251
2.68347e-251
5.42792e-251
1.0383e-250
1.88621e-250
3.26675e-250
5.4129e-250
8.60863e-250
1.31789e-249
1.94723e-249
2.78383e-249
3.85937e-249
5.20007e-249
6.82155e-249
8.7273e-249
1.09042e-248
1.33218e-248
1.59366e-248
1.86919e-248
2.1522e-248
2.43446e-248
2.70632e-248
2.95871e-248
3.18359e-248
3.374e-248
3.50816e-248
3.03906e-248
4.0701e-251
5.20564e-247
9.64715e-245
1.01599e-244
9.80755e-245
9.36068e-245
8.81814e-245
8.18304e-245
7.47102e-245
6.7038e-245
5.90707e-245
5.10692e-245
4.32785e-245
3.59162e-245
2.91531e-245
2.3117e-245
1.78814e-245
1.34703e-245
9.86594e-246
7.01095e-246
4.82399e-246
3.20599e-246
2.0527e-246
1.26259e-246
7.43716e-247
4.18082e-247
2.23451e-247
1.13072e-247
5.39238e-248
2.4113e-248
1.00535e-248
3.88389e-249
1.3806e-249
4.48068e-250
1.31613e-250
3.46466e-251
8.08337e-252
1.65039e-252
2.90631e-253
4.34119e-254
5.39493e-255
5.45362e-256
4.36733e-257
2.6854e-258
1.22165e-259
3.93361e-261
8.50355e-263
1.15919e-264
9.26157e-267
3.997e-269
8.67332e-272
9.88557e-275
8.72078e-278
8.6641e-281
9.47917e-284
1.24485e-286
1.75704e-289
2.4763e-292
3.48119e-295
4.87636e-298
6.79887e-301
9.42482e-304
1.29752e-306
1.772e-309
2.39775e-312
3.21002e-315
0
0
0
0
0
0
0
0
0
0
0
0
0
0
0
0
0
0
0
0
0
0
0
0
0
0
0
0
0
0
0
0
0
0
0
0
0
0
0
0
0
0
0
0
0
0
0
0
0
0
0
0
0
0
0
0
0
0
0
0
0
0
0
0
0
0
0
0
0
5.26235e-316
3.9157e-313
2.92432e-310
2.16131e-307
1.58272e-304
1.14975e-301
8.29489e-299
5.94999e-296
4.24814e-293
3.02223e-290
2.14467e-287
1.51967e-284
1.07631e-281
7.16689e-279
3.86598e-276
1.62855e-273
5.12232e-271
1.14244e-268
1.71842e-266
1.68866e-264
1.08235e-262
4.63337e-261
1.37346e-259
2.93141e-258
4.67571e-257
5.76229e-256
5.64777e-255
4.51401e-254
3.00649e-253
1.70053e-252
8.30422e-252
3.55143e-251
1.34674e-250
4.57857e-250
1.40941e-249
3.96269e-249
1.02547e-248
2.45934e-248
5.49985e-248
1.15341e-247
2.28022e-247
4.26929e-247
7.60171e-247
1.29202e-246
2.10335e-246
3.29004e-246
4.95908e-246
7.22219e-246
1.01881e-245
1.39507e-245
1.85817e-245
2.41163e-245
3.05493e-245
3.78231e-245
4.58284e-245
5.44204e-245
6.34111e-245
7.25777e-245
8.16538e-245
9.03453e-245
9.83891e-245
1.05544e-244
1.11577e-244
1.15781e-244
1.0035e-244
1.4437e-247
1.41363e-243
2.87504e-241
3.0575e-241
2.95009e-241
2.81255e-241
2.64817e-241
2.45874e-241
2.24863e-241
2.02355e-241
1.79026e-241
1.55569e-241
1.3265e-241
1.10875e-241
9.07325e-242
7.26047e-242
5.67295e-242
4.32097e-242
3.20309e-242
2.30607e-242
1.60924e-242
1.08583e-242
7.06648e-243
4.42312e-243
2.65457e-243
1.52241e-243
8.31239e-244
4.30328e-244
2.10275e-244
9.65005e-245
4.13644e-245
1.64596e-245
6.03868e-246
2.02716e-246
6.17365e-247
1.68935e-247
4.10855e-248
8.77125e-249
1.62061e-249
2.54948e-250
3.35097e-251
3.59968e-252
3.07956e-253
2.03498e-254
1.00155e-255
3.51509e-257
8.35102e-259
1.26226e-260
1.12852e-262
5.49538e-265
1.3475e-267
1.68043e-270
1.49368e-273
1.46332e-276
1.59621e-279
2.0942e-282
2.98226e-285
4.24102e-288
6.01642e-291
8.50529e-294
1.19689e-296
1.67476e-299
2.32754e-302
3.20915e-305
4.38446e-308
5.92852e-311
7.92486e-314
1.05244e-316
0
0
0
0
0
0
0
0
0
0
0
0
0
0
0
0
0
0
0
0
0
0
0
0
0
0
0
0
0
0
0
0
0
0
0
0
0
0
0
0
0
0
0
0
0
0
0
0
0
0
0
0
0
0
0
0
0
0
0
0
0
0
0
0
0
2.63112e-317
1.13927e-314
8.63129e-312
6.45826e-309
4.77657e-306
3.49642e-303
2.5361e-300
1.82498e-297
1.30437e-294
9.27008e-292
6.55818e-289
4.6235e-286
3.25165e-283
2.28366e-280
1.60325e-277
1.0491e-274
5.51671e-272
2.24299e-269
6.72562e-267
1.40965e-264
1.96521e-262
1.77349e-260
1.04106e-258
4.08992e-257
1.11775e-255
2.21143e-254
3.28772e-253
3.79641e-252
3.50389e-251
2.64917e-250
1.67592e-249
9.03674e-249
4.22089e-248
1.73191e-247
6.31916e-247
2.07231e-246
6.16726e-246
1.67993e-245
4.22035e-245
9.84467e-245
2.1452e-244
4.39079e-244
8.48439e-244
1.55488e-243
2.71356e-243
4.52629e-243
7.24005e-243
1.11396e-242
1.65335e-242
2.3735e-242
3.30384e-242
4.46846e-242
5.88396e-242
7.55539e-242
9.47642e-242
1.16269e-241
1.3973e-241
1.64717e-241
1.9067e-241
2.16931e-241
2.42742e-241
2.67329e-241
2.90012e-241
3.10138e-241
3.2703e-241
3.38679e-241
2.9373e-241
4.53982e-244
3.53195e-240
7.64308e-238
8.19486e-238
7.91242e-238
7.54626e-238
7.11088e-238
6.61256e-238
6.06256e-238
5.47461e-238
4.86497e-238
4.25045e-238
3.64736e-238
3.07095e-238
2.53381e-238
2.04622e-238
1.61504e-238
1.2438e-238
9.33165e-239
6.80636e-239
4.81687e-239
3.2997e-239
2.18256e-239
1.39012e-239
8.49974e-240
4.97267e-240
2.77346e-240
1.46877e-240
7.35299e-241
3.46285e-241
1.52587e-241
6.25328e-242
2.3676e-242
8.22008e-243
2.59524e-243
7.3811e-244
1.871e-244
4.17613e-245
8.0947e-246
1.341e-246
1.86395e-247
2.12747e-248
1.94415e-249
1.38051e-250
7.35047e-252
2.8121e-253
7.34414e-255
1.23149e-256
1.23316e-258
6.7866e-261
1.88803e-263
2.6072e-266
2.36389e-269
2.28115e-272
2.4805e-275
3.24876e-278
4.67213e-281
6.71047e-284
9.61565e-287
1.37319e-289
1.95228e-292
2.76016e-295
3.87631e-298
5.40124e-301
7.45842e-304
1.01941e-306
1.37737e-309
1.83735e-312
2.42055e-315
0
0
0
0
0
0
0
0
0
0
0
0
0
0
0
0
0
0
0
0
0
0
0
0
0
0
0
0
0
0
0
0
0
0
0
0
0
0
0
0
0
0
0
0
0
0
0
0
0
0
0
0
0
0
0
0
0
0
0
0
0
0
0
3.15726e-316
2.35319e-313
1.78926e-310
1.3414e-307
9.92841e-305
7.26452e-302
5.26121e-299
3.77611e-296
2.68905e-293
1.90217e-290
1.33809e-287
9.37097e-285
6.54056e-282
4.55447e-279
3.16739e-276
2.20217e-273
1.41285e-270
7.22254e-268
2.82456e-265
8.04052e-263
1.5762e-260
2.02752e-258
1.67471e-256
8.98434e-255
3.23533e-253
8.1468e-252
1.49374e-250
2.06979e-249
2.23949e-248
1.94641e-247
1.39221e-246
8.36669e-246
4.3014e-245
1.92193e-244
7.56688e-244
2.6566e-243
8.40454e-243
2.41849e-242
6.38323e-242
1.5569e-241
3.53272e-241
7.50148e-241
1.49863e-240
2.83069e-240
5.078e-240
8.68639e-240
1.42198e-239
2.23503e-239
3.38293e-239
4.9446e-239
6.99757e-239
9.61174e-239
1.28405e-238
1.67156e-238
2.12371e-238
2.63763e-238
3.20716e-238
3.82312e-238
4.47407e-238
5.14499e-238
5.81851e-238
6.47581e-238
7.099e-238
7.67209e-238
8.17871e-238
8.60195e-238
8.89124e-238
7.71713e-238
1.28108e-240
8.15522e-237
1.83458e-234
1.98065e-234
1.9149e-234
1.8285e-234
1.72581e-234
1.6085e-234
1.4792e-234
1.34094e-234
1.19729e-234
1.05196e-234
9.08605e-235
7.70703e-235
6.41201e-235
5.226e-235
4.16668e-235
3.24455e-235
2.46362e-235
1.82042e-235
1.30649e-235
9.08577e-236
6.10774e-236
3.95817e-236
2.4655e-236
1.4713e-236
8.38163e-237
4.54025e-237
2.32847e-237
1.12519e-237
5.09626e-238
2.15077e-238
8.40269e-239
3.01686e-239
9.87297e-240
2.91808e-240
7.70862e-241
1.79863e-241
3.65691e-242
6.37862e-243
9.37448e-244
1.13669e-244
1.10938e-245
8.46389e-247
4.87503e-248
2.03306e-249
5.83768e-251
1.08639e-252
1.2194e-254
7.59532e-257
2.40555e-259
3.71801e-262
3.48936e-265
3.31548e-268
3.59196e-271
4.69217e-274
6.82084e-277
9.90355e-280
1.43477e-282
2.0718e-285
2.97868e-288
4.25923e-291
6.05034e-294
8.52844e-297
1.19148e-299
1.64778e-302
2.253e-305
3.04165e-308
4.04911e-311
5.30662e-314
7.89289e-317
0
0
0
0
0
0
0
0
0
0
0
0
0
0
0
0
0
0
0
0
0
0
0
0
0
0
0
0
0
0
0
0
0
0
0
0
0
0
0
0
0
0
0
0
0
0
0
0
0
0
0
0
0
0
0
0
0
0
0
0
5.97229e-315
4.62486e-312
3.5284e-309
2.65065e-306
1.96349e-303
1.43613e-300
1.03851e-297
7.43407e-295
5.27441e-292
3.71333e-289
2.59717e-286
1.80664e-283
1.25128e-280
8.63808e-278
5.95006e-275
4.09372e-272
2.81611e-269
1.76727e-266
8.75799e-264
3.28249e-261
8.83116e-259
1.61115e-256
1.90367e-254
1.43466e-252
7.02057e-251
2.31496e-249
5.36814e-248
9.11994e-247
1.17783e-245
1.19428e-244
9.77577e-244
6.6156e-243
3.7773e-242
1.85184e-241
7.91642e-241
2.99099e-240
1.01053e-239
3.08443e-239
8.58314e-239
2.19534e-238
5.19922e-238
1.14767e-237
2.375e-237
4.63158e-237
8.55234e-237
1.5019e-236
2.51837e-236
4.04636e-236
6.24982e-236
9.30667e-236
1.33973e-235
1.86922e-235
2.53375e-235
3.34342e-235
4.30294e-235
5.40934e-235
6.6532e-235
8.01804e-235
9.48092e-235
1.10146e-234
1.25827e-234
1.41449e-234
1.56595e-234
1.70883e-234
1.83984e-234
1.95515e-234
2.05099e-234
2.11606e-234
1.83803e-234
3.27634e-237
1.7473e-233
4.01429e-231
4.35917e-231
4.22143e-231
4.03789e-231
3.81929e-231
3.56943e-231
3.29375e-231
2.99841e-231
2.6906e-231
2.37779e-231
2.06747e-231
1.76688e-231
1.48233e-231
1.21935e-231
9.82074e-232
7.73217e-232
5.94185e-232
4.4478e-232
3.23702e-232
2.2852e-232
1.56115e-232
1.02933e-232
6.5311e-233
3.97516e-233
2.31282e-233
1.28136e-233
6.73132e-234
3.33732e-234
1.55351e-234
6.75083e-235
2.72113e-235
1.01017e-235
3.42624e-236
1.05223e-236
2.89633e-237
7.0633e-238
1.50608e-238
2.76545e-239
4.29652e-240
5.53339e-241
5.76663e-242
4.72626e-243
2.9444e-244
1.33845e-245
4.2257e-247
8.73031e-249
1.09912e-250
7.75837e-253
2.80559e-255
4.89915e-258
4.83829e-261
4.53077e-264
4.88573e-267
6.35893e-270
9.35196e-273
1.37393e-275
2.01428e-278
2.94378e-281
4.28406e-284
6.20144e-287
8.91918e-290
1.27307e-292
1.80119e-295
2.52298e-298
3.49439e-301
4.77931e-304
6.44631e-307
8.56253e-310
1.11843e-312
1.44698e-315
0
0
0
0
0
0
0
0
0
0
0
0
0
0
0
0
0
0
0
0
0
0
0
0
0
0
0
0
0
0
0
0
0
0
0
0
0
0
0
0
0
0
0
0
0
0
0
0
0
0
0
0
0
0
0
0
0
1.31545e-316
1.11917e-313
8.72763e-311
6.68221e-308
5.03103e-305
3.73025e-302
2.72754e-299
1.96945e-296
1.40612e-293
9.93919e-291
6.96406e-288
4.84251e-285
3.34562e-282
2.29917e-279
1.57337e-276
1.07331e-273
7.30655e-271
4.96875e-268
3.37888e-265
2.0691e-262
9.91071e-260
3.54649e-257
8.9746e-255
1.51583e-252
1.63783e-250
1.12287e-248
5.00397e-247
1.50962e-245
3.22245e-244
5.07218e-243
6.10594e-242
5.80282e-241
4.47424e-240
2.86518e-239
1.55449e-238
7.26849e-238
2.9733e-237
1.07819e-236
3.50591e-236
1.03258e-235
2.77906e-235
6.8892e-235
1.58443e-234
3.40275e-234
6.86323e-234
1.30665e-233
2.359e-233
4.05589e-233
6.66699e-233
1.05147e-232
1.59606e-232
2.33844e-232
3.31562e-232
4.561e-232
6.10157e-232
7.95318e-232
1.01196e-231
1.25881e-231
1.53335e-231
1.83167e-231
2.14851e-231
2.47781e-231
2.81188e-231
3.14229e-231
3.46072e-231
3.75955e-231
4.03243e-231
4.27157e-231
4.46945e-231
4.60295e-231
4.00097e-231
7.65748e-234
3.48694e-230
8.06931e-228
8.80558e-228
8.54288e-228
8.18793e-228
7.76386e-228
7.27806e-228
6.74086e-228
6.16357e-228
5.55947e-228
4.94246e-228
4.32653e-228
3.72558e-228
3.15193e-228
2.61682e-228
2.12904e-228
1.69483e-228
1.31806e-228
9.99464e-229
7.37584e-229
5.28552e-229
3.66923e-229
2.46122e-229
1.59062e-229
9.87348e-230
5.86643e-230
3.32383e-230
1.78838e-230
9.09597e-231
4.35116e-231
1.94666e-231
8.0945e-232
3.10656e-232
1.09186e-232
3.4836e-233
9.98965e-234
2.5458e-234
5.69177e-235
1.09996e-235
1.8062e-236
2.47016e-237
2.74822e-238
2.41913e-239
1.62978e-240
8.07425e-242
2.80282e-243
6.42973e-245
9.08458e-247
7.27527e-249
3.01152e-251
5.98906e-254
6.3338e-257
5.86345e-260
6.28462e-263
8.13919e-266
1.2121e-268
1.80341e-271
2.67797e-274
3.96467e-277
5.84564e-280
8.57436e-283
1.24976e-285
1.80802e-288
2.59308e-291
3.68243e-294
5.17143e-297
7.17262e-300
9.81187e-303
1.32198e-305
1.7517e-308
2.27929e-311
2.90701e-314
2.6308e-317
0
0
0
0
0
0
0
0
0
0
0
0
0
0
0
0
0
0
0
0
0
0
0
0
0
0
0
0
0
0
0
0
0
0
0
0
0
0
0
0
0
0
0
0
0
0
0
0
0
0
0
0
0
0
2.52557e-315
2.03325e-312
1.5939e-309
1.22503e-306
9.24568e-304
6.86275e-301
5.01713e-298
3.61757e-295
2.57617e-292
1.81422e-289
1.26507e-286
8.74531e-284
6.00054e-281
4.09129e-278
2.77509e-275
1.87464e-272
1.26256e-269
8.48665e-267
5.69938e-264
3.82798e-261
2.28145e-258
1.05284e-255
3.58266e-253
8.48525e-251
1.31975e-248
1.29835e-246
8.076e-245
3.27292e-243
9.02813e-242
1.77356e-240
2.58628e-239
2.90237e-238
2.58571e-237
1.87831e-236
1.13838e-235
5.86981e-235
2.61819e-234
1.02505e-233
3.56815e-233
1.11681e-232
3.17428e-232
8.26396e-232
1.98587e-231
4.43596e-231
9.26989e-231
1.82252e-230
3.38785e-230
5.98083e-230
1.00687e-229
1.62264e-229
2.51213e-229
3.74781e-229
5.40299e-229
7.54604e-229
1.02352e-228
1.35139e-228
1.74012e-228
2.18914e-228
2.69472e-228
3.25098e-228
3.84951e-228
4.47947e-228
5.12835e-228
5.78129e-228
6.4227e-228
7.03756e-228
7.61162e-228
8.13295e-228
8.5875e-228
8.96232e-228
9.21378e-228
8.01408e-228
1.64706e-230
6.50396e-227
1.49961e-224
1.64322e-224
1.59723e-224
1.53422e-224
1.45867e-224
1.37185e-224
1.27555e-224
1.17166e-224
1.06243e-224
9.50248e-225
8.37516e-225
7.26691e-225
6.19993e-225
5.19517e-225
4.2697e-225
3.43648e-225
2.70457e-225
2.07739e-225
1.55447e-225
1.13064e-225
7.97534e-226
5.44191e-226
3.5819e-226
2.26731e-226
1.37559e-226
7.96967e-227
4.39139e-227
2.29101e-227
1.12606e-227
5.18594e-228
2.22419e-228
8.82346e-229
3.21303e-229
1.06481e-229
3.18048e-230
8.4682e-231
1.98473e-231
4.03598e-232
7.00277e-233
1.01673e-233
1.2073e-234
1.1411e-235
8.31132e-237
4.48665e-238
1.71224e-239
4.36182e-241
6.91935e-243
6.293e-245
2.98828e-247
6.81381e-250
7.85382e-253
7.23113e-256
7.68948e-259
9.89375e-262
1.49323e-264
2.25195e-267
3.39005e-270
5.08873e-273
7.60849e-276
1.13187e-278
1.67343e-281
2.45605e-284
3.57406e-287
5.15054e-290
7.34109e-293
1.03352e-295
1.4353e-298
1.96345e-301
2.64191e-304
3.49121e-307
4.52381e-310
5.73828e-313
7.10288e-316
0
0
0
0
0
0
0
0
0
0
0
0
0
0
0
0
0
0
0
0
0
0
0
0
0
0
0
0
0
0
0
0
0
0
0
0
0
0
0
0
0
0
0
0
0
0
0
0
0
0
0
5.26145e-317
4.45903e-314
3.59668e-311
2.83565e-308
2.18852e-305
1.65621e-302
1.23096e-299
8.99903e-297
6.48043e-294
4.60335e-291
3.22995e-288
2.2415e-285
1.54045e-282
1.04968e-279
7.10035e-277
4.77334e-274
3.19281e-271
2.12721e-268
1.4132e-265
9.37158e-263
6.20998e-260
4.11607e-257
2.38104e-254
1.05502e-251
3.39919e-249
7.49583e-247
1.06791e-244
9.52634e-243
5.36327e-241
1.97439e-239
4.97731e-238
8.99713e-237
1.21551e-235
1.2718e-234
1.06239e-233
7.27256e-233
4.17234e-232
2.04497e-231
8.70309e-231
3.26187e-230
1.09016e-229
3.28492e-229
9.01135e-229
2.26968e-228
5.28805e-228
1.14749e-227
2.33365e-227
4.47281e-227
8.11887e-227
1.40169e-226
2.31086e-226
3.65153e-226
5.54973e-226
8.13804e-226
1.15451e-225
1.58843e-225
2.12455e-225
2.7687e-225
3.52209e-225
4.38133e-225
5.33734e-225
6.37779e-225
7.48621e-225
8.64212e-225
9.82221e-225
1.10001e-224
1.21493e-224
1.32449e-224
1.42628e-224
1.5182e-224
1.59789e-224
1.66337e-224
1.70698e-224
1.48578e-224
3.27919e-227
1.1375e-223
2.59034e-221
2.84836e-221
2.77393e-221
2.67062e-221
2.54626e-221
2.40285e-221
2.24316e-221
2.07013e-221
1.88728e-221
1.69834e-221
1.50716e-221
1.31774e-221
1.13376e-221
9.58841e-222
7.96019e-222
6.47739e-222
5.15869e-222
4.01352e-222
3.04495e-222
2.2478e-222
1.61095e-222
1.11808e-222
7.49445e-223
4.8371e-223
2.99631e-223
1.7749e-223
1.00143e-223
5.3582e-224
2.70565e-224
1.28248e-224
5.67244e-225
2.32563e-225
8.77263e-226
3.01923e-226
9.3913e-227
2.61187e-227
6.41578e-228
1.37247e-228
2.51563e-229
3.87648e-230
4.91136e-231
4.98282e-232
3.92254e-233
2.30664e-234
9.67588e-236
2.73714e-237
4.87656e-239
5.04097e-241
2.75112e-243
7.23257e-246
9.24043e-249
8.54427e-252
8.99433e-255
1.14749e-257
1.75666e-260
2.68759e-263
4.10506e-266
6.25316e-269
9.48925e-272
1.43297e-274
2.15094e-277
3.20552e-280
4.7373e-283
6.93415e-286
1.00401e-288
1.43613e-291
2.02665e-294
2.81761e-297
3.85358e-300
5.17691e-303
6.82034e-306
8.79725e-309
1.10899e-311
1.36264e-314
2.63062e-317
0
0
0
0
0
0
0
0
0
0
0
0
0
0
0
0
0
0
0
0
0
0
0
0
0
0
0
0
0
0
0
0
0
0
0
0
0
0
0
0
0
0
0
0
0
0
0
0
9.20716e-316
7.66132e-313
6.23041e-310
4.94266e-307
3.83217e-304
2.90893e-301
2.16547e-298
1.5834e-295
1.13897e-292
8.07149e-290
5.64314e-287
3.89765e-284
2.66299e-281
1.80206e-278
1.2093e-275
8.05712e-273
5.33596e-270
3.51658e-267
2.30878e-264
1.51171e-261
9.8818e-259
6.45567e-256
4.21919e-253
2.36205e-250
1.00123e-247
3.04034e-245
6.20823e-243
8.05883e-241
6.4938e-239
3.3018e-237
1.10309e-235
2.54067e-234
4.22587e-233
5.28959e-232
5.16104e-231
4.04342e-230
2.60909e-229
1.41733e-228
6.60451e-228
2.6823e-227
9.62585e-227
3.0895e-226
8.96421e-226
2.37383e-225
5.78526e-225
1.30708e-224
2.75585e-224
5.45532e-224
1.01945e-223
1.8071e-223
3.05137e-223
4.92694e-223
7.63461e-223
1.13923e-222
1.64212e-222
2.29264e-222
3.10768e-222
4.09923e-222
5.27329e-222
6.62756e-222
8.15251e-222
9.82939e-222
1.16348e-221
1.35386e-221
1.55049e-221
1.74949e-221
1.94656e-221
2.13753e-221
2.3185e-221
2.48578e-221
2.63599e-221
2.76557e-221
2.8717e-221
2.94164e-221
2.56243e-221
6.07206e-224
1.87084e-220
4.17784e-218
4.60755e-218
4.49571e-218
4.33844e-218
4.1484e-218
3.92839e-218
3.68237e-218
3.41452e-218
3.12989e-218