/*--------------------------------*- C++ -*----------------------------------*\
| =========                 |                                                 |
| \\      /  F ield         | OpenFOAM: The Open Source CFD Toolbox           |
|  \\    /   O peration     | Version:  2412                                  |
|   \\  /    A nd           | Website:  www.openfoam.com                      |
|    \\/     M anipulation  |                                                 |
\*---------------------------------------------------------------------------*/
FoamFile
{
    version     2.0;
    format      ascii;
    arch        "LSB;label=32;scalar=64";
    class       volScalarField;
    location    "1.02";
    object      p;
}
// * * * * * * * * * * * * * * * * * * * * * * * * * * * * * * * * * * * * * //

dimensions      [1 -1 -2 0 0 0 0];

internalField   nonuniform List<scalar> 
40000
(
0
-0.000174545
-0.000416274
-0.000829497
-0.00145801
-0.00224884
-0.00320554
-0.00432732
-0.00561266
-0.00706052
-0.00866984
-0.0104394
-0.0123678
-0.0144534
-0.0166948
-0.0190903
-0.0216383
-0.0243372
-0.027185
-0.0301798
-0.0333196
-0.0366023
-0.0400254
-0.0435865
-0.0472829
-0.0511119
-0.0550704
-0.0591555
-0.063364
-0.0676926
-0.072138
-0.0766968
-0.0813653
-0.0861399
-0.0910168
-0.095992
-0.101062
-0.106221
-0.111467
-0.116794
-0.122197
-0.127673
-0.133216
-0.138821
-0.144483
-0.150197
-0.155958
-0.16176
-0.167598
-0.173467
-0.17936
-0.185273
-0.191198
-0.197131
-0.203065
-0.208994
-0.214913
-0.220815
-0.226694
-0.232543
-0.238356
-0.244128
-0.249852
-0.255521
-0.26113
-0.266672
-0.27214
-0.277529
-0.282833
-0.288044
-0.293157
-0.298166
-0.303065
-0.307848
-0.312508
-0.317042
-0.321442
-0.325704
-0.329822
-0.33379
-0.337605
-0.341262
-0.344755
-0.34808
-0.351232
-0.354208
-0.357004
-0.359617
-0.362041
-0.364276
-0.366317
-0.368161
-0.369807
-0.371253
-0.372495
-0.373534
-0.374366
-0.374992
-0.37541
-0.37562
-0.375622
-0.375414
-0.374999
-0.374375
-0.373545
-0.372509
-0.371268
-0.369825
-0.368181
-0.366338
-0.364299
-0.362066
-0.359643
-0.357033
-0.354238
-0.351263
-0.348111
-0.344788
-0.341296
-0.337641
-0.333827
-0.329859
-0.325742
-0.321481
-0.317081
-0.312549
-0.307889
-0.303107
-0.298209
-0.293201
-0.288088
-0.282878
-0.277576
-0.272188
-0.26672
-0.261179
-0.255571
-0.249903
-0.24418
-0.238409
-0.232595
-0.226746
-0.220868
-0.214967
-0.209049
-0.20312
-0.197187
-0.191255
-0.18533
-0.179418
-0.173526
-0.167659
-0.161821
-0.15602
-0.15026
-0.144547
-0.138886
-0.133282
-0.12774
-0.122266
-0.116863
-0.111537
-0.106293
-0.101134
-0.0960652
-0.0910908
-0.0862149
-0.0814415
-0.0767742
-0.0722167
-0.0677723
-0.0634448
-0.0592378
-0.0551543
-0.0511973
-0.0473698
-0.0436747
-0.040115
-0.0366929
-0.0334109
-0.0302713
-0.0272766
-0.0244287
-0.0217297
-0.0191816
-0.0167859
-0.0145441
-0.0124581
-0.0105291
-0.00875817
-0.00714652
-0.00569565
-0.00440655
-0.00327978
-0.00231595
-0.00151571
-0.000879892
-0.000408675
-0.000102424
4.24865e-05
-3.92387
-3.92396
-3.92425
-3.92469
-3.92531
-3.9261
-3.92706
-3.92818
-3.92947
-3.93092
-3.93253
-3.9343
-3.93623
-3.93832
-3.94056
-3.94296
-3.94551
-3.94821
-3.95106
-3.95405
-3.95719
-3.96048
-3.9639
-3.96747
-3.97117
-3.975
-3.97896
-3.98305
-3.98726
-3.99159
-3.99604
-4.0006
-4.00527
-4.01005
-4.01493
-4.01991
-4.02498
-4.03015
-4.0354
-4.04073
-4.04613
-4.05161
-4.05716
-4.06277
-4.06844
-4.07416
-4.07992
-4.08573
-4.09157
-4.09745
-4.10334
-4.10926
-4.11519
-4.12113
-4.12707
-4.133
-4.13893
-4.14484
-4.15072
-4.15657
-4.16239
-4.16817
-4.1739
-4.17957
-4.18519
-4.19074
-4.19621
-4.20161
-4.20691
-4.21213
-4.21725
-4.22226
-4.22717
-4.23196
-4.23662
-4.24116
-4.24556
-4.24983
-4.25395
-4.25793
-4.26175
-4.26541
-4.2689
-4.27223
-4.27539
-4.27837
-4.28117
-4.28378
-4.28621
-4.28845
-4.29049
-4.29234
-4.29398
-4.29543
-4.29668
-4.29772
-4.29855
-4.29918
-4.29959
-4.2998
-4.29981
-4.2996
-4.29918
-4.29856
-4.29773
-4.29669
-4.29545
-4.294
-4.29236
-4.29051
-4.28847
-4.28623
-4.28381
-4.2812
-4.2784
-4.27542
-4.27226
-4.26894
-4.26544
-4.26178
-4.25796
-4.25399
-4.24987
-4.2456
-4.2412
-4.23666
-4.232
-4.22721
-4.22231
-4.21729
-4.21217
-4.20696
-4.20165
-4.19626
-4.19078
-4.18524
-4.17963
-4.17395
-4.16822
-4.16245
-4.15663
-4.15077
-4.14489
-4.13898
-4.13306
-4.12712
-4.12119
-4.11525
-4.10932
-4.1034
-4.0975
-4.09163
-4.08579
-4.07998
-4.07422
-4.0685
-4.06284
-4.05723
-4.05168
-4.0462
-4.0408
-4.03547
-4.03022
-4.02505
-4.01998
-4.015
-4.01012
-4.00535
-4.00068
-3.99612
-3.99167
-3.98734
-3.98313
-3.97904
-3.97508
-3.97125
-3.96756
-3.96399
-3.96057
-3.95729
-3.95414
-3.95115
-3.9483
-3.9456
-3.94305
-3.94065
-3.93841
-3.93632
-3.93439
-3.93262
-3.931
-3.92955
-3.92826
-3.92714
-3.92617
-3.92537
-3.92473
-3.92426
-3.92396
-3.92381
-7.84752
-7.84765
-7.84794
-7.84839
-7.84901
-7.8498
-7.85076
-7.85188
-7.85317
-7.85462
-7.85623
-7.85801
-7.85994
-7.86203
-7.86427
-7.86667
-7.86923
-7.87193
-7.87478
-7.87778
-7.88093
-7.88422
-7.88765
-7.89122
-7.89492
-7.89876
-7.90272
-7.90682
-7.91104
-7.91537
-7.91983
-7.9244
-7.92908
-7.93386
-7.93875
-7.94374
-7.94882
-7.95399
-7.95925
-7.96458
-7.97
-7.97549
-7.98105
-7.98666
-7.99234
-7.99807
-8.00384
-8.00966
-8.01551
-8.0214
-8.02731
-8.03324
-8.03918
-8.04513
-8.05108
-8.05702
-8.06296
-8.06888
-8.07477
-8.08064
-8.08647
-8.09226
-8.098
-8.10369
-8.10931
-8.11487
-8.12036
-8.12576
-8.13108
-8.13631
-8.14144
-8.14647
-8.15138
-8.15618
-8.16086
-8.16541
-8.16982
-8.1741
-8.17823
-8.18221
-8.18604
-8.18971
-8.19321
-8.19655
-8.19972
-8.2027
-8.20551
-8.20813
-8.21056
-8.21281
-8.21485
-8.21671
-8.21836
-8.21981
-8.22106
-8.2221
-8.22293
-8.22356
-8.22398
-8.22419
-8.22419
-8.22398
-8.22357
-8.22294
-8.22211
-8.22107
-8.21982
-8.21837
-8.21672
-8.21487
-8.21283
-8.21059
-8.20816
-8.20554
-8.20273
-8.19975
-8.19658
-8.19325
-8.18974
-8.18608
-8.18225
-8.17827
-8.17414
-8.16986
-8.16545
-8.1609
-8.15622
-8.15142
-8.14651
-8.14149
-8.13636
-8.13113
-8.12581
-8.1204
-8.11492
-8.10936
-8.10374
-8.09805
-8.09231
-8.08652
-8.08069
-8.07483
-8.06893
-8.06301
-8.05708
-8.05113
-8.04518
-8.03923
-8.03329
-8.02737
-8.02146
-8.01558
-8.00972
-8.00391
-7.99813
-7.9924
-7.98673
-7.98111
-7.97556
-7.97007
-7.96465
-7.95932
-7.95406
-7.94889
-7.94381
-7.93882
-7.93394
-7.92915
-7.92447
-7.91991
-7.91545
-7.91112
-7.9069
-7.90281
-7.89884
-7.89501
-7.89131
-7.88774
-7.88431
-7.88102
-7.87788
-7.87488
-7.87202
-7.86932
-7.86677
-7.86436
-7.86212
-7.86003
-7.8581
-7.85632
-7.85471
-7.85325
-7.85196
-7.85083
-7.84987
-7.84907
-7.84843
-7.84796
-7.84765
-7.84751
-11.771
-11.7711
-11.7715
-11.7719
-11.7725
-11.7733
-11.7743
-11.7754
-11.7767
-11.7782
-11.7798
-11.7816
-11.7835
-11.7856
-11.7878
-11.7902
-11.7928
-11.7955
-11.7984
-11.8014
-11.8045
-11.8078
-11.8113
-11.8148
-11.8185
-11.8224
-11.8264
-11.8305
-11.8347
-11.839
-11.8435
-11.8481
-11.8528
-11.8576
-11.8625
-11.8675
-11.8726
-11.8777
-11.883
-11.8884
-11.8938
-11.8993
-11.9049
-11.9105
-11.9162
-11.9219
-11.9277
-11.9336
-11.9394
-11.9453
-11.9513
-11.9572
-11.9632
-11.9691
-11.9751
-11.9811
-11.987
-11.9929
-11.9989
-12.0047
-12.0106
-12.0164
-12.0222
-12.0279
-12.0335
-12.0391
-12.0446
-12.05
-12.0553
-12.0606
-12.0657
-12.0708
-12.0757
-12.0805
-12.0852
-12.0898
-12.0942
-12.0985
-12.1027
-12.1067
-12.1105
-12.1142
-12.1177
-12.121
-12.1242
-12.1272
-12.13
-12.1327
-12.1351
-12.1374
-12.1394
-12.1413
-12.1429
-12.1444
-12.1456
-12.1467
-12.1475
-12.1482
-12.1486
-12.1488
-12.1488
-12.1486
-12.1482
-12.1475
-12.1467
-12.1457
-12.1444
-12.1429
-12.1413
-12.1394
-12.1374
-12.1351
-12.1327
-12.1301
-12.1272
-12.1243
-12.1211
-12.1177
-12.1142
-12.1105
-12.1067
-12.1027
-12.0985
-12.0943
-12.0898
-12.0853
-12.0806
-12.0758
-12.0708
-12.0658
-12.0606
-12.0554
-12.0501
-12.0446
-12.0391
-12.0336
-12.0279
-12.0222
-12.0164
-12.0106
-12.0048
-11.9989
-11.993
-11.9871
-11.9811
-11.9751
-11.9692
-11.9632
-11.9573
-11.9513
-11.9454
-11.9395
-11.9336
-11.9278
-11.922
-11.9163
-11.9106
-11.9049
-11.8994
-11.8939
-11.8884
-11.8831
-11.8778
-11.8726
-11.8675
-11.8625
-11.8576
-11.8528
-11.8482
-11.8436
-11.8391
-11.8348
-11.8305
-11.8264
-11.8225
-11.8186
-11.8149
-11.8113
-11.8079
-11.8046
-11.8015
-11.7985
-11.7956
-11.7929
-11.7903
-11.7879
-11.7857
-11.7836
-11.7816
-11.7799
-11.7783
-11.7768
-11.7755
-11.7744
-11.7734
-11.7726
-11.772
-11.7715
-11.7712
-11.771
-15.6944
-15.6945
-15.6948
-15.6953
-15.6959
-15.6967
-15.6977
-15.6988
-15.7001
-15.7015
-15.7032
-15.7049
-15.7069
-15.709
-15.7112
-15.7137
-15.7162
-15.7189
-15.7218
-15.7248
-15.728
-15.7313
-15.7347
-15.7383
-15.742
-15.7459
-15.7499
-15.754
-15.7582
-15.7626
-15.7671
-15.7717
-15.7764
-15.7812
-15.7861
-15.7911
-15.7962
-15.8014
-15.8067
-15.8121
-15.8175
-15.823
-15.8286
-15.8343
-15.84
-15.8458
-15.8516
-15.8574
-15.8633
-15.8692
-15.8752
-15.8811
-15.8871
-15.8931
-15.8991
-15.9051
-15.9111
-15.917
-15.923
-15.9289
-15.9347
-15.9406
-15.9464
-15.9521
-15.9578
-15.9634
-15.9689
-15.9743
-15.9797
-15.985
-15.9901
-15.9952
-16.0002
-16.005
-16.0097
-16.0143
-16.0188
-16.0231
-16.0272
-16.0312
-16.0351
-16.0388
-16.0423
-16.0457
-16.0489
-16.0519
-16.0547
-16.0574
-16.0598
-16.0621
-16.0642
-16.066
-16.0677
-16.0692
-16.0704
-16.0715
-16.0723
-16.073
-16.0734
-16.0736
-16.0736
-16.0734
-16.073
-16.0723
-16.0715
-16.0704
-16.0692
-16.0677
-16.0661
-16.0642
-16.0621
-16.0599
-16.0574
-16.0548
-16.0519
-16.0489
-16.0457
-16.0424
-16.0388
-16.0351
-16.0313
-16.0273
-16.0231
-16.0188
-16.0143
-16.0098
-16.005
-16.0002
-15.9952
-15.9902
-15.985
-15.9797
-15.9744
-15.9689
-15.9634
-15.9578
-15.9521
-15.9464
-15.9406
-15.9348
-15.9289
-15.923
-15.9171
-15.9111
-15.9051
-15.8992
-15.8932
-15.8872
-15.8812
-15.8752
-15.8693
-15.8634
-15.8575
-15.8516
-15.8458
-15.8401
-15.8343
-15.8287
-15.8231
-15.8176
-15.8121
-15.8068
-15.8015
-15.7963
-15.7912
-15.7862
-15.7812
-15.7764
-15.7717
-15.7671
-15.7627
-15.7583
-15.7541
-15.75
-15.746
-15.7421
-15.7384
-15.7348
-15.7314
-15.7281
-15.7249
-15.7219
-15.719
-15.7163
-15.7137
-15.7113
-15.7091
-15.707
-15.705
-15.7033
-15.7016
-15.7002
-15.6989
-15.6977
-15.6968
-15.696
-15.6953
-15.6949
-15.6945
-15.6944
-19.6175
-19.6177
-19.618
-19.6185
-19.6191
-19.6199
-19.6209
-19.622
-19.6233
-19.6248
-19.6264
-19.6282
-19.6301
-19.6322
-19.6345
-19.6369
-19.6395
-19.6422
-19.6451
-19.6481
-19.6513
-19.6546
-19.6581
-19.6617
-19.6654
-19.6693
-19.6733
-19.6774
-19.6816
-19.686
-19.6905
-19.6951
-19.6998
-19.7047
-19.7096
-19.7146
-19.7198
-19.725
-19.7303
-19.7357
-19.7412
-19.7467
-19.7523
-19.758
-19.7637
-19.7695
-19.7754
-19.7812
-19.7872
-19.7931
-19.7991
-19.8051
-19.8111
-19.8171
-19.8231
-19.8291
-19.8351
-19.8411
-19.8471
-19.853
-19.859
-19.8648
-19.8706
-19.8764
-19.8821
-19.8877
-19.8933
-19.8988
-19.9041
-19.9094
-19.9146
-19.9197
-19.9247
-19.9296
-19.9343
-19.9389
-19.9434
-19.9478
-19.952
-19.956
-19.9599
-19.9636
-19.9672
-19.9706
-19.9738
-19.9768
-19.9796
-19.9823
-19.9848
-19.9871
-19.9891
-19.991
-19.9927
-19.9942
-19.9954
-19.9965
-19.9973
-19.998
-19.9984
-19.9986
-19.9986
-19.9984
-19.998
-19.9973
-19.9965
-19.9954
-19.9942
-19.9927
-19.991
-19.9892
-19.9871
-19.9848
-19.9823
-19.9797
-19.9768
-19.9738
-19.9706
-19.9672
-19.9636
-19.9599
-19.956
-19.952
-19.9478
-19.9435
-19.939
-19.9344
-19.9296
-19.9248
-19.9198
-19.9147
-19.9095
-19.9042
-19.8988
-19.8933
-19.8878
-19.8821
-19.8764
-19.8707
-19.8649
-19.859
-19.8531
-19.8472
-19.8412
-19.8352
-19.8292
-19.8232
-19.8172
-19.8111
-19.8051
-19.7991
-19.7932
-19.7872
-19.7813
-19.7754
-19.7696
-19.7638
-19.7581
-19.7524
-19.7468
-19.7412
-19.7358
-19.7304
-19.7251
-19.7198
-19.7147
-19.7097
-19.7048
-19.6999
-19.6952
-19.6906
-19.6861
-19.6817
-19.6775
-19.6733
-19.6693
-19.6655
-19.6617
-19.6581
-19.6547
-19.6514
-19.6482
-19.6452
-19.6423
-19.6396
-19.637
-19.6346
-19.6323
-19.6302
-19.6283
-19.6265
-19.6249
-19.6234
-19.6221
-19.6209
-19.62
-19.6192
-19.6185
-19.618
-19.6177
-19.6176
-23.5406
-23.5407
-23.541
-23.5415
-23.5421
-23.5429
-23.5439
-23.545
-23.5464
-23.5478
-23.5495
-23.5512
-23.5532
-23.5553
-23.5576
-23.56
-23.5626
-23.5653
-23.5682
-23.5713
-23.5744
-23.5778
-23.5813
-23.5849
-23.5886
-23.5925
-23.5965
-23.6007
-23.6049
-23.6093
-23.6138
-23.6185
-23.6232
-23.6281
-23.633
-23.6381
-23.6432
-23.6485
-23.6538
-23.6592
-23.6647
-23.6703
-23.676
-23.6817
-23.6874
-23.6932
-23.6991
-23.705
-23.711
-23.717
-23.723
-23.729
-23.735
-23.7411
-23.7472
-23.7532
-23.7592
-23.7653
-23.7713
-23.7773
-23.7832
-23.7891
-23.7949
-23.8007
-23.8065
-23.8121
-23.8177
-23.8233
-23.8287
-23.834
-23.8393
-23.8444
-23.8494
-23.8543
-23.8591
-23.8637
-23.8682
-23.8726
-23.8768
-23.8809
-23.8848
-23.8886
-23.8922
-23.8956
-23.8988
-23.9019
-23.9047
-23.9074
-23.9099
-23.9122
-23.9143
-23.9162
-23.9179
-23.9194
-23.9206
-23.9217
-23.9226
-23.9232
-23.9236
-23.9238
-23.9238
-23.9236
-23.9232
-23.9226
-23.9217
-23.9206
-23.9194
-23.9179
-23.9162
-23.9143
-23.9122
-23.9099
-23.9074
-23.9048
-23.9019
-23.8988
-23.8956
-23.8922
-23.8886
-23.8849
-23.8809
-23.8769
-23.8727
-23.8683
-23.8638
-23.8591
-23.8543
-23.8495
-23.8444
-23.8393
-23.8341
-23.8287
-23.8233
-23.8178
-23.8122
-23.8065
-23.8008
-23.795
-23.7891
-23.7832
-23.7773
-23.7713
-23.7653
-23.7593
-23.7533
-23.7472
-23.7412
-23.7351
-23.7291
-23.723
-23.717
-23.711
-23.7051
-23.6992
-23.6933
-23.6875
-23.6817
-23.676
-23.6704
-23.6648
-23.6593
-23.6539
-23.6486
-23.6433
-23.6382
-23.6331
-23.6281
-23.6233
-23.6186
-23.6139
-23.6094
-23.605
-23.6007
-23.5966
-23.5926
-23.5887
-23.585
-23.5813
-23.5779
-23.5745
-23.5714
-23.5683
-23.5654
-23.5627
-23.5601
-23.5577
-23.5554
-23.5533
-23.5513
-23.5495
-23.5479
-23.5464
-23.5451
-23.544
-23.543
-23.5422
-23.5416
-23.5411
-23.5408
-23.5406
-27.4634
-27.4636
-27.4639
-27.4643
-27.465
-27.4658
-27.4668
-27.4679
-27.4692
-27.4707
-27.4724
-27.4742
-27.4761
-27.4782
-27.4805
-27.483
-27.4856
-27.4883
-27.4912
-27.4943
-27.4975
-27.5008
-27.5043
-27.5079
-27.5117
-27.5156
-27.5196
-27.5238
-27.5281
-27.5325
-27.5371
-27.5417
-27.5465
-27.5514
-27.5564
-27.5614
-27.5666
-27.5719
-27.5773
-27.5827
-27.5882
-27.5938
-27.5995
-27.6053
-27.6111
-27.6169
-27.6228
-27.6288
-27.6348
-27.6408
-27.6468
-27.6529
-27.659
-27.6651
-27.6712
-27.6773
-27.6834
-27.6894
-27.6955
-27.7015
-27.7075
-27.7134
-27.7193
-27.7252
-27.7309
-27.7366
-27.7423
-27.7478
-27.7533
-27.7587
-27.764
-27.7691
-27.7742
-27.7791
-27.784
-27.7886
-27.7932
-27.7976
-27.8019
-27.806
-27.8099
-27.8137
-27.8173
-27.8208
-27.824
-27.8271
-27.83
-27.8327
-27.8352
-27.8375
-27.8396
-27.8416
-27.8433
-27.8448
-27.8461
-27.8471
-27.848
-27.8486
-27.8491
-27.8493
-27.8493
-27.8491
-27.8486
-27.848
-27.8471
-27.8461
-27.8448
-27.8433
-27.8416
-27.8397
-27.8376
-27.8352
-27.8327
-27.83
-27.8271
-27.8241
-27.8208
-27.8174
-27.8137
-27.81
-27.806
-27.8019
-27.7976
-27.7932
-27.7887
-27.784
-27.7792
-27.7743
-27.7692
-27.764
-27.7587
-27.7534
-27.7479
-27.7423
-27.7367
-27.731
-27.7252
-27.7194
-27.7135
-27.7075
-27.7015
-27.6955
-27.6895
-27.6834
-27.6773
-27.6712
-27.6651
-27.659
-27.653
-27.6469
-27.6408
-27.6348
-27.6288
-27.6229
-27.617
-27.6111
-27.6053
-27.5996
-27.5939
-27.5883
-27.5828
-27.5773
-27.572
-27.5667
-27.5615
-27.5564
-27.5514
-27.5466
-27.5418
-27.5371
-27.5326
-27.5282
-27.5239
-27.5197
-27.5157
-27.5118
-27.508
-27.5044
-27.5009
-27.4976
-27.4944
-27.4913
-27.4884
-27.4857
-27.4831
-27.4806
-27.4783
-27.4762
-27.4742
-27.4724
-27.4708
-27.4693
-27.468
-27.4669
-27.4659
-27.4651
-27.4644
-27.4639
-27.4636
-27.4635
-31.3861
-31.3862
-31.3866
-31.387
-31.3877
-31.3885
-31.3895
-31.3906
-31.392
-31.3934
-31.3951
-31.3969
-31.3989
-31.401
-31.4033
-31.4058
-31.4084
-31.4111
-31.4141
-31.4171
-31.4203
-31.4237
-31.4272
-31.4309
-31.4347
-31.4386
-31.4426
-31.4468
-31.4512
-31.4556
-31.4602
-31.4648
-31.4696
-31.4746
-31.4796
-31.4847
-31.4899
-31.4952
-31.5006
-31.5061
-31.5117
-31.5173
-31.523
-31.5288
-31.5346
-31.5405
-31.5465
-31.5525
-31.5585
-31.5646
-31.5707
-31.5768
-31.5829
-31.5891
-31.5952
-31.6014
-31.6075
-31.6136
-31.6197
-31.6258
-31.6318
-31.6378
-31.6437
-31.6496
-31.6555
-31.6612
-31.6669
-31.6725
-31.678
-31.6835
-31.6888
-31.694
-31.6991
-31.7041
-31.709
-31.7137
-31.7183
-31.7227
-31.727
-31.7312
-31.7352
-31.739
-31.7427
-31.7461
-31.7494
-31.7525
-31.7555
-31.7582
-31.7607
-31.7631
-31.7652
-31.7671
-31.7689
-31.7704
-31.7717
-31.7728
-31.7736
-31.7743
-31.7747
-31.775
-31.775
-31.7747
-31.7743
-31.7737
-31.7728
-31.7717
-31.7704
-31.7689
-31.7672
-31.7652
-31.7631
-31.7608
-31.7582
-31.7555
-31.7526
-31.7495
-31.7462
-31.7427
-31.739
-31.7352
-31.7312
-31.7271
-31.7228
-31.7183
-31.7137
-31.709
-31.7042
-31.6992
-31.6941
-31.6888
-31.6835
-31.6781
-31.6726
-31.667
-31.6613
-31.6555
-31.6497
-31.6438
-31.6378
-31.6319
-31.6258
-31.6198
-31.6137
-31.6075
-31.6014
-31.5953
-31.5891
-31.583
-31.5768
-31.5707
-31.5646
-31.5586
-31.5525
-31.5466
-31.5406
-31.5347
-31.5289
-31.5231
-31.5174
-31.5117
-31.5062
-31.5007
-31.4953
-31.49
-31.4848
-31.4796
-31.4746
-31.4697
-31.4649
-31.4602
-31.4557
-31.4512
-31.4469
-31.4427
-31.4387
-31.4347
-31.431
-31.4273
-31.4238
-31.4204
-31.4172
-31.4141
-31.4112
-31.4085
-31.4059
-31.4034
-31.4011
-31.399
-31.397
-31.3952
-31.3935
-31.392
-31.3907
-31.3896
-31.3886
-31.3878
-31.3871
-31.3866
-31.3863
-31.3862
-35.3086
-35.3088
-35.3091
-35.3096
-35.3102
-35.311
-35.312
-35.3132
-35.3145
-35.316
-35.3177
-35.3195
-35.3215
-35.3236
-35.3259
-35.3284
-35.331
-35.3338
-35.3367
-35.3398
-35.3431
-35.3465
-35.35
-35.3537
-35.3575
-35.3614
-35.3655
-35.3697
-35.3741
-35.3786
-35.3831
-35.3879
-35.3927
-35.3976
-35.4027
-35.4078
-35.4131
-35.4184
-35.4239
-35.4294
-35.435
-35.4407
-35.4465
-35.4523
-35.4582
-35.4641
-35.4701
-35.4762
-35.4822
-35.4884
-35.4945
-35.5007
-35.5068
-35.513
-35.5192
-35.5254
-35.5316
-35.5378
-35.544
-35.5501
-35.5562
-35.5622
-35.5682
-35.5742
-35.5801
-35.5859
-35.5916
-35.5973
-35.6029
-35.6083
-35.6137
-35.619
-35.6242
-35.6292
-35.6341
-35.6389
-35.6435
-35.648
-35.6524
-35.6566
-35.6606
-35.6645
-35.6682
-35.6717
-35.675
-35.6782
-35.6811
-35.6839
-35.6865
-35.6888
-35.691
-35.6929
-35.6947
-35.6962
-35.6975
-35.6986
-35.6995
-35.7002
-35.7006
-35.7008
-35.7008
-35.7006
-35.7002
-35.6995
-35.6986
-35.6975
-35.6962
-35.6947
-35.693
-35.691
-35.6888
-35.6865
-35.6839
-35.6811
-35.6782
-35.675
-35.6717
-35.6682
-35.6645
-35.6606
-35.6566
-35.6524
-35.6481
-35.6436
-35.6389
-35.6342
-35.6292
-35.6242
-35.619
-35.6138
-35.6084
-35.6029
-35.5973
-35.5917
-35.5859
-35.5801
-35.5742
-35.5683
-35.5623
-35.5562
-35.5501
-35.544
-35.5379
-35.5317
-35.5255
-35.5193
-35.5131
-35.5069
-35.5007
-35.4946
-35.4884
-35.4823
-35.4762
-35.4702
-35.4642
-35.4582
-35.4524
-35.4465
-35.4408
-35.4351
-35.4295
-35.424
-35.4185
-35.4132
-35.4079
-35.4028
-35.3977
-35.3928
-35.3879
-35.3832
-35.3786
-35.3742
-35.3698
-35.3656
-35.3615
-35.3576
-35.3537
-35.3501
-35.3465
-35.3432
-35.3399
-35.3368
-35.3339
-35.3311
-35.3285
-35.326
-35.3237
-35.3216
-35.3196
-35.3178
-35.3161
-35.3146
-35.3133
-35.3121
-35.3111
-35.3103
-35.3097
-35.3092
-35.3089
-35.3087
-39.231
-39.2311
-39.2314
-39.2319
-39.2326
-39.2334
-39.2344
-39.2356
-39.2369
-39.2384
-39.2401
-39.2419
-39.2439
-39.2461
-39.2484
-39.2509
-39.2535
-39.2563
-39.2593
-39.2624
-39.2656
-39.2691
-39.2726
-39.2763
-39.2801
-39.2841
-39.2882
-39.2925
-39.2969
-39.3014
-39.306
-39.3108
-39.3156
-39.3206
-39.3257
-39.3309
-39.3362
-39.3416
-39.3471
-39.3526
-39.3583
-39.364
-39.3698
-39.3757
-39.3816
-39.3876
-39.3937
-39.3998
-39.4059
-39.4121
-39.4183
-39.4245
-39.4308
-39.437
-39.4433
-39.4495
-39.4558
-39.462
-39.4682
-39.4744
-39.4806
-39.4867
-39.4928
-39.4988
-39.5047
-39.5106
-39.5164
-39.5221
-39.5278
-39.5333
-39.5388
-39.5441
-39.5493
-39.5544
-39.5594
-39.5642
-39.5689
-39.5735
-39.5779
-39.5821
-39.5862
-39.5901
-39.5938
-39.5974
-39.6008
-39.604
-39.607
-39.6098
-39.6124
-39.6148
-39.617
-39.6189
-39.6207
-39.6223
-39.6236
-39.6247
-39.6256
-39.6263
-39.6267
-39.6269
-39.6269
-39.6267
-39.6263
-39.6256
-39.6247
-39.6236
-39.6223
-39.6207
-39.619
-39.617
-39.6148
-39.6124
-39.6098
-39.607
-39.604
-39.6008
-39.5974
-39.5939
-39.5901
-39.5862
-39.5822
-39.5779
-39.5735
-39.569
-39.5643
-39.5594
-39.5545
-39.5494
-39.5441
-39.5388
-39.5334
-39.5278
-39.5222
-39.5165
-39.5107
-39.5048
-39.4988
-39.4928
-39.4867
-39.4806
-39.4745
-39.4683
-39.4621
-39.4558
-39.4496
-39.4433
-39.4371
-39.4308
-39.4246
-39.4184
-39.4122
-39.406
-39.3998
-39.3937
-39.3877
-39.3817
-39.3758
-39.3699
-39.3641
-39.3584
-39.3527
-39.3471
-39.3417
-39.3363
-39.331
-39.3258
-39.3207
-39.3157
-39.3108
-39.3061
-39.3015
-39.297
-39.2926
-39.2883
-39.2842
-39.2802
-39.2764
-39.2727
-39.2691
-39.2657
-39.2625
-39.2594
-39.2564
-39.2536
-39.251
-39.2485
-39.2462
-39.244
-39.242
-39.2402
-39.2385
-39.237
-39.2357
-39.2345
-39.2335
-39.2327
-39.232
-39.2315
-39.2312
-39.2311
-43.1531
-43.1533
-43.1536
-43.1541
-43.1548
-43.1556
-43.1566
-43.1578
-43.1591
-43.1606
-43.1623
-43.1642
-43.1662
-43.1684
-43.1707
-43.1732
-43.1759
-43.1787
-43.1817
-43.1848
-43.1881
-43.1915
-43.1951
-43.1988
-43.2027
-43.2067
-43.2108
-43.2151
-43.2195
-43.2241
-43.2288
-43.2335
-43.2385
-43.2435
-43.2486
-43.2538
-43.2592
-43.2646
-43.2702
-43.2758
-43.2815
-43.2873
-43.2931
-43.2991
-43.3051
-43.3111
-43.3172
-43.3234
-43.3296
-43.3358
-43.3421
-43.3484
-43.3547
-43.361
-43.3673
-43.3736
-43.38
-43.3863
-43.3925
-43.3988
-43.405
-43.4112
-43.4173
-43.4234
-43.4294
-43.4354
-43.4413
-43.4471
-43.4528
-43.4584
-43.4639
-43.4693
-43.4746
-43.4798
-43.4848
-43.4897
-43.4945
-43.4991
-43.5035
-43.5078
-43.512
-43.5159
-43.5197
-43.5233
-43.5267
-43.53
-43.533
-43.5359
-43.5385
-43.5409
-43.5431
-43.5451
-43.5469
-43.5485
-43.5499
-43.551
-43.5519
-43.5526
-43.553
-43.5533
-43.5533
-43.553
-43.5526
-43.5519
-43.551
-43.5499
-43.5485
-43.547
-43.5452
-43.5432
-43.5409
-43.5385
-43.5359
-43.533
-43.53
-43.5268
-43.5234
-43.5198
-43.516
-43.512
-43.5079
-43.5036
-43.4991
-43.4945
-43.4897
-43.4848
-43.4798
-43.4746
-43.4694
-43.464
-43.4584
-43.4528
-43.4471
-43.4413
-43.4355
-43.4295
-43.4235
-43.4174
-43.4113
-43.4051
-43.3989
-43.3926
-43.3863
-43.38
-43.3737
-43.3674
-43.361
-43.3547
-43.3484
-43.3421
-43.3359
-43.3296
-43.3234
-43.3173
-43.3112
-43.3051
-43.2991
-43.2932
-43.2873
-43.2816
-43.2758
-43.2702
-43.2647
-43.2593
-43.2539
-43.2487
-43.2435
-43.2385
-43.2336
-43.2288
-43.2242
-43.2196
-43.2152
-43.2109
-43.2068
-43.2028
-43.1989
-43.1952
-43.1916
-43.1882
-43.1849
-43.1818
-43.1788
-43.176
-43.1733
-43.1708
-43.1685
-43.1663
-43.1643
-43.1624
-43.1607
-43.1592
-43.1579
-43.1567
-43.1557
-43.1549
-43.1542
-43.1537
-43.1534
-43.1532
-47.0752
-47.0753
-47.0756
-47.0761
-47.0768
-47.0776
-47.0786
-47.0798
-47.0812
-47.0827
-47.0844
-47.0863
-47.0883
-47.0905
-47.0928
-47.0954
-47.098
-47.1009
-47.1039
-47.107
-47.1104
-47.1138
-47.1174
-47.1212
-47.1251
-47.1291
-47.1333
-47.1376
-47.1421
-47.1467
-47.1514
-47.1562
-47.1612
-47.1662
-47.1714
-47.1767
-47.1821
-47.1876
-47.1932
-47.1988
-47.2046
-47.2104
-47.2164
-47.2224
-47.2284
-47.2345
-47.2407
-47.2469
-47.2532
-47.2595
-47.2658
-47.2722
-47.2786
-47.2849
-47.2913
-47.2977
-47.3041
-47.3105
-47.3169
-47.3232
-47.3295
-47.3358
-47.342
-47.3481
-47.3542
-47.3603
-47.3662
-47.3721
-47.3779
-47.3836
-47.3892
-47.3946
-47.4
-47.4052
-47.4103
-47.4153
-47.4201
-47.4248
-47.4293
-47.4337
-47.4379
-47.4419
-47.4458
-47.4494
-47.4529
-47.4562
-47.4593
-47.4621
-47.4648
-47.4673
-47.4695
-47.4716
-47.4734
-47.475
-47.4764
-47.4775
-47.4784
-47.4791
-47.4796
-47.4798
-47.4798
-47.4796
-47.4791
-47.4784
-47.4775
-47.4764
-47.475
-47.4734
-47.4716
-47.4696
-47.4673
-47.4648
-47.4622
-47.4593
-47.4562
-47.4529
-47.4495
-47.4458
-47.442
-47.4379
-47.4337
-47.4294
-47.4249
-47.4202
-47.4154
-47.4104
-47.4053
-47.4
-47.3947
-47.3892
-47.3836
-47.3779
-47.3722
-47.3663
-47.3603
-47.3543
-47.3482
-47.342
-47.3358
-47.3296
-47.3233
-47.3169
-47.3106
-47.3042
-47.2978
-47.2914
-47.285
-47.2786
-47.2722
-47.2659
-47.2595
-47.2532
-47.247
-47.2408
-47.2346
-47.2285
-47.2224
-47.2164
-47.2105
-47.2047
-47.1989
-47.1932
-47.1876
-47.1822
-47.1768
-47.1715
-47.1663
-47.1612
-47.1563
-47.1515
-47.1468
-47.1422
-47.1377
-47.1334
-47.1292
-47.1252
-47.1213
-47.1175
-47.1139
-47.1104
-47.1071
-47.104
-47.101
-47.0981
-47.0955
-47.0929
-47.0906
-47.0884
-47.0864
-47.0845
-47.0828
-47.0813
-47.0799
-47.0787
-47.0777
-47.0769
-47.0762
-47.0757
-47.0754
-47.0752
-50.997
-50.9971
-50.9975
-50.998
-50.9986
-50.9995
-51.0005
-51.0017
-51.0031
-51.0046
-51.0063
-51.0082
-51.0102
-51.0124
-51.0148
-51.0174
-51.0201
-51.0229
-51.026
-51.0291
-51.0325
-51.036
-51.0396
-51.0434
-51.0473
-51.0514
-51.0556
-51.06
-51.0645
-51.0691
-51.0739
-51.0788
-51.0838
-51.0889
-51.0941
-51.0994
-51.1049
-51.1104
-51.1161
-51.1218
-51.1276
-51.1335
-51.1395
-51.1456
-51.1517
-51.1579
-51.1641
-51.1704
-51.1768
-51.1831
-51.1895
-51.196
-51.2024
-51.2089
-51.2154
-51.2219
-51.2283
-51.2348
-51.2412
-51.2477
-51.254
-51.2604
-51.2667
-51.2729
-51.2791
-51.2852
-51.2913
-51.2972
-51.3031
-51.3089
-51.3145
-51.3201
-51.3255
-51.3308
-51.336
-51.3411
-51.346
-51.3507
-51.3553
-51.3597
-51.364
-51.3681
-51.372
-51.3757
-51.3792
-51.3826
-51.3857
-51.3886
-51.3914
-51.3939
-51.3962
-51.3982
-51.4001
-51.4017
-51.4031
-51.4043
-51.4052
-51.4059
-51.4064
-51.4066
-51.4066
-51.4064
-51.4059
-51.4052
-51.4043
-51.4031
-51.4017
-51.4001
-51.3982
-51.3962
-51.3939
-51.3914
-51.3887
-51.3857
-51.3826
-51.3793
-51.3757
-51.372
-51.3681
-51.364
-51.3598
-51.3554
-51.3508
-51.346
-51.3411
-51.3361
-51.3309
-51.3256
-51.3201
-51.3146
-51.3089
-51.3031
-51.2973
-51.2913
-51.2853
-51.2792
-51.273
-51.2667
-51.2604
-51.2541
-51.2477
-51.2413
-51.2349
-51.2284
-51.2219
-51.2154
-51.209
-51.2025
-51.196
-51.1896
-51.1832
-51.1768
-51.1705
-51.1642
-51.158
-51.1518
-51.1456
-51.1396
-51.1336
-51.1277
-51.1219
-51.1161
-51.1105
-51.105
-51.0995
-51.0942
-51.0889
-51.0838
-51.0788
-51.074
-51.0692
-51.0646
-51.0601
-51.0557
-51.0515
-51.0474
-51.0435
-51.0397
-51.0361
-51.0326
-51.0292
-51.0261
-51.023
-51.0202
-51.0175
-51.0149
-51.0125
-51.0103
-51.0083
-51.0064
-51.0047
-51.0032
-51.0018
-51.0006
-50.9996
-50.9987
-50.9981
-50.9976
-50.9972
-50.9971
-54.9186
-54.9188
-54.9191
-54.9196
-54.9203
-54.9212
-54.9222
-54.9234
-54.9248
-54.9263
-54.928
-54.9299
-54.932
-54.9342
-54.9366
-54.9392
-54.9419
-54.9448
-54.9479
-54.9511
-54.9545
-54.958
-54.9617
-54.9655
-54.9695
-54.9736
-54.9778
-54.9822
-54.9868
-54.9914
-54.9963
-55.0012
-55.0062
-55.0114
-55.0167
-55.0221
-55.0276
-55.0332
-55.0389
-55.0447
-55.0506
-55.0566
-55.0626
-55.0687
-55.0749
-55.0812
-55.0875
-55.0939
-55.1003
-55.1067
-55.1132
-55.1198
-55.1263
-55.1329
-55.1394
-55.146
-55.1525
-55.1591
-55.1656
-55.1721
-55.1786
-55.1851
-55.1914
-55.1978
-55.204
-55.2103
-55.2164
-55.2224
-55.2284
-55.2342
-55.24
-55.2456
-55.2512
-55.2566
-55.2618
-55.267
-55.2719
-55.2768
-55.2814
-55.2859
-55.2903
-55.2944
-55.2984
-55.3022
-55.3058
-55.3092
-55.3124
-55.3153
-55.3181
-55.3207
-55.323
-55.3251
-55.327
-55.3286
-55.3301
-55.3312
-55.3322
-55.3329
-55.3334
-55.3336
-55.3336
-55.3334
-55.3329
-55.3322
-55.3312
-55.3301
-55.3286
-55.327
-55.3251
-55.323
-55.3207
-55.3181
-55.3154
-55.3124
-55.3092
-55.3058
-55.3022
-55.2984
-55.2945
-55.2903
-55.286
-55.2815
-55.2768
-55.272
-55.267
-55.2619
-55.2566
-55.2512
-55.2457
-55.2401
-55.2343
-55.2284
-55.2225
-55.2164
-55.2103
-55.2041
-55.1978
-55.1915
-55.1851
-55.1787
-55.1722
-55.1657
-55.1592
-55.1526
-55.146
-55.1395
-55.1329
-55.1264
-55.1198
-55.1133
-55.1068
-55.1004
-55.0939
-55.0876
-55.0813
-55.075
-55.0688
-55.0627
-55.0566
-55.0507
-55.0448
-55.039
-55.0333
-55.0277
-55.0222
-55.0168
-55.0115
-55.0063
-55.0013
-54.9963
-54.9915
-54.9869
-54.9823
-54.9779
-54.9737
-54.9695
-54.9656
-54.9617
-54.9581
-54.9545
-54.9512
-54.948
-54.9449
-54.942
-54.9393
-54.9367
-54.9343
-54.9321
-54.93
-54.9281
-54.9264
-54.9249
-54.9235
-54.9223
-54.9213
-54.9204
-54.9197
-54.9192
-54.9189
-54.9187
-58.8401
-58.8403
-58.8406
-58.8411
-58.8418
-58.8427
-58.8437
-58.8449
-58.8463
-58.8479
-58.8496
-58.8515
-58.8536
-58.8559
-58.8583
-58.8609
-58.8636
-58.8665
-58.8696
-58.8729
-58.8763
-58.8798
-58.8835
-58.8874
-58.8914
-58.8956
-58.8999
-58.9043
-58.9089
-58.9136
-58.9185
-58.9235
-58.9286
-58.9338
-58.9392
-58.9446
-58.9502
-58.9559
-58.9616
-58.9675
-58.9735
-58.9795
-58.9856
-58.9918
-58.9981
-59.0044
-59.0108
-59.0173
-59.0238
-59.0303
-59.0369
-59.0435
-59.0501
-59.0568
-59.0635
-59.0701
-59.0768
-59.0834
-59.09
-59.0967
-59.1032
-59.1098
-59.1162
-59.1227
-59.1291
-59.1354
-59.1416
-59.1477
-59.1538
-59.1597
-59.1656
-59.1713
-59.1769
-59.1824
-59.1878
-59.193
-59.1981
-59.203
-59.2077
-59.2123
-59.2167
-59.221
-59.225
-59.2289
-59.2325
-59.236
-59.2392
-59.2423
-59.2451
-59.2477
-59.25
-59.2522
-59.2541
-59.2558
-59.2572
-59.2585
-59.2594
-59.2602
-59.2606
-59.2609
-59.2609
-59.2606
-59.2602
-59.2594
-59.2585
-59.2573
-59.2558
-59.2541
-59.2522
-59.2501
-59.2477
-59.2451
-59.2423
-59.2392
-59.236
-59.2326
-59.2289
-59.225
-59.221
-59.2168
-59.2124
-59.2078
-59.203
-59.1981
-59.1931
-59.1878
-59.1825
-59.177
-59.1714
-59.1656
-59.1598
-59.1538
-59.1478
-59.1416
-59.1354
-59.1291
-59.1227
-59.1163
-59.1098
-59.1033
-59.0967
-59.0901
-59.0835
-59.0768
-59.0702
-59.0635
-59.0569
-59.0502
-59.0436
-59.037
-59.0304
-59.0239
-59.0174
-59.0109
-59.0045
-58.9982
-58.9919
-58.9857
-58.9796
-58.9735
-58.9676
-58.9617
-58.9559
-58.9503
-58.9447
-58.9392
-58.9339
-58.9287
-58.9236
-58.9186
-58.9137
-58.909
-58.9044
-58.9
-58.8957
-58.8915
-58.8875
-58.8836
-58.8799
-58.8764
-58.873
-58.8697
-58.8666
-58.8637
-58.861
-58.8584
-58.856
-58.8537
-58.8516
-58.8497
-58.848
-58.8464
-58.845
-58.8438
-58.8428
-58.8419
-58.8412
-58.8407
-58.8404
-58.8402
-62.7614
-62.7616
-62.7619
-62.7624
-62.7631
-62.764
-62.765
-62.7663
-62.7677
-62.7693
-62.771
-62.7729
-62.775
-62.7773
-62.7798
-62.7824
-62.7852
-62.7881
-62.7912
-62.7945
-62.7979
-62.8015
-62.8053
-62.8092
-62.8132
-62.8175
-62.8218
-62.8263
-62.8309
-62.8357
-62.8406
-62.8457
-62.8508
-62.8561
-62.8615
-62.867
-62.8727
-62.8784
-62.8843