/*--------------------------------*- C++ -*----------------------------------*\
| =========                 |                                                 |
| \\      /  F ield         | OpenFOAM: The Open Source CFD Toolbox           |
|  \\    /   O peration     | Version:  2412                                  |
|   \\  /    A nd           | Website:  www.openfoam.com                      |
|    \\/     M anipulation  |                                                 |
\*---------------------------------------------------------------------------*/
FoamFile
{
    version     2.0;
    format      ascii;
    arch        "LSB;label=32;scalar=64";
    class       volScalarField;
    location    "1.02";
    object      p_rgh;
}
// * * * * * * * * * * * * * * * * * * * * * * * * * * * * * * * * * * * * * //

dimensions      [1 -1 -2 0 0 0 0];

internalField   nonuniform List<scalar> 
40000
(
1.962
1.96183
1.96158
1.96117
1.96054
1.95975
1.95879
1.95767
1.95639
1.95494
1.95333
1.95156
1.94963
1.94755
1.94531
1.94291
1.94036
1.93766
1.93482
1.93182
1.92868
1.9254
1.92197
1.91841
1.91472
1.91089
1.90693
1.90284
1.89864
1.89431
1.88986
1.8853
1.88063
1.87586
1.87098
1.86601
1.86094
1.85578
1.85053
1.84521
1.8398
1.83433
1.82878
1.82318
1.81752
1.8118
1.80604
1.80024
1.7944
1.78853
1.78264
1.77673
1.7708
1.76487
1.75894
1.75301
1.74709
1.74119
1.73531
1.72946
1.72364
1.71787
1.71215
1.70648
1.70087
1.69533
1.68986
1.68447
1.67917
1.67396
1.66884
1.66383
1.65894
1.65415
1.64949
1.64496
1.64056
1.6363
1.63218
1.62821
1.62439
1.62074
1.61725
1.61392
1.61077
1.60779
1.605
1.60238
1.59996
1.59772
1.59568
1.59384
1.59219
1.59075
1.5895
1.58847
1.58763
1.58701
1.58659
1.58638
1.58638
1.58659
1.587
1.58762
1.58845
1.58949
1.59073
1.59218
1.59382
1.59566
1.5977
1.59993
1.60236
1.60497
1.60776
1.61074
1.61389
1.61721
1.6207
1.62436
1.62817
1.63214
1.63626
1.64052
1.64492
1.64945
1.65411
1.65889
1.66379
1.6688
1.67391
1.67912
1.68442
1.68981
1.69528
1.70082
1.70643
1.7121
1.71782
1.72359
1.7294
1.73525
1.74113
1.74703
1.75295
1.75888
1.76481
1.77075
1.77667
1.78258
1.78847
1.79434
1.80018
1.80598
1.81174
1.81745
1.82311
1.82872
1.83426
1.83973
1.84514
1.85046
1.85571
1.86087
1.86593
1.87091
1.87579
1.88056
1.88523
1.88978
1.89423
1.89856
1.90276
1.90685
1.9108
1.91463
1.91833
1.92189
1.92531
1.92859
1.93173
1.93472
1.93757
1.94027
1.94282
1.94521
1.94746
1.94954
1.95147
1.95324
1.95485
1.9563
1.95759
1.95872
1.95968
1.96048
1.96112
1.96159
1.9619
1.96204
1.96213
1.96204
1.96175
1.96131
1.96069
1.9599
1.95894
1.95782
1.95653
1.95508
1.95347
1.9517
1.94977
1.94768
1.94544
1.94304
1.94049
1.93779
1.93494
1.93195
1.92881
1.92552
1.9221
1.91853
1.91483
1.911
1.90704
1.90295
1.89874
1.89441
1.88996
1.8854
1.88073
1.87595
1.87107
1.86609
1.86102
1.85585
1.8506
1.84527
1.83987
1.83439
1.82884
1.82323
1.81756
1.81184
1.80608
1.80027
1.79443
1.78855
1.78266
1.77674
1.77081
1.76487
1.75893
1.753
1.74707
1.74116
1.73528
1.72943
1.72361
1.71783
1.7121
1.70643
1.70081
1.69526
1.68979
1.68439
1.67909
1.67387
1.66875
1.66374
1.65883
1.65404
1.64938
1.64484
1.64044
1.63617
1.63205
1.62807
1.62425
1.62059
1.6171
1.61377
1.61061
1.60763
1.60483
1.60222
1.59979
1.59755
1.59551
1.59366
1.59202
1.59057
1.58932
1.58828
1.58745
1.58682
1.58641
1.5862
1.58619
1.5864
1.58682
1.58744
1.58827
1.58931
1.59055
1.592
1.59364
1.59549
1.59753
1.59977
1.60219
1.6048
1.6076
1.61058
1.61374
1.61706
1.62056
1.62422
1.62804
1.63201
1.63613
1.6404
1.6448
1.64934
1.654
1.65879
1.66369
1.66871
1.67383
1.67904
1.68435
1.68974
1.69522
1.70076
1.70637
1.71205
1.71778
1.72355
1.72937
1.73523
1.74111
1.74702
1.75294
1.75888
1.76481
1.77075
1.77668
1.7826
1.7885
1.79437
1.80021
1.80602
1.81178
1.8175
1.82316
1.82877
1.83432
1.8398
1.8452
1.85053
1.85578
1.86095
1.86602
1.871
1.87588
1.88065
1.88532
1.88988
1.89433
1.89866
1.90287
1.90696
1.91092
1.91475
1.91844
1.92201
1.92543
1.92871
1.93186
1.93485
1.9377
1.9404
1.94295
1.94535
1.94759
1.94968
1.95161
1.95338
1.955
1.95645
1.95774
1.95886
1.95983
1.96063
1.96127
1.96174
1.96204
1.96219
1.96248
1.96235
1.96206
1.96161
1.96099
1.9602
1.95924
1.95812
1.95683
1.95538
1.95377
1.95199
1.95006
1.94797
1.94573
1.94333
1.94077
1.93807
1.93522
1.93222
1.92907
1.92578
1.92235
1.91878
1.91508
1.91124
1.90728
1.90318
1.89896
1.89463
1.89017
1.8856
1.88092
1.87614
1.87125
1.86626
1.86118
1.85601
1.85075
1.84542
1.84
1.83451
1.82895
1.82334
1.81766
1.81193
1.80616
1.80034
1.79449
1.7886
1.78269
1.77676
1.77082
1.76487
1.75892
1.75298
1.74704
1.74112
1.73523
1.72936
1.72353
1.71774
1.712
1.70631
1.70069
1.69513
1.68964
1.68424
1.67892
1.67369
1.66856
1.66353
1.65862
1.65382
1.64914
1.64459
1.64018
1.6359
1.63177
1.62779
1.62396
1.62029
1.61679
1.61345
1.61028
1.6073
1.60449
1.60187
1.59944
1.59719
1.59515
1.59329
1.59164
1.59019
1.58894
1.5879
1.58707
1.58644
1.58602
1.58581
1.58581
1.58602
1.58643
1.58706
1.58789
1.58893
1.59018
1.59163
1.59328
1.59513
1.59717
1.59941
1.60184
1.60446
1.60727
1.61025
1.61342
1.61675
1.62026
1.62392
1.62775
1.63173
1.63586
1.64014
1.64455
1.6491
1.65378
1.65858
1.66349
1.66851
1.67364
1.67887
1.68419
1.6896
1.69508
1.70064
1.70626
1.71195
1.71769
1.72348
1.72931
1.73517
1.74107
1.74699
1.75292
1.75887
1.76482
1.77077
1.77671
1.78263
1.78854
1.79442
1.80028
1.80609
1.81187
1.8176
1.82327
1.82889
1.83444
1.83993
1.84535
1.85068
1.85594
1.86111
1.86619
1.87118
1.87606
1.88085
1.88553
1.89009
1.89455
1.89888
1.9031
1.90719
1.91116
1.91499
1.91869
1.92226
1.92569
1.92898
1.93212
1.93512
1.93798
1.94068
1.94323
1.94564
1.94788
1.94997
1.9519
1.95368
1.95529
1.95675
1.95804
1.95917
1.96013
1.96093
1.96157
1.96204
1.96235
1.96249
1.96299
1.96285
1.96255
1.96209
1.96146
1.96067
1.95971
1.95858
1.95729
1.95584
1.95422
1.95244
1.95051
1.94841
1.94617
1.94376
1.9412
1.93849
1.93563
1.93263
1.92947
1.92618
1.92274
1.91917
1.91546
1.91161
1.90764
1.90353
1.89931
1.89496
1.8905
1.88592
1.88123
1.87643
1.87153
1.86653
1.86144
1.85626
1.85099
1.84563
1.8402
1.8347
1.82913
1.8235
1.81781
1.81207
1.80627
1.80044
1.79457
1.78867
1.78275
1.7768
1.77084
1.76488
1.75891
1.75295
1.74699
1.74106
1.73514
1.72926
1.72341
1.7176
1.71184
1.70614
1.7005
1.69492
1.68942
1.68399
1.67865
1.67341
1.66826
1.66322
1.65829
1.65347
1.64878
1.64421
1.63978
1.63549
1.63134
1.62735
1.62351
1.61982
1.6163
1.61296
1.60978
1.60678
1.60397
1.60134
1.59889
1.59664
1.59459
1.59273
1.59107
1.58961
1.58836
1.58731
1.58647
1.58584
1.58542
1.58521
1.58521
1.58542
1.58584
1.58647
1.5873
1.58835
1.5896
1.59105
1.59271
1.59456
1.59662
1.59887
1.60131
1.60394
1.60675
1.60975
1.61292
1.61627
1.61979
1.62347
1.62731
1.63131
1.63545
1.63974
1.64417
1.64874
1.65343
1.65825
1.66318
1.66822
1.67336
1.67861
1.68395
1.68937
1.69487
1.70045
1.70609
1.71179
1.71755
1.72336
1.72921
1.73509
1.741
1.74694
1.75289
1.75885
1.76482
1.77079
1.77675
1.78269
1.78861
1.79451
1.80038
1.80621
1.812
1.81774
1.82343
1.82907
1.83464
1.84014
1.84557
1.85092
1.85619
1.86137
1.86646
1.87146
1.87636
1.88115
1.88584
1.89042
1.89488
1.89923
1.90345
1.90755
1.91153
1.91537
1.91908
1.92265
1.92609
1.92938
1.93254
1.93554
1.9384
1.94111
1.94367
1.94607
1.94832
1.95042
1.95236
1.95413
1.95575
1.95721
1.9585
1.95963
1.9606
1.9614
1.96204
1.96251
1.96282
1.96297
1.96365
1.9635
1.9632
1.96273
1.9621
1.9613
1.96034
1.95921
1.95791
1.95646
1.95484
1.95305
1.95111
1.94902
1.94676
1.94435
1.94178
1.93907
1.9362
1.93318
1.93002
1.92672
1.92327
1.91969
1.91596
1.91211
1.90812
1.90401
1.89977
1.89541
1.89093
1.88634
1.88164
1.87682
1.87191
1.8669
1.86179
1.85659
1.8513
1.84593
1.84048
1.83496
1.82937
1.82372
1.81801
1.81225
1.80644
1.80058
1.79469
1.78877
1.78282
1.77685
1.77087
1.76488
1.75889
1.75291
1.74693
1.74097
1.73503
1.72912
1.72325
1.71742
1.71164
1.70591
1.70024
1.69464
1.68911
1.68366
1.6783
1.67303
1.66786
1.66279
1.65784
1.653
1.64829
1.6437
1.63925
1.63494
1.63077
1.62675
1.62289
1.61919
1.61566
1.61229
1.6091
1.60609
1.60326
1.60061
1.59816
1.59589
1.59383
1.59196
1.59029
1.58883
1.58757
1.58652
1.58567
1.58504
1.58462
1.5844
1.5844
1.58461
1.58503
1.58567
1.58651
1.58756
1.58881
1.59027
1.59194
1.59381
1.59587
1.59813
1.60058
1.60323
1.60606
1.60907
1.61226
1.61562
1.61916
1.62286
1.62672
1.63073
1.6349
1.63921
1.64366
1.64825
1.65296
1.6578
1.66275
1.66782
1.67299
1.67825
1.68361
1.68906
1.69459
1.70019
1.70586
1.71159
1.71737
1.7232
1.72907
1.73498
1.74092
1.74688
1.75285
1.75884
1.76483
1.77082
1.7768
1.78276
1.78871
1.79463
1.80052
1.80637
1.81218
1.81795
1.82366
1.82931
1.8349
1.84042
1.84586
1.85123
1.85652
1.86172
1.86683
1.87184
1.87675
1.88156
1.88626
1.89085
1.89533
1.89969
1.90393
1.90804
1.91202
1.91588
1.9196
1.92318
1.92663
1.92993
1.93309
1.93611
1.93897
1.94169
1.94426
1.94667
1.94892
1.95102
1.95297
1.95475
1.95637
1.95783
1.95913
1.96026
1.96123
1.96203
1.96267
1.96315
1.96346
1.9636
1.96447
1.96432
1.96401
1.96354
1.9629
1.9621
1.96113
1.96
1.9587
1.95724
1.95561
1.95383
1.95188
1.94977
1.94751
1.94509
1.94252
1.93979
1.93691
1.93389
1.93072
1.9274
1.92394
1.92034
1.91661
1.91274
1.90874
1.90461
1.90036
1.89598
1.89148
1.88687
1.88215
1.87732
1.87239
1.86736
1.86223
1.857
1.8517
1.8463
1.84083
1.83529
1.82968
1.824
1.81826
1.81248
1.80664
1.80076
1.79484
1.78889
1.78292
1.77692
1.77091
1.76489
1.75887
1.75286
1.74685
1.74086
1.73489
1.72895
1.72305
1.71719
1.71137
1.70561
1.69991
1.69428
1.68872
1.68325
1.67785
1.67255
1.66735
1.66226
1.65728
1.65241
1.64767
1.64305
1.63857
1.63424
1.63004
1.626
1.62212
1.61839
1.61484
1.61145
1.60824
1.60521
1.60236
1.5997
1.59723
1.59495
1.59287
1.59099
1.58931
1.58784
1.58657
1.58551
1.58466
1.58403
1.5836
1.58339
1.58338
1.5836
1.58402
1.58465
1.5855
1.58656
1.58782
1.58929
1.59097
1.59285
1.59493
1.5972
1.59967
1.60233
1.60518
1.60821
1.61142
1.6148
1.61836
1.62208
1.62597
1.63001
1.6342
1.63853
1.64301
1.64762
1.65237
1.65723
1.66221
1.66731
1.67251
1.67781
1.6832
1.68868
1.69423
1.69986
1.70556
1.71132
1.71714
1.723
1.7289
1.73484
1.74081
1.7468
1.7528
1.75882
1.76484
1.77086
1.77686
1.78286
1.78883
1.79478
1.8007
1.80658
1.81241
1.8182
1.82394
1.82961
1.83522
1.84077
1.84624
1.85163
1.85693
1.86216
1.86728
1.87232
1.87725
1.88208
1.8868
1.89141
1.8959
1.90027
1.90453
1.90865
1.91265
1.91652
1.92026
1.92385
1.92731
1.93063
1.9338
1.93682
1.9397
1.94242
1.945
1.94742
1.94968
1.95179
1.95373
1.95552
1.95715
1.95861
1.95992
1.96105
1.96203
1.96283
1.96348
1.96395
1.96426
1.96441
1.96545
1.9653
1.96499
1.96451
1.96387
1.96307
1.96209
1.96095
1.95965
1.95818
1.95655
1.95476
1.9528
1.95069
1.94841
1.94599
1.9434
1.94066
1.93777
1.93474
1.93155
1.92822
1.92475
1.92114
1.91738
1.9135
1.90948
1.90534
1.90106
1.89667
1.89215
1.88752
1.88278
1.87792
1.87297
1.86791
1.86276
1.85751
1.85217
1.84676
1.84126
1.83569
1.83004
1.82434
1.81857
1.81275
1.80688
1.80097
1.79502
1.78904
1.78303
1.777
1.77096
1.7649
1.75885
1.7528
1.74675
1.74073
1.73472
1.72875
1.72281
1.71691
1.71106
1.70526
1.69952
1.69385
1.68826
1.68274
1.67731
1.67198
1.66674
1.66161
1.65659
1.65169
1.64692
1.64227
1.63776
1.63339
1.62917
1.62509
1.62118
1.61743
1.61385
1.61043
1.6072
1.60414
1.60127
1.59859
1.5961
1.59381
1.59171
1.58982
1.58813
1.58664
1.58536
1.5843
1.58344
1.5828
1.58237
1.58215
1.58215
1.58237
1.58279
1.58343
1.58429
1.58535
1.58663
1.58811
1.5898
1.59169
1.59378
1.59608
1.59856
1.60125
1.60411
1.60717
1.6104
1.61381
1.6174
1.62115
1.62506
1.62913
1.63335
1.63772
1.64223
1.64687
1.65165
1.65655
1.66157
1.6667
1.67193
1.67727
1.68269
1.68821
1.6938
1.69947
1.70521
1.711
1.71685
1.72275
1.72869
1.73467
1.74067
1.7467
1.75274
1.75879
1.76485
1.7709
1.77695
1.78297
1.78898
1.79496
1.80091
1.80682
1.81269
1.81851
1.82427
1.82998
1.83562
1.84119
1.84669
1.85211
1.85744
1.86269
1.86784
1.87289
1.87785
1.8827
1.88744
1.89207
1.89659
1.90098
1.90525
1.9094
1.91341
1.9173
1.92105
1.92466
1.92813
1.93146
1.93465
1.93768
1.94057
1.94331
1.94589
1.94832
1.95059
1.95271
1.95466
1.95646
1.95809
1.95956
1.96087
1.96201
1.96299
1.9638
1.96444
1.96492
1.96523
1.96538
1.96659
1.96644
1.96613
1.96565
1.96501
1.9642
1.96322
1.96207
1.96076
1.95929
1.95765
1.95585
1.95388
1.95176
1.94948
1.94704
1.94444
1.94169
1.93879
1.93573
1.93253
1.92919
1.9257
1.92207
1.9183
1.91439
1.91035
1.90619
1.90189
1.89747
1.89293
1.88828
1.88351
1.87863
1.87365
1.86856
1.86338
1.8581
1.85274
1.84729
1.84176
1.83615
1.83048
1.82474
1.81894
1.81308
1.80717
1.80123
1.79524
1.78922
1.78317
1.7771
1.77101
1.76492
1.75882
1.75273
1.74664
1.74057
1.73453
1.72851
1.72252
1.71658
1.71068
1.70484
1.69906
1.69335
1.68771
1.68215
1.67668
1.6713
1.66603
1.66085
1.65579
1.65085
1.64604
1.64135
1.6368
1.6324
1.62814
1.62403
1.62008
1.6163
1.61268
1.60924
1.60598
1.6029
1.6
1.59729
1.59478
1.59247
1.59035
1.58844
1.58673
1.58524
1.58395
1.58287
1.58201
1.58136
1.58093
1.58071
1.58071
1.58092
1.58135
1.582
1.58286
1.58393
1.58522
1.58672
1.58842
1.59033
1.59244
1.59476
1.59727
1.59997
1.60287
1.60595
1.60921
1.61265
1.61626
1.62005
1.62399
1.6281
1.63236
1.63676
1.64131
1.64599
1.65081
1.65575
1.66081
1.66598
1.67126
1.67663
1.6821
1.68766
1.6933
1.69901
1.70479
1.71063
1.71653
1.72247
1.72845
1.73447
1.74052
1.74659
1.75267
1.75877
1.76486
1.77096
1.77704
1.78311
1.78916
1.79518
1.80116
1.80711
1.81302
1.81887
1.82467
1.83041
1.83609
1.84169
1.84722
1.85267
1.85803
1.86331
1.86849
1.87357
1.87856
1.88343
1.8882
1.89286
1.89739
1.90181
1.9061
1.91027
1.91431
1.91821
1.92198
1.92561
1.9291
1.93244
1.93564
1.93869
1.9416
1.94435
1.94694
1.94938
1.95166
1.95379
1.95575
1.95756
1.9592
1.96067
1.96199
1.96313
1.96411
1.96493
1.96558
1.96606
1.96637
1.96652
1.96791
1.96776
1.96744
1.96696
1.96631
1.9655
1.96451
1.96336
1.96204
1.96056
1.95891
1.9571
1.95513
1.95299
1.95069
1.94824
1.94563
1.94287
1.93995
1.93688
1.93366
1.93029
1.92679
1.92313
1.91934
1.91542
1.91136
1.90716
1.90284
1.8984
1.89383
1.88915
1.88435
1.87944
1.87443
1.86931
1.86409
1.85878
1.85338
1.8479
1.84233
1.83669
1.83097
1.82519
1.81935
1.81346
1.80751
1.80152
1.79548
1.78942
1.78333
1.77721
1.77108
1.76494
1.75879
1.75265
1.74651
1.7404
1.7343
1.72823
1.7222
1.7162
1.71026
1.70437
1.69854
1.69277
1.68708
1.68148
1.67596
1.67053
1.6652
1.65998
1.65488
1.64989
1.64503
1.6403
1.6357
1.63125
1.62695
1.62281
1.61882
1.615
1.61135
1.60787
1.60457
1.60146
1.59854
1.5958
1.59326
1.59093
1.58879
1.58686
1.58513
1.58362
1.58232
1.58123
1.58036
1.5797
1.57926
1.57905
1.57904
1.57926
1.5797
1.58035
1.58122
1.58231
1.5836
1.58512
1.58684
1.58877
1.5909
1.59324
1.59578
1.59851
1.60143
1.60454
1.60784
1.61131
1.61496
1.61878
1.62277
1.62691
1.63121
1.63566
1.64025
1.64498
1.64984
1.65483
1.65994
1.66516
1.67048
1.67591
1.68143
1.68703
1.69272
1.69848
1.70431
1.71021
1.71615
1.72214
1.72818
1.73425
1.74034
1.74646
1.75259
1.75874
1.76488
1.77102
1.77715
1.78327
1.78936
1.79542
1.80146
1.80745
1.81339
1.81929
1.82513
1.83091
1.83662
1.84226
1.84783
1.85331
1.85871
1.86402
1.86924
1.87436
1.87937
1.88428
1.88907
1.89375
1.89832
1.90276
1.90708
1.91127
1.91533
1.91926
1.92305
1.9267
1.93021
1.93357
1.93679
1.93986
1.94277
1.94554
1.94815
1.9506
1.95289
1.95503
1.957
1.95882
1.96047
1.96195
1.96327
1.96442
1.96541
1.96623
1.96688
1.96736
1.96767
1.96782
1.96939
1.96924
1.96892
1.96844
1.96778
1.96696
1.96597
1.96481
1.96349
1.962
1.96034
1.95852
1.95653
1.95438
1.95207
1.9496
1.94698
1.94419
1.94126
1.93817
1.93493
1.93155
1.92802
1.92434
1.92053
1.91658
1.91249
1.90827
1.90392
1.89945
1.89485
1.89014
1.88531
1.88036
1.87531
1.87016
1.8649
1.85956
1.85412
1.84859
1.84298
1.83729
1.83154
1.82571
1.81983
1.81388
1.80789
1.80185
1.79577
1.78965
1.7835
1.77734
1.77115
1.76496
1.75876
1.75256
1.74637
1.7402
1.73405
1.72792
1.72183
1.71578
1.70978
1.70383
1.69794
1.69212
1.68638
1.68071
1.67514
1.66965
1.66427
1.659
1.65384
1.6488
1.64389
1.6391
1.63446
1.62996
1.62562
1.62142
1.61739
1.61353
1.60984
1.60632
1.60299
1.59984
1.59688
1.59412
1.59155
1.58918
1.58702
1.58507
1.58332
1.58179
1.58048
1.57938
1.57849
1.57783
1.57739
1.57716
1.57716
1.57738
1.57782
1.57848
1.57936
1.58046
1.58178
1.58331
1.58505
1.587
1.58916
1.59152
1.59409
1.59685
1.59981
1.60296
1.60629
1.6098
1.61349
1.61736
1.62139
1.62558
1.62992
1.63442
1.63906
1.64384
1.64875
1.65379
1.65895
1.66423
1.66961
1.67509
1.68066
1.68633
1.69207
1.69789
1.70378
1.70972
1.71573
1.72178
1.72787
1.73399
1.74014
1.74632
1.75251
1.7587
1.7649
1.7711
1.77728
1.78345
1.78959
1.79571
1.80179
1.80783
1.81382
1.81976
1.82565
1.83147
1.83723
1.84291
1.84852
1.85405
1.85949
1.86483
1.87009
1.87524
1.88029
1.88523
1.89006
1.89477
1.89937
1.90384
1.90819
1.9124
1.91649
1.92044
1.92426
1.92793
1.93146
1.93484
1.93808
1.94117
1.9441
1.94688
1.94951
1.95198
1.95428
1.95643
1.95842
1.96024
1.9619
1.96339
1.96472
1.96588
1.96687
1.96769
1.96835
1.96883
1.96915
1.9693
1.97104
1.97088
1.97057
1.97008
1.96942
1.96859
1.9676
1.96643
1.9651
1.9636
1.96193
1.96009
1.95809
1.95593
1.95361
1.95112
1.94848
1.94568
1.94272
1.93961
1.93635
1.93295
1.92939
1.92569
1.92185
1.91787
1.91375
1.90951
1.90513
1.90062
1.89599
1.89124
1.88637
1.88139
1.8763
1.87111
1.86581
1.86042
1.85493
1.84936
1.84371
1.83797
1.83217
1.82629
1.82036
1.81436
1.80831
1.80222
1.79608
1.78991
1.78371
1.77748
1.77124
1.76498
1.75872
1.75247
1.74622
1.73998
1.73376
1.72758
1.72142
1.71531
1.70924
1.70323
1.69728
1.6914
1.68559
1.67986
1.67422
1.66868
1.66323
1.6579
1.65268
1.64758
1.64261
1.63777
1.63308
1.62852
1.62412
1.61988
1.6158
1.61189
1.60815
1.60459
1.60122
1.59803
1.59503
1.59223
1.58963
1.58724
1.58505
1.58307
1.5813
1.57975
1.57842
1.5773
1.57641
1.57574
1.57529
1.57506
1.57506
1.57528
1.57573
1.5764
1.57729
1.5784
1.57973
1.58128
1.58305
1.58502
1.58721
1.58961
1.5922
1.595
1.598
1.60118
1.60456
1.60812
1.61185
1.61576
1.61984
1.62408
1.62848
1.63303
1.63773
1.64257
1.64754
1.65263
1.65785
1.66319
1.66863
1.67417
1.67981
1.68554
1.69134
1.69723
1.70318
1.70919
1.71525
1.72137
1.72752
1.73371
1.73992
1.74616
1.75241
1.75867
1.76493
1.77118
1.77742
1.78365
1.78985
1.79602
1.80216
1.80825
1.8143
1.82029
1.82623
1.8321
1.83791
1.84364
1.8493
1.85487
1.86035
1.86574
1.87103
1.87623
1.88131
1.88629
1.89116
1.89591
1.90054
1.90504
1.90942
1.91367
1.91778
1.92176
1.9256
1.9293
1.93286
1.93626
1.93952
1.94263
1.94559
1.94838
1.95103
1.95351
1.95583
1.958
1.96
1.96183
1.9635
1.965
1.96634
1.9675
1.9685
1.96933
1.96999
1.97048
1.97079
1.97094
1.97286
1.9727
1.97238
1.97189
1.97123
1.9704
1.96939
1.96822
1.96688
1.96536
1.96368
1.96184
1.95982
1.95764
1.9553
1.9528
1.95014
1.94732
1.94434
1.94121
1.93793
1.93449
1.93091
1.92718
1.92331
1.9193
1.91515
1.91087
1.90646
1.90191
1.89724
1.89245
1.88755
1.88252
1.87739
1.87215
1.86681
1.86137
1.85584
1.85022
1.84451
1.83873
1.83287
1.82694
1.82094
1.81489
1.80878
1.80263
1.79643
1.7902
1.78393
1.77764
1.77134
1.76501
1.75869
1.75236
1.74604
1.73974
1.73346
1.7272
1.72097
1.71479
1.70865
1.70257
1.69655
1.6906
1.68472
1.67892
1.67321
1.6676
1.66209
1.65669
1.6514
1.64624
1.6412
1.6363
1.63154
1.62693
1.62247
1.61817
1.61404
1.61007
1.60629
1.60268
1.59926
1.59602
1.59299
1.59015
1.58751
1.58508
1.58286
1.58085
1.57906
1.57749
1.57614
1.57501
1.5741
1.57342
1.57296
1.57273
1.57273
1.57296
1.57341
1.57409
1.575
1.57612
1.57747
1.57904
1.58083
1.58284
1.58506
1.58748
1.59012
1.59296
1.59599
1.59922
1.60264
1.60625
1.61004
1.614
1.61813
1.62243
1.62689
1.6315
1.63626
1.64116
1.64619
1.65135
1.65664
1.66204
1.66755
1.67316
1.67887
1.68467
1.69054
1.6965
1.70252
1.7086
1.71474
1.72092
1.72714
1.7334
1.73968
1.74599
1.75231
1.75863
1.76496
1.77128
1.77758
1.78387
1.79014
1.79637
1.80257
1.80872
1.81483
1.82088
1.82687
1.8328
1.83866
1.84445
1.85015
1.85577
1.8613
1.86674
1.87208
1.87732
1.88245
1.88747
1.89238
1.89716
1.90183
1.90637
1.91079
1.91507
1.91921
1.92322
1.92709
1.93082
1.9344
1.93783
1.94112
1.94425
1.94722
1.95004
1.9527
1.95521
1.95755
1.95972
1.96174
1.96358
1.96527
1.96678
1.96812
1.9693
1.9703
1.97114
1.9718
1.97229
1.97261
1.97276
1.97485
1.9747
1.97437
1.97388
1.97321
1.97237
1.97136
1.97018
1.96882
1.9673
1.9656
1.96374
1.96171
1.95952
1.95716
1.95464
1.95196
1.94911
1.94611
1.94296
1.93965
1.93619
1.93257
1.92882
1.92491
1.92087
1.91669
1.91237
1.90791
1.90333
1.89862
1.89379
1.88884
1.88377
1.87859
1.8733
1.86791
1.86242
1.85684
1.85116
1.8454
1.83956
1.83364
1.82765
1.82159
1.81547
1.8093
1.80308
1.79682
1.79052
1.78418
1.77782
1.77144
1.76505
1.75865
1.75225
1.74586
1.73948
1.73312
1.72679
1.72048
1.71422
1.70801
1.70185
1.69575
1.68972
1.68377
1.67789
1.67211
1.66642
1.66083
1.65536
1.65
1.64476
1.63966
1.63469
1.62986
1.62518
1.62066
1.6163
1.61211
1.60808
1.60424
1.60058
1.5971
1.59382
1.59074
1.58786
1.58518
1.58272
1.58046
1.57842
1.57661
1.57501
1.57363
1.57249
1.57157
1.57087
1.57041
1.57018
1.57018
1.57041
1.57087
1.57156
1.57248
1.57362
1.57499
1.57659
1.5784
1.58044
1.58269
1.58516
1.58783
1.59071
1.59379
1.59707
1.60054
1.6042
1.60805
1.61207
1.61626
1.62062
1.62514
1.62982
1.63464
1.63961
1.64472
1.64995
1.65531
1.66079
1.66637
1.67206
1.67784
1.68371
1.68967
1.6957
1.7018
1.70796
1.71417
1.72043
1.72673
1.73306
1.73942
1.7458
1.7522
1.7586
1.76499
1.77139
1.77776
1.78412
1.79046
1.79676
1.80302
1.80924
1.81541
1.82153
1.82758
1.83357
1.83949
1.84533
1.85109
1.85677
1.86235
1.86784
1.87323
1.87852
1.8837
1.88876
1.89371
1.89854
1.90325
1.90783
1.91228
1.9166
1.92078
1.92483
1.92873
1.93248
1.93609
1.93955
1.94286
1.94602
1.94902
1.95186
1.95454
1.95706
1.95942
1.96162
1.96364
1.96551
1.9672
1.96872
1.97008
1.97126
1.97227
1.97312
1.97378
1.97428
1.9746
1.97475
1.97701
1.97686
1.97653
1.97604
1.97536
1.97452
1.9735
1.9723
1.97094
1.9694
1.9677
1.96582
1.96377
1.96156
1.95918
1.95664
1.95393
1.95107
1.94804
1.94486
1.94152
1.93803
1.93439
1.9306
1.92666
1.92258
1.91836
1.914
1.9095
1.90488
1.90012
1.89525
1.89025
1.88513
1.8799
1.87456
1.86911
1.86357
1.85792
1.85219
1.84636
1.84046
1.83448
1.82842
1.8223
1.81611
1.80987
1.80358
1.79724
1.79087
1.78446
1.77802
1.77157
1.7651
1.75862
1.75214
1.74566
1.7392
1.73276
1.72634
1.71996
1.71361
1.70731
1.70107
1.69489
1.68877
1.68273
1.67678
1.67091
1.66514
1.65947
1.65391
1.64848
1.64316
1.63798
1.63293
1.62803
1.62328
1.61869
1.61426
1.61
1.60591
1.60201
1.59829
1.59476
1.59143
1.58829
1.58537
1.58265
1.58014
1.57785
1.57578
1.57393
1.5723
1.57091
1.56974
1.5688
1.5681
1.56763
1.56739
1.56739
1.56763
1.56809
1.5688
1.56973
1.57089
1.57229
1.57391
1.57576
1.57783
1.58011
1.58262
1.58534
1.58826
1.5914
1.59473
1.59825
1.60197
1.60588
1.60996
1.61422
1.61865
1.62324
1.62799
1.63289
1.63793
1.64311
1.64843
1.65386
1.65942
1.66509
1.67086
1.67672
1.68268
1.68872
1.69483
1.70101
1.70726
1.71355
1.7199
1.72628
1.7327
1.73914
1.74561
1.75208
1.75856
1.76504
1.77151
1.77796
1.7844
1.79081
1.79718
1.80352
1.80981
1.81605
1.82223
1.82836
1.83441
1.84039
1.8463
1.85212
1.85785
1.8635
1.86904
1.87449
1.87982
1.88505
1.89017
1.89517
1.90004
1.90479
1.90942
1.91391
1.91827
1.92249
1.92657
1.9305
1.93429
1.93794
1.94143
1.94476
1.94795
1.95097
1.95384
1.95654
1.95908
1.96146
1.96367
1.96572
1.9676
1.9693
1.97084
1.97221
1.9734
1.97442
1.97527
1.97594
1.97644
1.97676
1.97692
1.97935
1.9792
1.97887
1.97837
1.97769
1.97684
1.97581
1.9746
1.97323
1.97168
1.96996
1.96806
1.966
1.96377
1.96137
1.9588
1.95607
1.95318
1.95013
1.94692
1.94355
1.94002
1.93635
1.93252
1.92854
1.92442
1.92016
1.91576
1.91122
1.90655
1.90175
1.89682
1.89177
1.8866
1.88132
1.87592
1.87041
1.86481
1.8591
1.8533
1.84741
1.84144
1.83539
1.82926
1.82307
1.81681
1.81049
1.80412
1.79771
1.79125
1.78476
1.77824
1.7717
1.76515
1.75858
1.75202
1.74545
1.7389
1.73237
1.72586
1.71939
1.71295
1.70656
1.70023
1.69395
1.68775
1.68161
1.67557
1.66961
1.66375
1.65799
1.65235
1.64683
1.64143
1.63616
1.63103
1.62605
1.62122
1.61656
1.61205
1.60772
1.60357
1.59959
1.59581
1.59222
1.58883
1.58564
1.58266
1.5799
1.57734
1.57501
1.57291
1.57102
1.56937
1.56795
1.56676
1.56581
1.56509
1.56461
1.56437
1.56437
1.56461
1.56509
1.5658
1.56675
1.56794
1.56935
1.57101
1.57288
1.57499
1.57732
1.57987
1.58263
1.58561
1.5888
1.59219
1.59577
1.59956
1.60353
1.60768
1.61201
1.61651
1.62118
1.62601
1.63099
1.63611
1.64138
1.64678
1.6523
1.65794
1.6637
1.66956
1.67551
1.68156
1.68769
1.6939
1.70017
1.7065
1.71289
1.71933
1.7258
1.73231
1.73884
1.74539
1.75196
1.75852
1.76509
1.77164
1.77818
1.7847
1.79119
1.79765
1.80406
1.81043
1.81674
1.823
1.8292
1.83532
1.84137
1.84735
1.85323
1.85903
1.86474
1.87034
1.87584
1.88124
1.88652
1.89169
1.89674
1.90167
1.90647
1.91114
1.91567
1.92007
1.92434
1.92845
1.93243
1.93625
1.93993
1.94345
1.94682
1.95003
1.95308
1.95598
1.9587
1.96127
1.96367
1.9659
1.96796
1.96985
1.97158
1.97313
1.9745
1.97571
1.97674
1.97759
1.97827
1.97877
1.9791
1.97926
1.98187
1.98171
1.98138
1.98088
1.98019
1.97933
1.97829
1.97708
1.97569
1.97412
1.97239
1.97048
1.96839
1.96614
1.96372
1.96113
1.95837
1.95546
1.95237
1.94913
1.94573
1.94217
1.93846
1.93459
1.93058
1.92641
1.92211
1.91766
1.91308
1.90835
1.9035
1.89852
1.89341
1.88819
1.88284
1.87739
1.87182
1.86615
1.86037
1.85451
1.84855
1.8425
1.83638
1.83017
1.8239
1.81756
1.81116
1.80471
1.79821
1.79167
1.78509
1.77848
1.77185
1.76521
1.75855
1.75189
1.74523
1.73858
1.73195
1.72535
1.71878
1.71224
1.70575
1.69932
1.69295
1.68664
1.68041
1.67427
1.66822
1.66226
1.65641
1.65067
1.64505
1.63956
1.6342
1.62899
1.62392
1.61901
1.61426
1.60967
1.60526
1.60103
1.59699
1.59314
1.58948
1.58603
1.58278
1.57975
1.57693
1.57433
1.57196
1.56981
1.56789
1.56621
1.56476
1.56355
1.56258
1.56185
1.56136
1.56112
1.56111
1.56136
1.56184
1.56257
1.56354
1.56475
1.56619
1.56787
1.56979
1.57193
1.57431
1.5769
1.57972
1.58275
1.586
1.58945
1.5931
1.59695
1.60099
1.60522
1.60963
1.61421
1.61896
1.62387
1.62894
1.63416
1.63951
1.645
1.65062
1.65636
1.66221
1.66816
1.67422
1.68036
1.68659
1.69289
1.69926
1.7057
1.71219
1.71872
1.72529
1.7319
1.73853
1.74517
1.75183
1.75849
1.76515
1.77179
1.77842
1.78503
1.79161
1.79815
1.80465
1.8111
1.8175
1.82383
1.83011
1.83631
1.84243
1.84848
1.85444
1.8603
1.86607
1.87174
1.87731
1.88277
1.88811
1.89334
1.89844
1.90342
1.90827
1.91299
1.91757
1.92202
1.92632
1.93049
1.9345
1.93836
1.94207
1.94563
1.94903
1.95228
1.95536
1.95828
1.96103
1.96362
1.96604
1.96829
1.97037
1.97229
1.97402
1.97559
1.97698
1.97819
1.97923
1.98009
1.98078
1.98128
1.98161
1.98177
1.98457
1.98441
1.98408
1.98356
1.98287
1.982
1.98095
1.97973
1.97832
1.97675
1.97499
1.97306
1.97096
1.96868
1.96624
1.96362
1.96084
1.95789
1.95478
1.9515
1.94807
1.94447
1.94072
1.93681
1.93276
1.92855
1.9242
1.9197
1.91506
1.91029
1.90538
1.90034
1.89518
1.88989
1.88448
1.87896
1.87333
1.86759
1.86174
1.8558
1.84977
1.84364
1.83744
1.83115
1.8248
1.81837
1.81189
1.80535
1.79876
1.79212
1.78545
1.77875
1.77202
1.76528
1.75852
1.75176
1.745
1.73825
1.73152
1.72481
1.71813
1.71149
1.70489
1.69835
1.69188
1.68547
1.67913
1.67288
1.66672
1.66066
1.65471
1.64887
1.64315
1.63756
1.6321
1.62679
1.62163
1.61663
1.61179
1.60712
1.60263
1.59832
1.59419
1.59027
1.58654
1.58302
1.57971
1.57662
1.57374
1.57109
1.56867
1.56648
1.56452
1.56281
1.56133
1.5601
1.5591
1.55836
1.55786
1.55761
1.55761
1.55786
1.55835
1.5591
1.56008
1.56132
1.56279
1.56451
1.56646
1.56865
1.57107
1.57372
1.57659
1.57968
1.58299
1.58651
1.59023
1.59415
1.59827
1.60258
1.60708
1.61174
1.61658
1.62159
1.62675
1.63206
1.63751
1.6431
1.64882
1.65465
1.66061
1.66667
1.67283
1.67908
1.68541
1.69182
1.6983
1.70484
1.71143
1.71807
1.72475
1.73146
1.73819
1.74494
1.7517
1.75846
1.76521
1.77196
1.77869
1.78539
1.79206
1.79869
1.80528
1.81182
1.81831
1.82473
1.83109
1.83737
1.84357
1.8497
1.85573
1.86167
1.86751
1.87325
1.87889
1.88441
1.88981
1.8951
1.90026
1.9053
1.91021
1.91498
1.91961
1.92411
1.92846
1.93266
1.93672
1.94062
1.94437
1.94797
1.95141
1.95468
1.95779
1.96074
1.96352
1.96614
1.96858
1.97086
1.97296
1.97489
1.97664
1.97822
1.97963
1.98085
1.9819
1.98277
1.98346
1.98397
1.98431
1.98447
1.98744
1.98728
1.98695
1.98643
1.98573
1.98485
1.98379
1.98255
1.98114
1.97954
1.97777
1.97582
1.9737
1.9714
1.96893
1.96629
1.96347
1.96049
1.95735
1.95404
1.95056
1.94693
1.94314
1.93919
1.93508
1.93083
1.92643
1.92188
1.91719
1.91236
1.90739
1.90229
1.89707
1.89171
1.88624
1.88065
1.87494
1.86913
1.86321
1.85719
1.85107
1.84487
1.83858
1.83221
1.82576
1.81925
1.81267
1.80603
1.79935
1.79261
1.78584
1.77904
1.77221
1.76536
1.75849
1.75162
1.74476
1.7379
1.73105
1.72423
1.71744
1.71069
1.70398
1.69733
1.69074
1.68421
1.67776
1.6714
1.66513
1.65896
1.65289
1.64694
1.64112
1.63542
1.62986
1.62445
1.61919
1.61409
1.60915
1.60439
1.5998
1.59541
1.5912
1.5872
1.58339
1.5798
1.57642
1.57327
1.57033
1.56763
1.56515
1.56292
1.56092
1.55917
1.55766
1.5564
1.55539
1.55463
1.55412
1.55386
1.55386
1.55411
1.55462
1.55538
1.55639
1.55764
1.55915
1.5609
1.5629
1.56513
1.5676
1.5703
1.57324
1.57639
1.57977
1.58336
1.58716
1.59116
1.59537
1.59976
1.60434
1.6091
1.61404
1.61914
1.6244
1.62981
1.63537
1.64107
1.64689
1.65284
1.6589
1.66507
1.67135
1.67771
1.68416
1.69068
1.69727
1.70392
1.71063
1.71738
1.72417
1.73099
1.73784
1.7447
1.75156
1.75843
1.76529
1.77214
1.77897
1.78578
1.79255
1.79928
1.80597
1.8126
1.81918
1.82569
1.83214
1.83851
1.8448
1.851
1.85712
1.86313
1.86905
1.87487
1.88057
1.88616
1.89164
1.89699
1.90221
1.90731
1.91227
1.9171
1.92179
1.92634
1.93074
1.93499
1.93909
1.94304
1.94683
1.95046
1.95394
1.95725
1.96039
1.96337
1.96619
1.96883
1.9713
1.97359
1.97572
1.97767
1.97944
1.98103
1.98245
1.98369
1.98475
1.98563
1.98633
1.98684
1.98718
1.98734
1.9905
1.99034
1.99
1.98948
1.98877
1.98788
1.98681
1.98556
1.98413
1.98251
1.98072
1.97875
1.97661
1.97428
1.97179
1.96912
1.96627
1.96326
1.96008
1.95673
1.95322
1.94954
1.94571
1.94171
1.93756
1.93326
1.9288
1.9242
1.91945
1.91456
1.90954
1.90437
1.89908
1.89366
1.88811
1.88245
1.87667
1.87077
1.86477
1.85867
1.85247
1.84618
1.8398
1.83333
1.8268
1.82018
1.81351
1.80677
1.79998
1.79315
1.78627
1.77935
1.77241
1.76545
1.75847
1.75149
1.74451
1.73753
1.73057
1.72363
1.71672
1.70984
1.70301
1.69624
1.68953
1.68288
1.67631
1.66983
1.66344
1.65715
1.65096
1.6449
1.63896
1.63315
1.62748
1.62195
1.61658
1.61138
1.60634
1.60148
1.5968
1.59231
1.58801
1.58392
1.58004
1.57637
1.57292
1.56969
1.56669
1.56393
1.5614
1.55911