/*--------------------------------*- C++ -*----------------------------------*\
| =========                 |                                                 |
| \\      /  F ield         | OpenFOAM: The Open Source CFD Toolbox           |
|  \\    /   O peration     | Version:  2412                                  |
|   \\  /    A nd           | Website:  www.openfoam.com                      |
|    \\/     M anipulation  |                                                 |
\*---------------------------------------------------------------------------*/
FoamFile
{
    version     2.0;
    format      ascii;
    arch        "LSB;label=32;scalar=64";
    class       surfaceScalarField;
    location    "1.02";
    object      phi;
}
// * * * * * * * * * * * * * * * * * * * * * * * * * * * * * * * * * * * * * //

dimensions      [0 3 -1 0 0 0 0];

oriented        oriented;

internalField   nonuniform List<scalar> 
79600
(
7.35116e-12
-7.14545e-12
-4.6968e-13
7.81979e-12
5.31741e-12
-5.79178e-12
1.29763e-11
-7.65978e-12
2.23408e-11
-9.35914e-12
3.15792e-11
-9.23461e-12
4.05855e-11
-9.0078e-12
4.93143e-11
-8.73197e-12
5.77389e-11
-8.42519e-12
6.59306e-11
-8.18952e-12
7.39336e-11
-8.00039e-12
8.17658e-11
-7.83116e-12
8.94494e-11
-7.684e-12
9.70001e-11
-7.55171e-12
1.04428e-10
-7.42936e-12
1.11741e-10
-7.31298e-12
1.18937e-10
-7.19648e-12
1.26017e-10
-7.08071e-12
1.32982e-10
-6.96448e-12
1.39828e-10
-6.84575e-12
1.46553e-10
-6.72407e-12
1.53153e-10
-6.59859e-12
1.59624e-10
-6.46864e-12
1.65959e-10
-6.33422e-12
1.72155e-10
-6.19498e-12
1.78207e-10
-6.05112e-12
1.8411e-10
-5.90289e-12
1.8986e-10
-5.75044e-12
1.95454e-10
-5.59402e-12
2.00887e-10
-5.43338e-12
2.06155e-10
-5.26821e-12
2.11253e-10
-5.09846e-12
2.16177e-10
-4.92382e-12
2.20922e-10
-4.74419e-12
2.25483e-10
-4.55982e-12
2.29854e-10
-4.37062e-12
2.34032e-10
-4.17644e-12
2.3801e-10
-3.97733e-12
2.41783e-10
-3.77292e-12
2.45346e-10
-3.56277e-12
2.48692e-10
-3.34679e-12
2.51817e-10
-3.12484e-12
2.54713e-10
-2.89677e-12
2.57375e-10
-2.66284e-12
2.59798e-10
-2.42344e-12
2.61977e-10
-2.17883e-12
2.63906e-10
-1.92947e-12
2.65581e-10
-1.67579e-12
2.66999e-10
-1.41807e-12
2.68156e-10
-1.15664e-12
2.69047e-10
-8.91942e-13
2.6967e-10
-6.24163e-13
2.70023e-10
-3.53416e-13
2.701e-10
-7.85037e-14
2.69901e-10
1.9829e-13
2.69425e-10
4.73722e-13
2.68671e-10
7.53035e-13
2.67637e-10
1.03305e-12
2.6632e-10
1.31568e-12
2.64719e-10
1.60009e-12
2.62833e-10
1.88588e-12
2.6066e-10
2.17278e-12
2.582e-10
2.46061e-12
2.55451e-10
2.74894e-12
2.52414e-10
3.03718e-12
2.4909e-10
3.32469e-12
2.45479e-10
3.61081e-12
2.41584e-10
3.89494e-12
2.37407e-10
4.17654e-12
2.32951e-10
4.4553e-12
2.28219e-10
4.73097e-12
2.23215e-10
5.00327e-12
2.17942e-10
5.27194e-12
2.12404e-10
5.53677e-12
2.06605e-10
5.79752e-12
2.00551e-10
6.05378e-12
1.94245e-10
6.30499e-12
1.87694e-10
6.55054e-12
1.80905e-10
6.78982e-12
1.73883e-10
7.02221e-12
1.66636e-10
7.24709e-12
1.59173e-10
7.4638e-12
1.51501e-10
7.6716e-12
1.43631e-10
7.86993e-12
1.35572e-10
8.05846e-12
1.27335e-10
8.23699e-12
1.18929e-10
8.4052e-12
1.10366e-10
8.56262e-12
1.01656e-10
8.70881e-12
9.2812e-11
8.84354e-12
8.38447e-11
8.96679e-12
7.47659e-11
9.07845e-12
6.55877e-11
9.17817e-12
5.63223e-11
9.26552e-12
4.69824e-11
9.3403e-12
3.75803e-11
9.40261e-12
2.81282e-11
9.45275e-12
1.86381e-11
9.4908e-12
9.12232e-12
9.51654e-12
-4.06513e-13
9.52955e-12
-9.93545e-12
9.52955e-12
-1.94516e-11
9.5166e-12
-2.89424e-11
9.49099e-12
-3.83954e-11
9.45298e-12
-4.77985e-11
9.40273e-12
-5.71393e-11
9.34024e-12
-6.64054e-11
9.2655e-12
-7.55847e-11
9.17861e-12
-8.46651e-11
9.07976e-12
-9.36348e-11
8.96915e-12
-1.02482e-10
8.84687e-12
-1.11195e-10
8.71301e-12
-1.19763e-10
8.56768e-12
-1.28174e-10
8.41105e-12
-1.36417e-10
8.24339e-12
-1.44482e-10
8.06507e-12
-1.52358e-10
7.87646e-12
-1.60036e-10
7.67802e-12
-1.67506e-10
7.47035e-12
-1.7476e-10
7.25408e-12
-1.8179e-10
7.02987e-12
-1.88588e-10
6.79849e-12
-1.95149e-10
6.56059e-12
-2.01466e-10
6.31668e-12
-2.07533e-10
6.06717e-12
-2.13346e-10
5.81244e-12
-2.18899e-10
5.55284e-12
-2.24189e-10
5.28867e-12
-2.2921e-10
5.02034e-12
-2.33959e-10
4.74838e-12
-2.38432e-10
4.47322e-12
-2.42628e-10
4.19533e-12
-2.46544e-10
3.91526e-12
-2.50178e-10
3.63343e-12
-2.53529e-10
3.35018e-12
-2.56597e-10
3.06616e-12
-2.5938e-10
2.78196e-12
-2.61879e-10
2.49762e-12
-2.64092e-10
2.21303e-12
-2.66022e-10
1.92842e-12
-2.67665e-10
1.64385e-12
-2.69023e-10
1.35852e-12
-2.70095e-10
1.07233e-12
-2.70883e-10
7.864e-13
-2.71385e-10
5.01744e-13
-2.71605e-10
2.19749e-13
-2.71546e-10
-5.98683e-14
-2.7121e-10
-3.37228e-13
-2.70603e-10
-6.06844e-13
-2.6973e-10
-8.71081e-13
-2.68601e-10
-1.12984e-12
-2.6722e-10
-1.38225e-12
-2.65591e-10
-1.62953e-12
-2.63716e-10
-1.87372e-12
-2.61602e-10
-2.11548e-12
-2.5925e-10
-2.35399e-12
-2.5666e-10
-2.58909e-12
-2.53836e-10
-2.8215e-12
-2.50783e-10
-3.05094e-12
-2.47507e-10
-3.2759e-12
-2.44012e-10
-3.49518e-12
-2.40303e-10
-3.70809e-12
-2.36387e-10
-3.91395e-12
-2.32274e-10
-4.1119e-12
-2.27972e-10
-4.30164e-12
-2.23487e-10
-4.48423e-12
-2.18823e-10
-4.66186e-12
-2.13985e-10
-4.83594e-12
-2.08979e-10
-5.00619e-12
-2.03808e-10
-5.17233e-12
-1.98471e-10
-5.33551e-12
-1.92972e-10
-5.49635e-12
-1.87318e-10
-5.65174e-12
-1.81523e-10
-5.79612e-12
-1.75596e-10
-5.92655e-12
-1.69548e-10
-6.0455e-12
-1.63388e-10
-6.15904e-12
-1.57115e-10
-6.27173e-12
-1.50729e-10
-6.38544e-12
-1.44225e-10
-6.5008e-12
-1.37607e-10
-6.61589e-12
-1.30881e-10
-6.72551e-12
-1.24057e-10
-6.82408e-12
-1.17147e-10
-6.90887e-12
-1.10166e-10
-6.9807e-12
-1.03121e-10
-7.04373e-12
-9.60155e-11
-7.10418e-12
-8.88482e-11
-7.16721e-12
-8.16166e-11
-7.23339e-12
-7.4319e-11
-7.29878e-12
-6.69585e-11
-7.35895e-12
-5.95475e-11
-7.40921e-12
-5.21014e-11
-7.44673e-12
-4.46287e-11
-7.47395e-12
-3.713e-11
-7.49772e-12
-2.96062e-11
-7.52197e-12
-2.20657e-11
-7.54017e-12
-1.45247e-11
-7.54104e-12
-7.01011e-12
-7.51545e-12
-7.01085e-12
2.24618e-11
-2.96082e-11
3.07177e-11
-4.32683e-13
3.46733e-11
-9.74973e-12
3.98375e-11
-1.28342e-11
4.52791e-11
-1.48069e-11
5.16839e-11
-1.56366e-11
5.8705e-11
-1.60226e-11
6.60702e-11
-1.60934e-11
7.36563e-11
-1.60111e-11
8.13423e-11
-1.58763e-11
8.90625e-11
-1.57208e-11
9.67854e-11
-1.55536e-11
1.04483e-10
-1.53816e-11
1.12136e-10
-1.52057e-11
1.1973e-10
-1.50252e-11
1.27255e-10
-1.48385e-11
1.34702e-10
-1.4644e-11
1.42063e-10
-1.44414e-11
1.4933e-10
-1.42302e-11
1.56496e-10
-1.40099e-11
1.63555e-10
-1.37798e-11
1.70498e-10
-1.35396e-11
1.77321e-10
-1.32888e-11
1.84015e-10
-1.30273e-11
1.90576e-10
-1.27549e-11
1.96997e-10
-1.24715e-11
2.03271e-10
-1.21773e-11
2.09392e-10
-1.18723e-11
2.15354e-10
-1.15567e-11
2.21151e-10
-1.12302e-11
2.26776e-10
-1.08928e-11
2.32222e-10
-1.05444e-11
2.37484e-10
-1.01849e-11
2.42556e-10
-9.81421e-12
2.4743e-10
-9.4326e-12
2.521e-10
-9.04005e-12
2.56561e-10
-8.63651e-12
2.60806e-10
-8.22191e-12
2.6483e-10
-7.79606e-12
2.68625e-10
-7.35869e-12
2.72187e-10
-6.90965e-12
2.75511e-10
-6.44891e-12
2.7859e-10
-5.97657e-12
2.81419e-10
-5.49289e-12
2.83993e-10
-4.99827e-12
2.86307e-10
-4.49327e-12
2.88356e-10
-3.97844e-12
2.90134e-10
-3.45429e-12
2.91636e-10
-2.92139e-12
2.92859e-10
-2.3803e-12
2.93797e-10
-1.83152e-12
2.94446e-10
-1.27547e-12
2.94803e-10
-7.12598e-13
2.94866e-10
-1.43395e-13
2.94629e-10
4.3248e-13
2.9409e-10
1.01104e-12
2.93245e-10
1.59544e-12
2.92093e-10
2.18377e-12
2.90632e-10
2.77597e-12
2.8886e-10
3.37146e-12
2.86776e-10
3.96951e-12
2.8438e-10
4.5694e-12
2.8167e-10
5.17044e-12
2.78648e-10
5.77177e-12
2.75313e-10
6.37242e-12
2.71666e-10
6.97136e-12
2.67709e-10
7.56758e-12
2.63443e-10
8.1601e-12
2.5887e-10
8.74805e-12
2.53993e-10
9.3306e-12
2.48815e-10
9.90699e-12
2.4334e-10
1.04764e-11
2.37572e-10
1.10382e-11
2.31516e-10
1.15914e-11
2.25177e-10
1.21352e-11
2.18562e-10
1.26687e-11
2.11676e-10
1.31906e-11
2.04527e-10
1.37e-11
1.97121e-10
1.41955e-11
1.89467e-10
1.46761e-11
1.81574e-10
1.51407e-11
1.73449e-10
1.55883e-11
1.65103e-10
1.60178e-11
1.56543e-10
1.64282e-11
1.47782e-10
1.68189e-11
1.38828e-10
1.71892e-11
1.29694e-10
1.75385e-11
1.2039e-10
1.78659e-11
1.10927e-10
1.81709e-11
1.01317e-10
1.84526e-11
9.15732e-11
1.87107e-11
8.17071e-11
1.89446e-11
7.1732e-11
1.91537e-11
6.16607e-11
1.93374e-11
5.15064e-11
1.94953e-11
4.12828e-11
1.96272e-11
3.10035e-11
1.9733e-11
2.06827e-11
1.98126e-11
1.03342e-11
1.98659e-11
-2.80407e-14
1.98925e-11
-1.03902e-11
1.98921e-11
-2.07385e-11
1.98651e-11
-3.10592e-11
1.98115e-11
-4.13385e-11
1.97318e-11
-5.15624e-11
1.96259e-11
-6.17173e-11
1.94942e-11
-7.17897e-11
1.93368e-11
-8.17661e-11
1.9154e-11
-9.16333e-11
1.89463e-11
-1.01379e-10
1.8714e-11
-1.10989e-10
1.84574e-11
-1.20453e-10
1.81769e-11
-1.29758e-10
1.78731e-11
-1.38894e-10
1.75463e-11
-1.47847e-10
1.71974e-11
-1.56609e-10
1.68269e-11
-1.65168e-10
1.64358e-11
-1.73515e-10
1.60249e-11
-1.8164e-10
1.55952e-11
-1.89534e-10
1.51477e-11
-1.97187e-10
1.46836e-11
-2.04593e-10
1.42039e-11
-2.11743e-10
1.37098e-11
-2.18629e-10
1.32022e-11
-2.25245e-10
1.26821e-11
-2.31584e-10
1.21504e-11
-2.37641e-10
1.16081e-11
-2.43409e-10
1.1056e-11
-2.48885e-10
1.04951e-11
-2.54064e-10
9.92629e-12
-2.58942e-10
9.35063e-12
-2.63516e-10
8.76896e-12
-2.67784e-10
8.18228e-12
-2.71744e-10
7.59162e-12
-2.75393e-10
6.99787e-12
-2.7873e-10
6.40182e-12
-2.81754e-10
5.80447e-12
-2.84464e-10
5.20667e-12
-2.8686e-10
4.60871e-12
-2.88942e-10
4.01078e-12
-2.90712e-10
3.41358e-12
-2.92171e-10
2.81766e-12
-2.93322e-10
2.22304e-12
-2.94167e-10
1.63038e-12
-2.9471e-10
1.04162e-12
-2.94949e-10
4.58447e-13
-2.9489e-10
-1.19252e-13
-2.94537e-10
-6.90535e-13
-2.93893e-10
-1.25256e-12
-2.92959e-10
-1.80455e-12
-2.9174e-10
-2.34751e-12
-2.90242e-10
-2.88199e-12
-2.88468e-10
-3.40713e-12
-2.86421e-10
-3.92264e-12
-2.84105e-10
-4.42979e-12
-2.81528e-10
-4.92954e-12
-2.78696e-10
-5.4212e-12
-2.75614e-10
-5.90343e-12
-2.72287e-10
-6.37564e-12
-2.68723e-10
-6.83783e-12
-2.64928e-10
-7.28972e-12
-2.60907e-10
-7.72994e-12
-2.56663e-10
-8.1566e-12
-2.52203e-10
-8.56888e-12
-2.47533e-10
-8.96788e-12
-2.4266e-10
-9.35546e-12
-2.3759e-10
-9.73225e-12
-2.32328e-10
-1.00977e-11
-2.26881e-10
-1.04518e-11
-2.21255e-10
-1.0796e-11
-2.15458e-10
-1.11312e-11
-2.09496e-10
-1.14566e-11
-2.03376e-10
-1.17695e-11
-1.97104e-10
-1.2067e-11
-1.90684e-10
-1.23474e-11
-1.84116e-10
-1.26116e-11
-1.77408e-10
-1.28629e-11
-1.70569e-10
-1.31058e-11
-1.6361e-10
-1.33431e-11
-1.56537e-10
-1.35748e-11
-1.49356e-10
-1.37978e-11
-1.42071e-10
-1.40083e-11
-1.34687e-10
-1.42039e-11
-1.27208e-10
-1.43845e-11
-1.19639e-10
-1.45504e-11
-1.11984e-10
-1.47018e-11
-1.04248e-10
-1.48409e-11
-9.64388e-11
-1.49729e-11
-8.85666e-11
-1.51026e-11
-8.06382e-11
-1.52277e-11
-7.26575e-11
-1.53408e-11
-6.46298e-11
-1.54359e-11
-5.65624e-11
-1.55127e-11
-4.84596e-11
-1.55766e-11
-4.03226e-11
-1.56349e-11
-3.21533e-11
-1.56894e-11
-2.39592e-11
-1.57313e-11
-1.57521e-11
-1.57503e-11
-7.53697e-12
-1.57309e-11
-1.45481e-11
9.31254e-12
-3.89255e-11
2.23961e-11
-1.35143e-11
3.0164e-11
-1.75104e-11
3.76146e-11
-2.02845e-11
4.48207e-11
-2.20178e-11
5.20834e-11
-2.29025e-11
5.94987e-11
-2.34369e-11
6.70384e-11
-2.363e-11
7.46712e-11
-2.36418e-11
8.23585e-11
-2.35632e-11
9.00674e-11
-2.34303e-11
9.77739e-11
-2.3261e-11
1.05457e-10
-2.30653e-11
1.131e-10
-2.2849e-11
1.20688e-10
-2.26141e-11
1.2821e-10
-2.23616e-11
1.35658e-10
-2.20919e-11
1.43023e-10
-2.18052e-11
1.50296e-10
-2.1502e-11
1.5747e-10
-2.11821e-11
1.64538e-10
-2.08456e-11
1.71492e-10
-2.04923e-11
1.78327e-10
-2.0122e-11
1.85035e-10
-1.97345e-11
1.91611e-10
-1.93296e-11
1.98047e-10
-1.89073e-11
2.04337e-10
-1.84676e-11
2.10475e-10
-1.80105e-11
2.16454e-10
-1.7536e-11
2.22268e-10
-1.70441e-11
2.2791e-10
-1.65347e-11
2.33374e-10
-1.60079e-11
2.38653e-10
-1.54635e-11
2.43742e-10
-1.49018e-11
2.48633e-10
-1.43228e-11
2.5332e-10
-1.37266e-11
2.57797e-10
-1.31132e-11
2.62058e-10
-1.24826e-11
2.66096e-10
-1.18347e-11
2.69907e-10
-1.11694e-11
2.73484e-10
-1.04867e-11
2.76821e-10
-9.78658e-12
2.79913e-10
-9.06931e-12
2.82755e-10
-8.33524e-12
2.85342e-10
-7.5849e-12
2.87667e-10
-6.81893e-12
2.89726e-10
-6.03797e-12
2.91514e-10
-5.24271e-12
2.93025e-10
-4.43389e-12
2.94256e-10
-3.61221e-12
2.95201e-10
-2.77833e-12
2.95856e-10
-1.93298e-12
2.96219e-10
-1.07695e-12
2.96284e-10
-2.1108e-13
2.9605e-10
6.64502e-13
2.95512e-10
1.54812e-12
2.94667e-10
2.43915e-12
2.93513e-10
3.33667e-12
2.92049e-10
4.23989e-12
2.90272e-10
5.14786e-12
2.88182e-10
6.05952e-12
2.85778e-10
6.97376e-12
2.83059e-10
7.88946e-12
2.80025e-10
8.80536e-12
2.76677e-10
9.72011e-12
2.73015e-10
1.06323e-11
2.69041e-10
1.15406e-11
2.64757e-10
1.24435e-11
2.60164e-10
1.33398e-11
2.55265e-10
1.42281e-11
2.50064e-10
1.51072e-11
2.44564e-10
1.59756e-11
2.38769e-10
1.68321e-11
2.32685e-10
1.76752e-11
2.26317e-10
1.85033e-11
2.1967e-10
1.93151e-11
2.12752e-10
2.01088e-11
2.05569e-10
2.08829e-11
1.98128e-10
2.16356e-11
1.90438e-10
2.23655e-11
1.82507e-10
2.3071e-11
1.74343e-10
2.37508e-11
1.65956e-10
2.44035e-11
1.57356e-10
2.50275e-11
1.48552e-10
2.56219e-11
1.39555e-10
2.61855e-11
1.30376e-10
2.67173e-11
1.21026e-10
2.72161e-11
1.11516e-10
2.76807e-11
1.01859e-10
2.81102e-11
9.20665e-11
2.85036e-11
8.21512e-11
2.88602e-11
7.21259e-11
2.91792e-11
6.20037e-11
2.94597e-11
5.17981e-11
2.97009e-11
4.15226e-11
2.99025e-11
3.11914e-11
3.00641e-11
2.08183e-11
3.01857e-11
1.04174e-11
3.02669e-11
2.71614e-15
3.03074e-11
-1.04118e-11
3.0307e-11
-2.08124e-11
3.02659e-11
-3.1185e-11
3.01843e-11
-4.15159e-11
3.00626e-11
-5.1791e-11
2.99009e-11
-6.19967e-11
2.96996e-11
-7.21193e-11
2.9459e-11
-8.21452e-11
2.91796e-11
-9.20613e-11
2.8862e-11
-1.01855e-10
2.8507e-11
-1.11512e-10
2.8115e-11
-1.21022e-10
2.76869e-11
-1.30373e-10
2.72235e-11
-1.39552e-10
2.67255e-11
-1.48549e-10
2.61941e-11
-1.57352e-10
2.56304e-11
-1.65953e-10
2.50356e-11
-1.74339e-10
2.4411e-11
-1.82503e-10
2.3758e-11
-1.90434e-10
2.30781e-11
-1.98124e-10
2.23727e-11
-2.05564e-10
2.16433e-11
-2.12747e-10
2.08915e-11
-2.19665e-10
2.0119e-11
-2.26311e-10
1.9327e-11
-2.32679e-10
1.85171e-11
-2.38763e-10
1.76908e-11
-2.44557e-10
1.68494e-11
-2.50056e-10
1.59943e-11
-2.55256e-10
1.51271e-11
-2.60154e-10
1.42492e-11
-2.64747e-10
1.33621e-11
-2.69031e-10
1.24672e-11
-2.73005e-10
1.15657e-11
-2.76666e-10
1.06593e-11
-2.80014e-10
9.74937e-12
-2.83047e-10
8.83698e-12
-2.85764e-10
7.9234e-12
-2.88165e-10
7.00981e-12
-2.90251e-10
6.0971e-12
-2.92023e-10
5.1859e-12
-2.93483e-10
4.27719e-12
-2.94633e-10
3.37231e-12
-2.95476e-10
2.47236e-12
-2.96015e-10
1.57831e-12
-2.96251e-10
6.91727e-13
-2.96186e-10
-1.86194e-13
-2.95825e-10
-1.05177e-12
-2.95171e-10
-1.90711e-12
-2.94227e-10
-2.75002e-12
-2.92998e-10
-3.57934e-12
-2.91486e-10
-4.39522e-12
-2.89698e-10
-5.19822e-12
-2.87635e-10
-5.98777e-12
-2.85304e-10
-6.763e-12
-2.8271e-10
-7.52398e-12
-2.7986e-10
-8.27122e-12
-2.76759e-10
-9.00426e-12
-2.73414e-10
-9.72173e-12
-2.6983e-10
-1.04225e-11
-2.66015e-10
-1.11062e-11
-2.61972e-10
-1.17726e-11
-2.57706e-10
-1.24211e-11
-2.53223e-10
-1.30505e-11
-2.48531e-10
-1.36601e-11
-2.43636e-10
-1.42512e-11
-2.38542e-10
-1.48256e-11
-2.33255e-10
-1.53839e-11
-2.27782e-10
-1.59248e-11
-2.22132e-10
-1.64474e-11
-2.1631e-10
-1.69528e-11
-2.10323e-10
-1.74426e-11
-2.04176e-10
-1.79155e-11
-1.97876e-10
-1.83681e-11
-1.91426e-10
-1.87981e-11
-1.8483e-10
-1.92065e-11
-1.78094e-10
-1.95964e-11
-1.7123e-10
-1.99707e-11
-1.64244e-10
-2.03307e-11
-1.57142e-10
-2.06765e-11
-1.49928e-10
-2.10078e-11
-1.4261e-10
-2.1323e-11
-1.35195e-10
-2.16198e-11
-1.27686e-10
-2.18958e-11
-1.20084e-10
-2.21503e-11
-1.12396e-10
-2.2385e-11
-1.04629e-10
-2.26036e-11
-9.67927e-11
-2.28091e-11
-8.88947e-11
-2.30026e-11
-8.09394e-11
-2.31826e-11
-7.29319e-11
-2.33457e-11
-6.48779e-11
-2.34881e-11
-5.67817e-11
-2.36089e-11
-4.86452e-11
-2.37143e-11
-4.04709e-11
-2.38119e-11
-3.22657e-11
-2.38976e-11
-2.4042e-11
-2.39592e-11
-1.57974e-11
-2.3996e-11
-7.56082e-12
-2.39703e-11
-2.21076e-11
6.75304e-12
-4.56822e-11
1.85017e-11
-2.52712e-11
2.77603e-11
-2.6766e-11
3.59371e-11
-2.84565e-11
4.37227e-11
-2.98026e-11
5.14729e-11
-3.06548e-11
5.92007e-11
-3.11662e-11
6.69322e-11
-3.13613e-11
7.46879e-11
-3.13966e-11
8.24558e-11
-3.13307e-11
9.02202e-11
-3.1195e-11
9.79657e-11
-3.10072e-11
1.05678e-10
-3.07788e-11
1.13345e-10
-3.05164e-11
1.20955e-10
-3.0224e-11
1.28498e-10
-2.99041e-11
1.35964e-10
-2.9558e-11
1.43347e-10
-2.91869e-11
1.50638e-10
-2.87915e-11
1.57829e-10
-2.83723e-11
1.64915e-10
-2.79294e-11
1.71887e-10
-2.74631e-11
1.78739e-10
-2.69731e-11
1.85465e-10
-2.64595e-11
1.92058e-10
-2.59219e-11
1.98511e-10
-2.53605e-11
2.04819e-10
-2.47751e-11
2.10974e-10
-2.41657e-11
2.16971e-10
-2.35324e-11
2.22802e-10
-2.28751e-11
2.28461e-10
-2.21939e-11
2.33943e-10
-2.14888e-11
2.39239e-10
-2.07599e-11
2.44345e-10
-2.00072e-11
2.49253e-10
-1.92308e-11
2.53957e-10
-1.8431e-11
2.58452e-10
-1.76077e-11
2.6273e-10
-1.6761e-11
2.66786e-10
-1.58909e-11
2.70614e-10
-1.49975e-11
2.74208e-10
-1.40807e-11
2.77563e-10
-1.31409e-11
2.80672e-10
-1.21783e-11
2.8353e-10
-1.11934e-11
2.86132e-10
-1.01869e-11
2.88472e-10
-9.1595e-12
2.90545e-10
-8.1119e-12
2.92346e-10
-7.04498e-12
2.9387e-10
-5.95958e-12
2.95113e-10
-4.85654e-12
2.96069e-10
-3.73673e-12
2.96735e-10
-2.60114e-12
2.97107e-10
-1.45089e-12
2.97183e-10
-2.88113e-13
2.96957e-10
8.89092e-13
2.96426e-10
2.07827e-12
2.95588e-10
3.27678e-12
2.9444e-10
4.48412e-12
2.92981e-10
5.69915e-12
2.91208e-10
6.92053e-12
2.89121e-10
8.14679e-12
2.86717e-10
9.37647e-12
2.83998e-10
1.06081e-11
2.80963e-10
1.184e-11
2.77611e-10
1.30704e-11
2.73945e-10
1.42975e-11
2.69965e-10
1.55195e-11
2.65673e-10
1.67346e-11
2.61071e-10
1.79409e-11
2.56162e-10
1.91366e-11
2.50949e-10
2.03198e-11
2.45436e-10
2.14885e-11
2.39627e-10
2.26409e-11
2.33528e-10
2.37749e-11
2.27143e-10
2.48885e-11
2.20478e-10
2.59795e-11
2.1354e-10
2.70462e-11
2.06336e-10
2.80862e-11
1.98873e-10
2.90976e-11
1.91158e-10
3.00782e-11
1.83201e-10
3.10263e-11
1.7501e-10
3.194e-11
1.66595e-10
3.28177e-11
1.57964e-10
3.36573e-11
1.49128e-10
3.44572e-11
1.40098e-10
3.52157e-11
1.30885e-10
3.59313e-11
1.215e-10
3.66026e-11
1.11954e-10
3.72279e-11
1.02259e-10
3.78058e-11
9.24278e-11
3.83351e-11
8.24735e-11
3.88147e-11
7.24088e-11
3.92436e-11
6.22469e-11
3.96208e-11
5.20015e-11
3.99455e-11
4.16859e-11
4.02171e-11
3.13143e-11
4.0435e-11
2.09006e-11
4.05989e-11
1.04589e-11
4.07085e-11
3.32239e-15
4.07633e-11
-1.04522e-11
4.0763e-11
-2.08937e-11
4.07081e-11
-3.13073e-11
4.05985e-11
-4.16787e-11
4.04346e-11
-5.1994e-11
4.02166e-11
-6.22394e-11
3.99452e-11
-7.24012e-11
3.96208e-11
-8.24658e-11
3.92442e-11
-9.242e-11
3.88162e-11
-1.02251e-10
3.83377e-11
-1.11945e-10
3.78096e-11
-1.21491e-10
3.72329e-11
-1.30876e-10
3.66087e-11
-1.40089e-10
3.59385e-11
-1.49119e-10
3.52235e-11
-1.57954e-10
3.44653e-11
-1.66585e-10
3.36655e-11
-1.75001e-10
3.28258e-11
-1.83192e-10
3.1948e-11
-1.91149e-10
3.1034e-11
-1.98864e-10
3.00858e-11
-2.06327e-10
2.91054e-11
-2.13532e-10
2.80947e-11
-2.2047e-10
2.70559e-11
-2.27135e-10
2.59909e-11
-2.3352e-10
2.49015e-11
-2.39619e-10
2.37899e-11
-2.45427e-10
2.26578e-11
-2.50939e-10
2.15073e-11
-2.56151e-10
2.03403e-11
-2.61058e-10
1.91587e-11
-2.65659e-10
1.79645e-11
-2.69949e-10
1.67597e-11
-2.73928e-10
1.5546e-11
-2.77594e-10
1.43254e-11
-2.80944e-10
1.30999e-11
-2.83978e-10
1.18712e-11
-2.86695e-10
1.06409e-11
-2.89096e-10
9.41034e-12
-2.9118e-10
8.18136e-12
-2.92949e-10
6.95548e-12
-2.94406e-10
5.73338e-12
-2.95551e-10
4.5164e-12
-2.96388e-10
3.30702e-12
-2.96919e-10
2.10698e-12
-2.97146e-10
9.16703e-13
-2.9707e-10
-2.63111e-13
-2.96698e-10
-1.42617e-12
-2.96032e-10
-2.5749e-12
-2.95074e-10
-3.70808e-12
-2.9383e-10
-4.82508e-12
-2.92306e-10
-5.92415e-12
-2.90503e-10
-7.00447e-12
-2.88426e-10
-8.06644e-12
-2.8608e-10
-9.10998e-12
-2.83472e-10
-1.0134e-11
-2.80608e-10
-1.11377e-11
-2.77492e-10
-1.21209e-11
-2.7413e-10
-1.30832e-11
-2.7053e-10
-1.40234e-11
-2.66697e-10
-1.49406e-11
-2.62637e-10
-1.58344e-11
-2.58354e-10
-1.67042e-11
-2.53853e-10
-1.75495e-11
-2.49141e-10
-1.837e-11
-2.44228e-10
-1.91664e-11
-2.39117e-10
-1.99392e-11
-2.33814e-10
-2.06887e-11
-2.28323e-10
-2.14143e-11
-2.22654e-10
-2.21159e-11
-2.16812e-10
-2.27942e-11
-2.10805e-10
-2.345e-11
-2.04639e-10
-2.40826e-11
-1.9832e-10
-2.4689e-11
-1.91851e-10
-2.52672e-11
-1.85237e-10
-2.58179e-11
-1.78486e-10
-2.63443e-11
-1.71606e-10
-2.68493e-11
-1.64603e-10
-2.73345e-11
-1.57482e-10
-2.77991e-11
-1.50248e-10
-2.82411e-11
-1.42908e-10
-2.86591e-11
-1.3547e-10
-2.90533e-11
-1.27939e-10
-2.94236e-11
-1.20322e-10
-2.97682e-11
-1.12621e-10
-3.00862e-11
-1.04842e-10
-3.03807e-11
-9.69926e-11
-3.06561e-11
-8.90798e-11
-3.09138e-11
-8.11095e-11
-3.11525e-11
-7.30861e-11
-3.13694e-11
-6.50143e-11
-3.15617e-11
-5.68983e-11
-3.17295e-11
-4.87404e-11
-3.18776e-11
-4.05441e-11
-3.20085e-11
-3.23226e-11
-3.2117e-11
-2.40863e-11
-3.21966e-11
-1.58315e-11
-3.22496e-11
-7.58831e-12
-3.22142e-11
-2.96954e-11
5.98448e-12
-5.16629e-11
1.66117e-11
-3.59063e-11
2.59537e-11
-3.61116e-11
3.46174e-11
-3.71183e-11
4.28844e-11
-3.80671e-11
5.09556e-11
-3.87257e-11
5.8888e-11
-3.90999e-11
6.67864e-11
-3.92609e-11
7.46656e-11
-3.92765e-11
8.25253e-11
-3.91908e-11
9.0359e-11
-3.90291e-11
9.81586e-11
-3.88073e-11
1.05915e-10
-3.85353e-11
1.13619e-10
-3.822e-11
1.21261e-10
-3.78658e-11
1.28833e-10
-3.74756e-11
1.36327e-10
-3.70513e-11
1.43736e-10
-3.65947e-11
1.51052e-10
-3.61065e-11
1.58269e-10
-3.55875e-11
1.65378e-10
-3.50382e-11
1.72375e-10
-3.44587e-11
1.79251e-10
-3.38489e-11
1.86001e-10
-3.32088e-11
1.92618e-10
-3.25384e-11
1.99095e-10
-3.18376e-11
2.05427e-10
-3.11063e-11
2.11607e-10
-3.03447e-11
2.17627e-10
-2.95526e-11
2.23483e-10
-2.87301e-11
2.29166e-10
-2.78772e-11
2.34671e-10
-2.69939e-11
2.39992e-10
-2.60804e-11
2.45121e-10
-2.51368e-11
2.50053e-10
-2.41631e-11
2.54781e-10
-2.31595e-11
2.59299e-10
-2.21262e-11
2.63601e-10
-2.10632e-11
2.6768e-10
-1.99706e-11
2.71532e-10
-1.88487e-11
2.75149e-10
-1.76976e-11
2.78526e-10
-1.65176e-11
2.81658e-10
-1.53093e-11
2.84537e-10
-1.40731e-11
2.8716e-10
-1.28099e-11
2.8952e-10
-1.15204e-11
2.91613e-10
-1.02054e-11
2.93432e-10
-8.86604e-12
2.94974e-10
-7.50316e-12
2.96233e-10
-6.11778e-12
2.97205e-10
-4.71102e-12
2.97886e-10
-3.2841e-12
2.98272e-10
-1.83846e-12
2.9836e-10
-3.77634e-13
2.98146e-10
1.10309e-12
2.97625e-10
2.59844e-12
2.96796e-10
4.10547e-12
2.95657e-10
5.62377e-12
2.94204e-10
7.15185e-12
2.92436e-10
8.68799e-12
2.90352e-10
1.02304e-11
2.87951e-10
1.17771e-11
2.85232e-10
1.33264e-11
2.82194e-10
1.48762e-11
2.78839e-10
1.64242e-11
2.75167e-10
1.79683e-11
2.71179e-10
1.95061e-11
2.66877e-10
2.10355e-11
2.62264e-10
2.25539e-11
2.57342e-10
2.40588e-11
2.52115e-10
2.55478e-11
2.46586e-10
2.70185e-11
2.40759e-10
2.84684e-11
2.3464e-10
2.9895e-11
2.28233e-10
3.12955e-11
2.21544e-10
3.26677e-11
2.1458e-10
3.40089e-11
2.07348e-10
3.53168e-11
1.99855e-10
3.65888e-11
1.92109e-10
3.78225e-11
1.84117e-10
3.90155e-11
1.7589e-10
4.01656e-11
1.67436e-10
4.12704e-11
1.58766e-10
4.23276e-11
1.49889e-10
4.33349e-11
1.40815e-10
4.42902e-11
1.31556e-10
4.51914e-11
1.22124e-10
4.60364e-11
1.1253e-10
4.68234e-11
1.02786e-10
4.75506e-11
9.2905e-11
4.82165e-11
8.28998e-11
4.88198e-11
7.27834e-11
4.93593e-11
6.25693e-11
4.98339e-11
5.2271e-11
5.02427e-11
4.19025e-11
5.05847e-11
3.14775e-11
5.08594e-11
2.101e-11
5.10662e-11
1.05142e-11
5.12045e-11
4.05221e-15
5.1274e-11
-1.05063e-11
5.12742e-11
-2.10026e-11
5.12053e-11
-3.14705e-11
5.10674e-11
-4.18958e-11
5.08608e-11
-5.22646e-11
5.05861e-11
-6.25628e-11
5.0244e-11
-7.27768e-11
4.98352e-11
-8.28929e-11
4.93606e-11
-9.28977e-11
4.88213e-11
-1.02778e-10
4.82182e-11
-1.12521e-10
4.75528e-11
-1.22114e-10
4.68263e-11
-1.31546e-10
4.60403e-11
-1.40804e-10
4.51964e-11
-1.49877e-10
4.42963e-11
-1.58754e-10
4.3342e-11
-1.67425e-10
4.23354e-11
-1.75879e-10
4.12788e-11
-1.84106e-10
4.01744e-11
-1.92097e-10
3.90246e-11
-1.99844e-10
3.78317e-11
-2.07338e-10
3.65983e-11
-2.14571e-10
3.53268e-11
-2.21536e-10
3.40198e-11
-2.28225e-10
3.26797e-11
-2.34632e-10
3.13089e-11
-2.40752e-10
2.99099e-11
-2.46578e-10
2.84851e-11
-2.52107e-10
2.7037e-11
-2.57333e-10
2.55681e-11
-2.62253e-10
2.40808e-11
-2.66864e-10
2.25774e-11
-2.71163e-10
2.10606e-11
-2.75149e-10
1.95329e-11
-2.7882e-10
1.79964e-11
-2.82173e-10
1.64534e-11
-2.85209e-10
1.49067e-11
-2.87926e-10
1.33583e-11
-2.90324e-10
1.18097e-11
-2.92405e-10
1.02628e-11
-2.94171e-10
8.72029e-12
-2.95622e-10
7.18382e-12
-2.96759e-10
5.65408e-12
-2.97587e-10
4.13322e-12
-2.98108e-10
2.62457e-12
-2.98323e-10
1.12986e-12
-2.98234e-10
-3.50677e-13
-2.97846e-10
-1.81453e-12
-2.97165e-10
-3.25922e-12
-2.96191e-10
-4.68314e-12
-2.94929e-10
-6.08667e-12
-2.93385e-10
-7.46935e-12
-2.91565e-10
-8.82908e-12
-2.89469e-10
-1.01643e-11
-2.87104e-10
-1.14751e-11
-2.84475e-10
-1.27616e-11
-2.8159e-10
-1.40231e-11
-2.78455e-10
-1.52582e-11
-2.75073e-10
-1.64659e-11
-2.7145e-10
-1.76456e-11
-2.67594e-10
-1.87964e-11
-2.6351e-10
-1.99183e-11
-2.59203e-10
-2.10111e-11
-2.54678e-10
-2.20737e-11
-2.49942e-10
-2.3105e-11
-2.45004e-10
-2.41049e-11
-2.39868e-10
-2.5075e-11
-2.3454e-10
-2.60168e-11
-2.29025e-10
-2.69292e-11
-2.2333e-10
-2.78104e-11
-2.17464e-10
-2.866e-11
-2.11433e-10
-2.948e-11
-2.05241e-10
-3.02718e-11
-1.98895e-10
-3.10333e-11
-1.92402e-10
-3.17607e-11
-1.85766e-10
-3.24534e-11
-1.78992e-10
-3.3115e-11
-1.7209e-10
-3.37498e-11
-1.65065e-10
-3.43597e-11
-1.57919e-10
-3.49436e-11
-1.50659e-10
-3.54985e-11
-1.43296e-10
-3.60218e-11
-1.35838e-10
-3.65128e-11
-1.28287e-10
-3.69729e-11
-1.20648e-10
-3.74036e-11
-1.12927e-10
-3.78056e-11
-1.05129e-10
-3.81798e-11
-9.72576e-11
-3.85279e-11
-8.93206e-11
-3.88513e-11
-8.1326e-11
-3.91489e-11
-7.32789e-11
-3.94177e-11
-6.51817e-11
-3.96562e-11
-5.70383e-11
-3.98691e-11
-4.88551e-11
-4.00597e-11
-4.06413e-11
-4.0223e-11
-3.24087e-11
-4.0352e-11
-2.41559e-11
-4.04458e-11
-1.589e-11
-4.05171e-11
-7.62676e-12
-4.04767e-11
-3.73228e-11
6.00678e-12
-5.76648e-11
1.58147e-11
-4.5714e-11
2.50467e-11
-4.53475e-11
3.38523e-11
-4.59253e-11
4.23139e-11
-4.6528e-11
5.05473e-11
-4.69587e-11
5.86548e-11
-4.72081e-11
6.66923e-11
-4.73e-11
7.46826e-11
-4.72683e-11
8.26313e-11
-4.71406e-11
9.05376e-11
-4.6936e-11
9.83973e-11
-4.66671e-11
1.06205e-10
-4.63424e-11
1.13953e-10
-4.59678e-11
1.21636e-10
-4.55473e-11
1.29245e-10
-4.50838e-11
1.36774e-10
-4.45795e-11
1.44217e-10
-4.40358e-11
1.51565e-10
-4.3454e-11
1.58813e-10
-4.28348e-11
1.65954e-10
-4.21786e-11
1.72981e-10
-4.14855e-11
1.79888e-10
-4.07557e-11
1.86668e-10
-3.9989e-11
1.93316e-10
-3.91855e-11
1.99824e-10
-3.83452e-11
2.06186e-10
-3.7468e-11
2.12396e-10
-3.6554e-11
2.18448e-10
-3.56032e-11
2.24333e-10
-3.46155e-11
2.30047e-10
-3.3591e-11
2.35583e-10
-3.25297e-11
2.40934e-10
-3.14317e-11
2.46093e-10
-3.0297e-11
2.51055e-10
-2.91259e-11
2.55813e-10
-2.79184e-11
2.60361e-10
-2.66748e-11
2.64693e-10
-2.53953e-11
2.68802e-10
-2.40799e-11
2.72683e-10
-2.27291e-11
2.7633e-10
-2.13432e-11
2.79735e-10
-1.99226e-11
2.82894e-10
-1.84679e-11
2.85801e-10
-1.69798e-11
2.8845e-10
-1.54592e-11
2.90835e-10
-1.39067e-11
2.92952e-10
-1.23236e-11
2.94795e-10
-1.07107e-11
2.96359e-10
-9.06922e-12
2.97639e-10
-7.40036e-12
2.98632e-10
-5.70545e-12
2.99332e-10
-3.98596e-12
2.99736e-10
-2.24361e-12
2.9984e-10
-4.81873e-13
2.99639e-10
1.30303e-12
2.99132e-10
3.10528e-12
2.98315e-10
4.9224e-12
2.97186e-10
6.75335e-12
2.95742e-10
8.59625e-12
2.9398e-10
1.0449e-11
2.919e-10
1.23096e-11
2.89501e-10
1.41756e-11
2.86781e-10
1.60448e-11
2.83741e-10
1.79147e-11
2.80382e-10
1.97828e-11
2.76703e-10
2.16463e-11
2.72706e-10
2.35023e-11
2.68393e-10
2.53482e-11
2.63766e-10
2.71808e-11
2.58828e-10
2.89972e-11
2.53583e-10
3.07942e-11
2.48033e-10
3.25691e-11
2.42184e-10
3.43187e-11
2.3604e-10
3.604e-11
2.29605e-10
3.773e-11
2.22886e-10
3.93857e-11
2.1589e-10
4.10043e-11
2.08622e-10
4.25829e-11
2.0109e-10
4.41184e-11
1.93303e-10
4.5608e-11
1.85268e-10
4.70486e-11
1.76995e-10
4.84376e-11
1.68493e-10
4.9772e-11
1.59772e-10
5.1049e-11
1.50842e-10
5.22657e-11
1.41714e-10
5.34194e-11
1.32399e-10
5.45076e-11
1.22909e-10
5.55278e-11
1.13255e-10
5.64779e-11
1.0345e-10
5.73558e-11
9.35072e-11
5.81597e-11
8.34385e-11
5.88881e-11
7.32577e-11
5.95396e-11
6.29781e-11
6.01128e-11
5.26135e-11
6.06068e-11
4.21777e-11
6.10203e-11
3.16847e-11
6.13524e-11
2.11487e-11
6.16025e-11
1.05841e-11
6.17698e-11
5.18129e-15
6.18539e-11
-1.0574e-11
6.18545e-11
-2.1139e-11
6.17713e-11
-3.16754e-11
6.16047e-11
-4.2169e-11
6.13552e-11
-5.26055e-11
6.10232e-11
-6.29708e-11
6.06098e-11
-7.32508e-11
6.01156e-11
-8.34317e-11
5.9542e-11
-9.35001e-11
5.88901e-11
-1.03443e-10
5.81613e-11
-1.13247e-10
5.73572e-11
-1.229e-10
5.64796e-11
-1.3239e-10
5.55301e-11
-1.41704e-10
5.45107e-11
-1.50831e-10
5.34237e-11
-1.59761e-10
5.22712e-11
-1.68482e-10
5.10558e-11
-1.76983e-10
4.97802e-11
-1.85256e-10
4.84469e-11
-1.93291e-10
4.70589e-11
-2.01078e-10
4.5619e-11
-2.0861e-10
4.41301e-11
-2.15878e-10
4.25952e-11
-2.22876e-10
4.10173e-11
-2.29596e-10
3.93994e-11
-2.36031e-10
3.77443e-11
-2.42176e-10
3.60552e-11
-2.48026e-10
3.4335e-11
-2.53575e-10
3.25866e-11
-2.58819e-10
3.0813e-11
-2.63755e-10
2.90174e-11
-2.68379e-10
2.72025e-11
-2.7269e-10
2.53713e-11
-2.76685e-10
2.35271e-11
-2.80362e-10
2.16727e-11
-2.83719e-10
1.98106e-11
-2.86756e-10
1.79437e-11
-2.89474e-10
1.60752e-11
-2.91871e-10
1.4207e-11
-2.93947e-10
1.2341e-11
-2.95707e-10
1.04798e-11
-2.97151e-10
8.62643e-12
-2.98279e-10
6.7826e-12
-2.99094e-10
4.94955e-12
-2.99602e-10
3.13023e-12
-2.99802e-10
1.3282e-12
-2.99697e-10
-4.54711e-13
-2.99291e-10
-2.2188e-12
-2.98589e-10
-3.96078e-12
-2.97596e-10
-5.67826e-12
-2.96313e-10
-7.36963e-12
-2.94746e-10
-9.035e-12
-2.92901e-10
-1.06739e-11
-2.90783e-10
-1.22844e-11
-2.88393e-10
-1.38643e-11
-2.85739e-10
-1.54135e-11
-2.82827e-10
-1.69323e-11
-2.79665e-10
-1.84201e-11
-2.76256e-10
-1.98751e-11
-2.72604e-10
-2.12955e-11
-2.68718e-10
-2.2681e-11
-2.64604e-10
-2.40315e-11
-2.60267e-10
-2.53469e-11
-2.55711e-10
-2.66263e-11
-2.50944e-10
-2.78688e-11
-2.45974e-10
-2.90741e-11
-2.40808e-10
-3.02425e-11
-2.3545e-10
-3.13749e-11
-2.29903e-10
-3.24717e-11
-2.24177e-10
-3.35324e-11
-2.1828e-10
-3.45563e-11
-2.12218e-10
-3.55434e-11
-2.05996e-10
-3.64942e-11
-1.99619e-10
-3.74078e-11
-1.93095e-10
-3.82824e-11