/*--------------------------------*- C++ -*----------------------------------*\
| =========                 |                                                 |
| \\      /  F ield         | OpenFOAM: The Open Source CFD Toolbox           |
|  \\    /   O peration     | Version:  2412                                  |
|   \\  /    A nd           | Website:  www.openfoam.com                      |
|    \\/     M anipulation  |                                                 |
\*---------------------------------------------------------------------------*/
FoamFile
{
    version     2.0;
    format      ascii;
    arch        "LSB;label=32;scalar=64";
    class       volVectorField;
    location    "1.02";
    object      U;
}
// * * * * * * * * * * * * * * * * * * * * * * * * * * * * * * * * * * * * * //

dimensions      [0 1 -1 0 0 0 0];

internalField   nonuniform List<vector> 
40000
(
(1.73937e-05 1.02511e-05 0)
(-4.05964e-06 1.4832e-05 0)
(4.71566e-06 -9.19298e-07 0)
(6.94298e-06 -2.99875e-06 0)
(1.80538e-05 -4.12538e-06 0)
(2.68728e-05 -4.16568e-06 0)
(3.60897e-05 -4.07066e-06 0)
(4.48709e-05 -3.94938e-06 0)
(5.34079e-05 -3.80473e-06 0)
(6.17534e-05 -3.70575e-06 0)
(6.98623e-05 -3.6334e-06 0)
(7.77857e-05 -3.56835e-06 0)
(8.55579e-05 -3.51315e-06 0)
(9.31885e-05 -3.4638e-06 0)
(0.000100689 -3.41859e-06 0)
(0.000108063 -3.37486e-06 0)
(0.000115319 -3.32971e-06 0)
(0.000122461 -3.28372e-06 0)
(0.000129486 -3.23627e-06 0)
(0.000136394 -3.18689e-06 0)
(0.000143181 -3.13519e-06 0)
(0.000149845 -3.08115e-06 0)
(0.000156381 -3.02454e-06 0)
(0.000162785 -2.9649e-06 0)
(0.000169051 -2.90226e-06 0)
(0.000175176 -2.83668e-06 0)
(0.000181155 -2.76835e-06 0)
(0.000186983 -2.6977e-06 0)
(0.000192656 -2.62499e-06 0)
(0.000198171 -2.55015e-06 0)
(0.000203522 -2.47304e-06 0)
(0.000208706 -2.39351e-06 0)
(0.000213718 -2.31147e-06 0)
(0.000218553 -2.22689e-06 0)
(0.000223207 -2.13995e-06 0)
(0.000227674 -2.05084e-06 0)
(0.000231949 -1.95949e-06 0)
(0.000236027 -1.86574e-06 0)
(0.000239902 -1.7696e-06 0)
(0.00024357 -1.67091e-06 0)
(0.000247025 -1.5694e-06 0)
(0.00025026 -1.46503e-06 0)
(0.000253269 -1.35788e-06 0)
(0.000256048 -1.24789e-06 0)
(0.000258591 -1.1351e-06 0)
(0.000260892 -1.01982e-06 0)
(0.000262946 -9.02234e-07 0)
(0.000264749 -7.82431e-07 0)
(0.000266296 -6.60632e-07 0)
(0.000267583 -5.37173e-07 0)
(0.000268607 -4.12291e-07 0)
(0.000269365 -2.86179e-07 0)
(0.000269854 -1.59175e-07 0)
(0.00027007 -3.15896e-08 0)
(0.000270009 9.79826e-08 0)
(0.000269672 2.30213e-07 0)
(0.000269058 3.63688e-07 0)
(0.000268164 4.98238e-07 0)
(0.000266989 6.33104e-07 0)
(0.00026553 7.68451e-07 0)
(0.000263786 9.04618e-07 0)
(0.000261756 1.04159e-06 0)
(0.000259439 1.17911e-06 0)
(0.000256834 1.31694e-06 0)
(0.000253941 1.45489e-06 0)
(0.00025076 1.59259e-06 0)
(0.000247293 1.72961e-06 0)
(0.00024354 1.86554e-06 0)
(0.000239505 2.00018e-06 0)
(0.000235188 2.13331e-06 0)
(0.000230594 2.26467e-06 0)
(0.000225726 2.39402e-06 0)
(0.000220587 2.52124e-06 0)
(0.00021518 2.64631e-06 0)
(0.000209512 2.76922e-06 0)
(0.000203584 2.88988e-06 0)
(0.000197404 3.0081e-06 0)
(0.000190975 3.12366e-06 0)
(0.000184304 3.23642e-06 0)
(0.000177398 3.34623e-06 0)
(0.000170263 3.45286e-06 0)
(0.000162908 3.55589e-06 0)
(0.000155341 3.65494e-06 0)
(0.00014757 3.74977e-06 0)
(0.000139606 3.84026e-06 0)
(0.000131458 3.92619e-06 0)
(0.000123136 4.00723e-06 0)
(0.000114651 4.08294e-06 0)
(0.000106015 4.15301e-06 0)
(9.72381e-05 4.21735e-06 0)
(8.83323e-05 4.27595e-06 0)
(7.9309e-05 4.3287e-06 0)
(7.01803e-05 4.37536e-06 0)
(6.09583e-05 4.41576e-06 0)
(5.16553e-05 4.45006e-06 0)
(4.22838e-05 4.47871e-06 0)
(3.2856e-05 4.5021e-06 0)
(2.33842e-05 4.52017e-06 0)
(1.38807e-05 4.53246e-06 0)
(4.35804e-06 4.53832e-06 0)
(-5.17118e-06 4.53747e-06 0)
(-1.46941e-05 4.53015e-06 0)
(-2.41981e-05 4.51686e-06 0)
(-3.36706e-05 4.49803e-06 0)
(-4.30993e-05 4.47374e-06 0)
(-5.24717e-05 4.44381e-06 0)
(-6.17757e-05 4.40799e-06 0)
(-7.09989e-05 4.36627e-06 0)
(-8.01291e-05 4.31885e-06 0)
(-8.91545e-05 4.26594e-06 0)
(-9.80631e-05 4.20769e-06 0)
(-0.000106843 4.14415e-06 0)
(-0.000115484 4.07534e-06 0)
(-0.000123973 4.00133e-06 0)
(-0.0001323 3.92231e-06 0)
(-0.000140454 3.83847e-06 0)
(-0.000148424 3.74991e-06 0)
(-0.000156201 3.65672e-06 0)
(-0.000163775 3.55901e-06 0)
(-0.000171137 3.45695e-06 0)
(-0.00017828 3.3508e-06 0)
(-0.000185194 3.24098e-06 0)
(-0.000191875 3.12788e-06 0)
(-0.000198314 3.01185e-06 0)
(-0.000204507 2.89311e-06 0)
(-0.000210448 2.77188e-06 0)
(-0.000216131 2.64828e-06 0)
(-0.000221553 2.5224e-06 0)
(-0.000226708 2.39447e-06 0)
(-0.000231594 2.26474e-06 0)
(-0.000236205 2.13339e-06 0)
(-0.00024054 2.0006e-06 0)
(-0.000244596 1.86664e-06 0)
(-0.000248371 1.73162e-06 0)
(-0.000251864 1.5957e-06 0)
(-0.000255074 1.45922e-06 0)
(-0.000258 1.32256e-06 0)
(-0.000260641 1.18598e-06 0)
(-0.000262997 1.04966e-06 0)
(-0.000265068 9.13993e-07 0)
(-0.000266853 7.79091e-07 0)
(-0.000268353 6.44505e-07 0)
(-0.000269566 5.09997e-07 0)
(-0.000270494 3.75833e-07 0)
(-0.000271138 2.41658e-07 0)
(-0.000271499 1.0678e-07 0)
(-0.00027158 -2.71426e-08 0)
(-0.000271384 -1.57728e-07 0)
(-0.000270915 -2.8617e-07 0)
(-0.000270177 -4.13121e-07 0)
(-0.000269177 -5.38167e-07 0)
(-0.000267923 -6.60111e-07 0)
(-0.000266418 -7.78682e-07 0)
(-0.000264665 -8.94772e-07 0)
(-0.000262669 -1.00887e-06 0)
(-0.000260433 -1.12071e-06 0)
(-0.00025796 -1.23014e-06 0)
(-0.000255252 -1.33742e-06 0)
(-0.000252312 -1.44296e-06 0)
(-0.000249148 -1.54697e-06 0)
(-0.000245763 -1.64927e-06 0)
(-0.000242161 -1.74946e-06 0)
(-0.000238351 -1.84696e-06 0)
(-0.000234338 -1.94147e-06 0)
(-0.000230133 -2.03319e-06 0)
(-0.00022574 -2.12256e-06 0)
(-0.000221164 -2.20958e-06 0)
(-0.000216411 -2.29351e-06 0)
(-0.000211487 -2.37356e-06 0)
(-0.000206394 -2.45035e-06 0)
(-0.000201137 -2.52595e-06 0)
(-0.000195718 -2.60182e-06 0)
(-0.000190144 -2.67665e-06 0)
(-0.000184426 -2.74742e-06 0)
(-0.000178572 -2.81254e-06 0)
(-0.000172589 -2.87313e-06 0)
(-0.000166483 -2.93081e-06 0)
(-0.000160259 -2.98615e-06 0)
(-0.00015392 -3.03945e-06 0)
(-0.000147468 -3.09183e-06 0)
(-0.000140906 -3.14501e-06 0)
(-0.000134239 -3.19956e-06 0)
(-0.000127471 -3.2533e-06 0)
(-0.000120612 -3.30149e-06 0)
(-0.000113671 -3.33952e-06 0)
(-0.000106656 -3.36628e-06 0)
(-9.95749e-05 -3.3853e-06 0)
(-9.24311e-05 -3.40254e-06 0)
(-8.52263e-05 -3.4232e-06 0)
(-7.79606e-05 -3.44926e-06 0)
(-7.0635e-05 -3.47838e-06 0)
(-6.32543e-05 -3.50552e-06 0)
(-5.5828e-05 -3.52632e-06 0)
(-4.83669e-05 -3.54104e-06 0)
(-4.08797e-05 -3.55569e-06 0)
(-3.33729e-05 -3.57538e-06 0)
(-2.58457e-05 -3.59254e-06 0)
(-1.82946e-05 -3.58931e-06 0)
(-1.07875e-05 -3.55692e-06 0)
(-3.4027e-06 -3.39899e-06 0)
(2.23675e-05 -2.54106e-05 0)
(2.70964e-05 3.77878e-06 0)
(3.36627e-05 -9.55661e-06 0)
(3.64624e-05 -1.16179e-05 0)
(4.19091e-05 -1.33417e-05 0)
(4.79362e-05 -1.34035e-05 0)
(5.47944e-05 -1.32328e-05 0)
(6.20889e-05 -1.29591e-05 0)
(6.96388e-05 -1.26377e-05 0)
(7.73309e-05 -1.23679e-05 0)
(8.5074e-05 -1.2136e-05 0)
(9.28254e-05 -1.19238e-05 0)
(0.000100558 -1.17318e-05 0)
(0.00010825 -1.15529e-05 0)
(0.000115887 -1.13827e-05 0)
(0.000123456 -1.12163e-05 0)
(0.000130949 -1.10487e-05 0)
(0.000138359 -1.08797e-05 0)
(0.000145677 -1.07075e-05 0)
(0.000152897 -1.05309e-05 0)
(0.000160012 -1.03488e-05 0)
(0.000167014 -1.01606e-05 0)
(0.000173898 -9.96553e-06 0)
(0.000180658 -9.76316e-06 0)
(0.000187287 -9.55325e-06 0)
(0.000193779 -9.33567e-06 0)
(0.000200128 -9.11053e-06 0)
(0.000206328 -8.87806e-06 0)
(0.000212371 -8.63833e-06 0)
(0.000218252 -8.39126e-06 0)
(0.000223964 -8.13667e-06 0)
(0.000229501 -7.87432e-06 0)
(0.000234857 -7.60401e-06 0)
(0.000240024 -7.32577e-06 0)
(0.000244998 -7.03972e-06 0)
(0.000249772 -6.74601e-06 0)
(0.000254339 -6.44458e-06 0)
(0.000258693 -6.13526e-06 0)
(0.000262827 -5.81786e-06 0)
(0.000266736 -5.49206e-06 0)
(0.000270414 -5.15751e-06 0)
(0.000273856 -4.81415e-06 0)
(0.000277056 -4.46206e-06 0)
(0.00028001 -4.10136e-06 0)
(0.000282712 -3.73239e-06 0)
(0.000285156 -3.3557e-06 0)
(0.000287338 -2.97174e-06 0)
(0.000289251 -2.58087e-06 0)
(0.000290892 -2.18359e-06 0)
(0.000292255 -1.78047e-06 0)
(0.000293336 -1.37197e-06 0)
(0.00029413 -9.58562e-07 0)
(0.000294635 -5.40863e-07 0)
(0.000294845 -1.19372e-07 0)
(0.00029476 3.06623e-07 0)
(0.000294373 7.37941e-07 0)
(0.000293682 1.17265e-06 0)
(0.000292684 1.61038e-06 0)
(0.000291377 2.05037e-06 0)
(0.00028976 2.49257e-06 0)
(0.000287832 2.93693e-06 0)
(0.000285591 3.38308e-06 0)
(0.000283038 3.83041e-06 0)
(0.000280171 4.27826e-06 0)
(0.000276992 4.72591e-06 0)
(0.000273501 5.17248e-06 0)
(0.0002697 5.61701e-06 0)
(0.000265588 6.0587e-06 0)
(0.000261169 6.49689e-06 0)
(0.000256444 6.93093e-06 0)
(0.000251416 7.36018e-06 0)
(0.000246089 7.78402e-06 0)
(0.000240467 8.20191e-06 0)
(0.000234554 8.61333e-06 0)
(0.000228356 9.01769e-06 0)
(0.000221878 9.41433e-06 0)
(0.000215126 9.80246e-06 0)
(0.000208108 1.01813e-05 0)
(0.00020083 1.05499e-05 0)
(0.0001933 1.09078e-05 0)
(0.000185526 1.12539e-05 0)
(0.000177517 1.15876e-05 0)
(0.000169281 1.1908e-05 0)
(0.000160829 1.22143e-05 0)
(0.000152168 1.25061e-05 0)
(0.000143311 1.27829e-05 0)
(0.000134267 1.30439e-05 0)
(0.000125047 1.32885e-05 0)
(0.000115664 1.35159e-05 0)
(0.000106128 1.37256e-05 0)
(9.64507e-05 1.39174e-05 0)
(8.66451e-05 1.4091e-05 0)
(7.67241e-05 1.4246e-05 0)
(6.67006e-05 1.43818e-05 0)
(5.65877e-05 1.44983e-05 0)
(4.63983e-05 1.45955e-05 0)
(3.6146e-05 1.46736e-05 0)
(2.58448e-05 1.47324e-05 0)
(1.55092e-05 1.47716e-05 0)
(5.15323e-06 1.47908e-05 0)
(-5.20949e-06 1.47899e-05 0)
(-1.55652e-05 1.4769e-05 0)
(-2.59004e-05 1.47286e-05 0)
(-3.62013e-05 1.46691e-05 0)
(-4.64538e-05 1.45904e-05 0)
(-5.6644e-05 1.44926e-05 0)
(-6.67583e-05 1.43758e-05 0)
(-7.67833e-05 1.42401e-05 0)
(-8.67057e-05 1.40858e-05 0)
(-9.65124e-05 1.39133e-05 0)
(-0.000106191 1.37229e-05 0)
(-0.000115728 1.35147e-05 0)
(-0.000125112 1.3289e-05 0)
(-0.000134332 1.30464e-05 0)
(-0.000143376 1.27873e-05 0)
(-0.000152234 1.25123e-05 0)
(-0.000160894 1.22218e-05 0)
(-0.000169347 1.19164e-05 0)
(-0.000177583 1.15968e-05 0)
(-0.000185592 1.12638e-05 0)
(-0.000193367 1.09183e-05 0)
(-0.000200897 1.05612e-05 0)
(-0.000208176 1.01934e-05 0)
(-0.000215195 9.81586e-06 0)
(-0.000221948 9.42915e-06 0)
(-0.000228426 9.03394e-06 0)
(-0.000234625 8.63085e-06 0)
(-0.000240538 8.22048e-06 0)
(-0.00024616 7.80354e-06 0)
(-0.000251488 7.38083e-06 0)
(-0.000256516 6.95305e-06 0)
(-0.000261243 6.52084e-06 0)
(-0.000265664 6.08495e-06 0)
(-0.000269779 5.64608e-06 0)
(-0.000273584 5.20481e-06 0)
(-0.000277078 4.76186e-06 0)
(-0.000280259 4.31808e-06 0)
(-0.000283127 3.87398e-06 0)
(-0.000285679 3.42983e-06 0)
(-0.000287917 2.98602e-06 0)
(-0.000289841 2.54293e-06 0)
(-0.000291453 2.10044e-06 0)
(-0.000292755 1.65838e-06 0)
(-0.000293751 1.21751e-06 0)
(-0.000294444 7.78682e-07 0)
(-0.000294835 3.42209e-07 0)
(-0.000294926 -9.00752e-08 0)
(-0.000294722 -5.15087e-07 0)
(-0.000294227 -9.32851e-07 0)
(-0.000293441 -1.34361e-06 0)
(-0.000292367 -1.74759e-06 0)
(-0.00029101 -2.14405e-06 0)
(-0.000289373 -2.53254e-06 0)
(-0.000287461 -2.91403e-06 0)
(-0.000285277 -3.28966e-06 0)
(-0.000282827 -3.65947e-06 0)
(-0.000280119 -4.02291e-06 0)
(-0.000277159 -4.37964e-06 0)
(-0.000273954 -4.7296e-06 0)
(-0.000270508 -5.07253e-06 0)
(-0.000266829 -5.40777e-06 0)
(-0.000262922 -5.73424e-06 0)
(-0.000258793 -6.05071e-06 0)
(-0.000254445 -6.35657e-06 0)
(-0.000249883 -6.65245e-06 0)
(-0.000245113 -6.9397e-06 0)
(-0.000240139 -7.21925e-06 0)
(-0.000234969 -7.49092e-06 0)
(-0.00022961 -7.75434e-06 0)
(-0.000224068 -8.01026e-06 0)
(-0.000218352 -8.26024e-06 0)
(-0.00021247 -8.50451e-06 0)
(-0.000206433 -8.74054e-06 0)
(-0.000200248 -8.96442e-06 0)
(-0.000193914 -9.17414e-06 0)
(-0.000187426 -9.37107e-06 0)
(-0.000180785 -9.5585e-06 0)
(-0.000173998 -9.73966e-06 0)
(-0.000167084 -9.91713e-06 0)
(-0.000160058 -1.00921e-05 0)
(-0.000152932 -1.02632e-05 0)
(-0.000145708 -1.0427e-05 0)
(-0.000138387 -1.05788e-05 0)
(-0.000130964 -1.07148e-05 0)
(-0.000123442 -1.08333e-05 0)
(-0.000115825 -1.09357e-05 0)
(-0.000108121 -1.10274e-05 0)
(-0.00010034 -1.11156e-05 0)
(-9.2494e-05 -1.12054e-05 0)
(-8.45946e-05 -1.12963e-05 0)
(-7.66457e-05 -1.1383e-05 0)
(-6.8647e-05 -1.14599e-05 0)
(-6.05999e-05 -1.15237e-05 0)
(-5.25115e-05 -1.15761e-05 0)
(-4.43938e-05 -1.16233e-05 0)
(-3.62515e-05 -1.16678e-05 0)
(-2.80716e-05 -1.16977e-05 0)
(-1.98452e-05 -1.16969e-05 0)
(-1.16847e-05 -1.16628e-05 0)
(-3.55871e-06 -1.07992e-05 0)
(6.47176e-06 -3.09229e-05 0)
(1.36622e-05 -5.99951e-06 0)
(2.84198e-05 -1.12503e-05 0)
(3.41341e-05 -1.51927e-05 0)
(4.12346e-05 -1.76175e-05 0)
(4.82759e-05 -1.88205e-05 0)
(5.55846e-05 -1.93912e-05 0)
(6.30804e-05 -1.96217e-05 0)
(7.06959e-05 -1.96614e-05 0)
(7.83853e-05 -1.96058e-05 0)
(8.61088e-05 -1.94956e-05 0)
(9.38374e-05 -1.93505e-05 0)
(0.000101549 -1.9183e-05 0)
(0.000109225 -1.89986e-05 0)
(0.000116851 -1.87997e-05 0)
(0.000124415 -1.85867e-05 0)
(0.000131907 -1.83595e-05 0)
(0.000139318 -1.81185e-05 0)
(0.000146641 -1.78638e-05 0)
(0.000153868 -1.75953e-05 0)
(0.000160991 -1.73128e-05 0)
(0.000168004 -1.70161e-05 0)
(0.000174899 -1.67051e-05 0)
(0.000181671 -1.63799e-05 0)
(0.000188315 -1.60402e-05 0)
(0.000194822 -1.56863e-05 0)
(0.000201187 -1.53181e-05 0)
(0.000207403 -1.49357e-05 0)
(0.000213463 -1.45394e-05 0)
(0.000219361 -1.41292e-05 0)
(0.00022509 -1.37051e-05 0)
(0.000230644 -1.3267e-05 0)
(0.000236017 -1.28148e-05 0)
(0.000241202 -1.23486e-05 0)
(0.000246193 -1.18682e-05 0)
(0.000250983 -1.13739e-05 0)
(0.000255567 -1.08655e-05 0)
(0.000259936 -1.03429e-05 0)
(0.000264086 -9.80611e-06 0)
(0.00026801 -9.25484e-06 0)
(0.000271703 -8.68897e-06 0)
(0.000275159 -8.10852e-06 0)
(0.000278374 -7.51364e-06 0)
(0.000281341 -6.90461e-06 0)
(0.000284055 -6.28198e-06 0)
(0.000286511 -5.64636e-06 0)
(0.000288703 -4.99845e-06 0)
(0.000290627 -4.33891e-06 0)
(0.000292277 -3.66841e-06 0)
(0.000293648 -2.98762e-06 0)
(0.000294736 -2.29714e-06 0)
(0.000295537 -1.59749e-06 0)
(0.000296047 -8.89232e-07 0)
(0.000296262 -1.72927e-07 0)
(0.000296179 5.50816e-07 0)
(0.000295794 1.2815e-06 0)
(0.000295104 2.01841e-06 0)
(0.000294105 2.76088e-06 0)
(0.000292796 3.50858e-06 0)
(0.000291176 4.26085e-06 0)
(0.000289242 5.0168e-06 0)
(0.000286994 5.77542e-06 0)
(0.000284432 6.53563e-06 0)
(0.000281555 7.29624e-06 0)
(0.000278364 8.05594e-06 0)
(0.000274859 8.81334e-06 0)
(0.000271041 9.56702e-06 0)
(0.000266912 1.03157e-05 0)
(0.000262473 1.10581e-05 0)
(0.000257727 1.17932e-05 0)
(0.000252677 1.25199e-05 0)
(0.000247326 1.32373e-05 0)
(0.000241678 1.39444e-05 0)
(0.000235737 1.46404e-05 0)
(0.00022951 1.53243e-05 0)
(0.000223002 1.5995e-05 0)
(0.000216219 1.66514e-05 0)
(0.000209167 1.72923e-05 0)
(0.000201855 1.79163e-05 0)
(0.00019429 1.85222e-05 0)
(0.000186479 1.91086e-05 0)
(0.000178431 1.96742e-05 0)
(0.000170156 2.02176e-05 0)
(0.000161662 2.07373e-05 0)
(0.00015296 2.12324e-05 0)
(0.00014406 2.17017e-05 0)
(0.000134971 2.2144e-05 0)
(0.000125706 2.25582e-05 0)
(0.000116276 2.29432e-05 0)
(0.000106693 2.32982e-05 0)
(9.69678e-05 2.36226e-05 0)
(8.71135e-05 2.39158e-05 0)
(7.71427e-05 2.41773e-05 0)
(6.70687e-05 2.44066e-05 0)
(5.69046e-05 2.46033e-05 0)
(4.66639e-05 2.47675e-05 0)
(3.636e-05 2.48991e-05 0)
(2.6007e-05 2.49982e-05 0)
(1.56191e-05 2.50643e-05 0)
(5.2105e-06 2.50971e-05 0)
(-5.20496e-06 2.50962e-05 0)
(-1.56131e-05 2.50616e-05 0)
(-2.60004e-05 2.49936e-05 0)
(-3.6353e-05 2.48925e-05 0)
(-4.66568e-05 2.47585e-05 0)
(-5.68981e-05 2.45919e-05 0)
(-6.70629e-05 2.43929e-05 0)
(-7.71378e-05 2.41621e-05 0)
(-8.71094e-05 2.38998e-05 0)
(-9.69644e-05 2.36065e-05 0)
(-0.00010669 2.32827e-05 0)
(-0.000116274 2.29291e-05 0)
(-0.000125704 2.25462e-05 0)
(-0.000134969 2.21349e-05 0)
(-0.000144056 2.1696e-05 0)
(-0.000152956 2.12302e-05 0)
(-0.000161658 2.07384e-05 0)
(-0.000170151 2.02216e-05 0)
(-0.000178427 1.9681e-05 0)
(-0.000186474 1.91178e-05 0)
(-0.000194285 1.85335e-05 0)
(-0.000201851 1.79293e-05 0)
(-0.000209164 1.73067e-05 0)
(-0.000216216 1.66668e-05 0)
(-0.000222999 1.60108e-05 0)
(-0.000229507 1.53399e-05 0)
(-0.000235733 1.46552e-05 0)
(-0.000241673 1.39579e-05 0)
(-0.000247319 1.32493e-05 0)
(-0.00025267 1.25306e-05 0)
(-0.000257719 1.1803e-05 0)
(-0.000262465 1.10677e-05 0)
(-0.000266903 1.03258e-05 0)
(-0.000271033 9.57862e-06 0)
(-0.000274852 8.82741e-06 0)
(-0.000278357 8.07333e-06 0)
(-0.000281548 7.31762e-06 0)
(-0.000284423 6.56143e-06 0)
(-0.000286981 5.80553e-06 0)
(-0.000289223 5.05047e-06 0)
(-0.00029115 4.29683e-06 0)
(-0.000292764 3.54524e-06 0)
(-0.000294067 2.79627e-06 0)
(-0.000295062 2.05067e-06 0)
(-0.000295752 1.30979e-06 0)
(-0.000296139 5.75211e-07 0)
(-0.000296226 -1.52158e-07 0)
(-0.000296015 -8.71351e-07 0)
(-0.000295511 -1.58038e-06 0)
(-0.000294715 -2.27801e-06 0)
(-0.000293631 -2.96395e-06 0)
(-0.000292261 -3.63831e-06 0)
(-0.00029061 -4.30071e-06 0)
(-0.000288683 -4.95075e-06 0)
(-0.000286483 -5.58884e-06 0)
(-0.000284018 -6.21569e-06 0)
(-0.000281292 -6.83125e-06 0)
(-0.000278313 -7.43489e-06 0)
(-0.000275089 -8.02607e-06 0)
(-0.000271625 -8.60468e-06 0)
(-0.000267927 -9.1706e-06 0)
(-0.000263999 -9.72307e-06 0)
(-0.000259847 -1.02609e-05 0)
(-0.000255477 -1.07832e-05 0)
(-0.000250894 -1.12903e-05 0)
(-0.000246102 -1.17834e-05 0)
(-0.000241105 -1.22626e-05 0)
(-0.000235909 -1.27271e-05 0)
(-0.000230523 -1.31759e-05 0)
(-0.000224956 -1.36097e-05 0)
(-0.000219216 -1.403e-05 0)
(-0.00021331 -1.44375e-05 0)
(-0.000207247 -1.48305e-05 0)
(-0.000201034 -1.52065e-05 0)
(-0.000194671 -1.5564e-05 0)
(-0.000188155 -1.5904e-05 0)
(-0.000181485 -1.62294e-05 0)
(-0.000174672 -1.65428e-05 0)
(-0.000167731 -1.68459e-05 0)
(-0.000160678 -1.71387e-05 0)
(-0.000153523 -1.74195e-05 0)
(-0.000146269 -1.76845e-05 0)
(-0.000138914 -1.79298e-05 0)
(-0.000131457 -1.81523e-05 0)
(-0.000123898 -1.83516e-05 0)
(-0.000116245 -1.85308e-05 0)
(-0.000108509 -1.86967e-05 0)
(-0.000100704 -1.88572e-05 0)
(-9.28394e-05 -1.90172e-05 0)
(-8.49182e-05 -1.91748e-05 0)
(-7.69415e-05 -1.93226e-05 0)
(-6.89102e-05 -1.9452e-05 0)
(-6.08288e-05 -1.95582e-05 0)
(-5.27089e-05 -1.96452e-05 0)
(-4.45629e-05 -1.97213e-05 0)
(-3.63876e-05 -1.97868e-05 0)
(-2.81634e-05 -1.98311e-05 0)
(-1.99057e-05 -1.98517e-05 0)
(-1.17177e-05 -1.98306e-05 0)
(-3.56914e-06 -1.83096e-05 0)
(3.54443e-06 -4.49612e-05 0)
(1.08461e-05 -2.03512e-05 0)
(2.45562e-05 -2.24401e-05 0)
(3.23226e-05 -2.44319e-05 0)
(4.01246e-05 -2.58532e-05 0)
(4.76924e-05 -2.6655e-05 0)
(5.53148e-05 -2.70761e-05 0)
(6.29951e-05 -2.72839e-05 0)
(7.07267e-05 -2.73489e-05 0)
(7.84919e-05 -2.73157e-05 0)
(8.62668e-05 -2.72127e-05 0)
(9.40319e-05 -2.7058e-05 0)
(0.000101771 -2.68642e-05 0)
(0.000109469 -2.66388e-05 0)
(0.000117115 -2.6386e-05 0)
(0.000124697 -2.61081e-05 0)
(0.000132207 -2.58067e-05 0)
(0.000139636 -2.54826e-05 0)
(0.000146977 -2.51367e-05 0)
(0.000154221 -2.47696e-05 0)
(0.000161361 -2.43813e-05 0)
(0.000168391 -2.39722e-05 0)
(0.000175304 -2.35421e-05 0)
(0.000182094 -2.30912e-05 0)
(0.000188754 -2.26194e-05 0)
(0.000195279 -2.2127e-05 0)
(0.000201661 -2.1614e-05 0)
(0.000207894 -2.10805e-05 0)
(0.000213971 -2.05266e-05 0)
(0.000219886 -1.99521e-05 0)
(0.000225633 -1.93573e-05 0)
(0.000231204 -1.8742e-05 0)
(0.000236594 -1.81062e-05 0)
(0.000241796 -1.745e-05 0)
(0.000246805 -1.67733e-05 0)
(0.000251612 -1.60762e-05 0)
(0.000256213 -1.53586e-05 0)
(0.0002606 -1.46206e-05 0)
(0.000264767 -1.3862e-05 0)
(0.000268709 -1.30827e-05 0)
(0.000272419 -1.22829e-05 0)
(0.000275893 -1.14626e-05 0)
(0.000279124 -1.06222e-05 0)
(0.000282108 -9.76215e-06 0)
(0.000284838 -8.88314e-06 0)
(0.000287309 -7.98593e-06 0)
(0.000289516 -7.07131e-06 0)
(0.000291453 -6.14012e-06 0)
(0.000293116 -5.19323e-06 0)
(0.000294499 -4.23141e-06 0)
(0.000295599 -3.25538e-06 0)
(0.000296411 -2.26589e-06 0)
(0.000296931 -1.26377e-06 0)
(0.000297156 -2.49826e-07 0)
(0.000297082 7.75493e-07 0)
(0.000296704 1.81054e-06 0)
(0.000296021 2.85474e-06 0)
(0.000295029 3.9072e-06 0)
(0.000293726 4.96702e-06 0)
(0.00029211 6.03307e-06 0)
(0.000290179 7.10392e-06 0)
(0.000287934 8.17806e-06 0)
(0.000285372 9.25394e-06 0)
(0.000282494 1.03299e-05 0)
(0.000279301 1.14041e-05 0)
(0.000275791 1.24747e-05 0)
(0.000271968 1.354e-05 0)
(0.000267832 1.45983e-05 0)
(0.000263384 1.5648e-05 0)
(0.000258628 1.66875e-05 0)
(0.000253567 1.77154e-05 0)
(0.000248203 1.87304e-05 0)
(0.000242542 1.97311e-05 0)
(0.000236587 2.07162e-05 0)
(0.000230344 2.16841e-05 0)
(0.000223819 2.26334e-05 0)
(0.000217017 2.35624e-05 0)
(0.000209946 2.44694e-05 0)
(0.000202612 2.53524e-05 0)
(0.000195023 2.62095e-05 0)
(0.000187187 2.7039e-05 0)
(0.000179113 2.78389e-05 0)
(0.000170809 2.86073e-05 0)
(0.000162286 2.93422e-05 0)
(0.000153553 3.00418e-05 0)
(0.00014462 3.07049e-05 0)
(0.000135498 3.13298e-05 0)
(0.000126198 3.19152e-05 0)
(0.000116732 3.24595e-05 0)
(0.000107111 3.29616e-05 0)
(9.73478e-05 3.34205e-05 0)
(8.74547e-05 3.38356e-05 0)
(7.74447e-05 3.42062e-05 0)
(6.73311e-05 3.45316e-05 0)
(5.71274e-05 3.48113e-05 0)
(4.68469e-05 3.5045e-05 0)
(3.65032e-05 3.52327e-05 0)
(2.61101e-05 3.53742e-05 0)
(1.56816e-05 3.54691e-05 0)
(5.23193e-06 3.5517e-05 0)
(-5.22468e-06 3.55171e-05 0)
(-1.56739e-05 3.54696e-05 0)
(-2.61023e-05 3.53744e-05 0)
(-3.64956e-05 3.52318e-05 0)
(-4.68399e-05 3.50423e-05 0)
(-5.71211e-05 3.48063e-05 0)
(-6.73254e-05 3.45243e-05 0)
(-7.74391e-05 3.41971e-05 0)
(-8.74489e-05 3.38252e-05 0)
(-9.73417e-05 3.34093e-05 0)
(-0.000107104 3.29504e-05 0)
(-0.000116725 3.24492e-05 0)
(-0.00012619 3.19067e-05 0)
(-0.000135489 3.13239e-05 0)
(-0.00014461 3.07019e-05 0)
(-0.000153542 3.00418e-05 0)
(-0.000162275 2.93451e-05 0)
(-0.000170799 2.86133e-05 0)
(-0.000179102 2.7848e-05 0)
(-0.000187177 2.70511e-05 0)
(-0.000195013 2.62243e-05 0)
(-0.000202603 2.53694e-05 0)
(-0.000209938 2.44881e-05 0)
(-0.00021701 2.35823e-05 0)
(-0.000223813 2.26536e-05 0)
(-0.000230339 2.17036e-05 0)
(-0.000236582 2.07343e-05 0)
(-0.000242536 1.97472e-05 0)
(-0.000248196 1.8744e-05 0)
(-0.000253558 1.77264e-05 0)
(-0.000258618 1.66961e-05 0)
(-0.000263373 1.56548e-05 0)
(-0.000267819 1.46041e-05 0)
(-0.000271955 1.35457e-05 0)
(-0.000275778 1.24816e-05 0)
(-0.000279286 1.14134e-05 0)
(-0.000282479 1.03429e-05 0)
(-0.000285354 9.27129e-06 0)
(-0.000287912 8.19987e-06 0)
(-0.000290153 7.12995e-06 0)
(-0.000292078 6.06246e-06 0)
(-0.000293688 4.99809e-06 0)
(-0.000294987 3.9381e-06 0)
(-0.000295977 2.88424e-06 0)
(-0.00029666 1.83788e-06 0)
(-0.000297039 8.00249e-07 0)
(-0.000297116 -2.26976e-07 0)
(-0.000296895 -1.24259e-06 0)
(-0.000296378 -2.24431e-06 0)
(-0.000295569 -3.23156e-06 0)
(-0.00029447 -4.20342e-06 0)
(-0.000293086 -5.15897e-06 0)
(-0.000291422 -6.09809e-06 0)
(-0.00028948 -7.02094e-06 0)
(-0.000287266 -7.92736e-06 0)
(-0.000284786 -8.8171e-06 0)
(-0.000282046 -9.69016e-06 0)
(-0.000279053 -1.05463e-05 0)
(-0.000275813 -1.1385e-05 0)
(-0.000272333 -1.22055e-05 0)
(-0.000268618 -1.30071e-05 0)
(-0.000264674 -1.37895e-05 0)
(-0.000260505 -1.45516e-05 0)
(-0.000256116 -1.52925e-05 0)
(-0.000251515 -1.60115e-05 0)
(-0.000246704 -1.67094e-05 0)
(-0.000241689 -1.73866e-05 0)
(-0.000236475 -1.80428e-05 0)
(-0.000231071 -1.86769e-05 0)
(-0.000225485 -1.92887e-05 0)
(-0.000219727 -1.98797e-05 0)
(-0.000213804 -2.04512e-05 0)
(-0.000207722 -2.10022e-05 0)
(-0.000201488 -2.15298e-05 0)
(-0.000195104 -2.20319e-05 0)
(-0.000188569 -2.25103e-05 0)
(-0.000181883 -2.29683e-05 0)
(-0.000175054 -2.34093e-05 0)
(-0.000168099 -2.38342e-05 0)
(-0.000161031 -2.42421e-05 0)
(-0.000153858 -2.46304e-05 0)
(-0.000146582 -2.49962e-05 0)
(-0.000139202 -2.53374e-05 0)
(-0.000131718 -2.56527e-05 0)
(-0.000124135 -2.59428e-05 0)
(-0.000116466 -2.62116e-05 0)
(-0.000108722 -2.64659e-05 0)
(-0.000100913 -2.67112e-05 0)
(-9.30418e-05 -2.69482e-05 0)
(-8.51092e-05 -2.71721e-05 0)
(-7.71124e-05 -2.73747e-05 0)
(-6.90534e-05 -2.75468e-05 0)
(-6.0945e-05 -2.76854e-05 0)
(-5.28069e-05 -2.77993e-05 0)
(-4.46478e-05 -2.79002e-05 0)
(-3.64536e-05 -2.79886e-05 0)
(-2.82097e-05 -2.80567e-05 0)
(-1.99434e-05 -2.81086e-05 0)
(-1.17556e-05 -2.80896e-05 0)
(-3.60655e-06 -2.59069e-05 0)
(2.82062e-06 -4.94352e-05 0)
(9.7921e-06 -3.09661e-05 0)
(2.22549e-05 -3.14531e-05 0)
(3.0726e-05 -3.28068e-05 0)
(3.90872e-05 -3.38772e-05 0)
(4.71175e-05 -3.45365e-05 0)
(5.50108e-05 -3.4922e-05 0)
(6.2856e-05 -3.5118e-05 0)
(7.07077e-05 -3.51753e-05 0)
(7.85614e-05 -3.51309e-05 0)
(8.64034e-05 -3.50088e-05 0)
(9.42206e-05 -3.48254e-05 0)
(0.000102001 -3.45922e-05 0)
(0.000109735 -3.43166e-05 0)
(0.000117412 -3.40038e-05 0)
(0.000125023 -3.36571e-05 0)
(0.000132561 -3.32785e-05 0)
(0.000140016 -3.28696e-05 0)
(0.000147382 -3.24318e-05 0)
(0.00015465 -3.19656e-05 0)
(0.000161815 -3.14718e-05 0)
(0.000168869 -3.09507e-05 0)
(0.000175806 -3.04021e-05 0)
(0.00018262 -2.98262e-05 0)
(0.000189304 -2.9223e-05 0)
(0.000195852 -2.85926e-05 0)
(0.000202258 -2.7935e-05 0)
(0.000208515 -2.72505e-05 0)
(0.000214616 -2.65391e-05 0)
(0.000220555 -2.58006e-05 0)
(0.000226325 -2.50352e-05 0)
(0.00023192 -2.42427e-05 0)
(0.000237334 -2.34231e-05 0)
(0.00024256 -2.25765e-05 0)
(0.000247592 -2.1703e-05 0)
(0.000252423 -2.08025e-05 0)
(0.000257047 -1.98752e-05 0)
(0.000261458 -1.8921e-05 0)
(0.000265649 -1.79401e-05 0)
(0.000269614 -1.69324e-05 0)
(0.000273348 -1.58981e-05 0)
(0.000276845 -1.48377e-05 0)
(0.000280099 -1.37515e-05 0)
(0.000283105 -1.26402e-05 0)
(0.000285856 -1.15046e-05 0)
(0.000288348 -1.03454e-05 0)
(0.000290574 -9.16365e-06 0)
(0.00029253 -7.96023e-06 0)
(0.00029421 -6.73611e-06 0)
(0.000295611 -5.49215e-06 0)
(0.000296727 -4.22926e-06 0)
(0.000297554 -2.94839e-06 0)
(0.000298088 -1.65055e-06 0)
(0.000298326 -3.36753e-07 0)
(0.000298264 9.91133e-07 0)
(0.000297898 2.33181e-06 0)
(0.000297225 3.68457e-06 0)
(0.000296241 5.04811e-06 0)
(0.000294946 6.42095e-06 0)
(0.000293336 7.8014e-06 0)
(0.00029141 9.18759e-06 0)
(0.000289167 1.05777e-05 0)
(0.000286606 1.19697e-05 0)
(0.000283727 1.33616e-05 0)
(0.00028053 1.47511e-05 0)
(0.000277016 1.61362e-05 0)
(0.000273186 1.75148e-05 0)
(0.000269041 1.88848e-05 0)
(0.000264583 2.02443e-05 0)
(0.000259814 2.15911e-05 0)
(0.000254739 2.29234e-05 0)
(0.00024936 2.42395e-05 0)
(0.000243681 2.55374e-05 0)
(0.000237708 2.6815e-05 0)
(0.000231445 2.80702e-05 0)
(0.000224897 2.9301e-05 0)
(0.000218071 3.05052e-05 0)
(0.000210973 3.16804e-05 0)
(0.00020361 3.2824e-05 0)
(0.00019599 3.39335e-05 0)
(0.000188121 3.50067e-05 0)
(0.000180012 3.60412e-05 0)
(0.000171671 3.70346e-05 0)
(0.000163108 3.79843e-05 0)
(0.000154334 3.88883e-05 0)
(0.000145358 3.97448e-05 0)
(0.000136192 4.05522e-05 0)
(0.000126846 4.13088e-05 0)
(0.000117332 4.20129e-05 0)
(0.000107662 4.26631e-05 0)
(9.78495e-05 4.32583e-05 0)
(8.79062e-05 4.37976e-05 0)
(7.7845e-05 4.42801e-05 0)
(6.76795e-05 4.47046e-05 0)
(5.74231e-05 4.50702e-05 0)
(4.70897e-05 4.53762e-05 0)
(3.6693e-05 4.56219e-05 0)
(2.62466e-05 4.58071e-05 0)
(1.57644e-05 4.59313e-05 0)
(5.26024e-06 4.59942e-05 0)
(-5.25123e-06 4.59951e-05 0)
(-1.57553e-05 4.59344e-05 0)
(-2.62384e-05 4.58118e-05 0)
(-3.6686e-05 4.56276e-05 0)
(-4.70839e-05 4.53822e-05 0)
(-5.74182e-05 4.50763e-05 0)
(-6.7675e-05 4.47104e-05 0)
(-7.78405e-05 4.42855e-05 0)
(-8.79013e-05 4.38027e-05 0)
(-9.7844e-05 4.32629e-05 0)
(-0.000107656 4.26672e-05 0)
(-0.000117324 4.20168e-05 0)
(-0.000126836 4.13127e-05 0)
(-0.00013618 4.05562e-05 0)
(-0.000145346 3.9749e-05 0)
(-0.000154321 3.88926e-05 0)
(-0.000163095 3.7989e-05 0)
(-0.000171658 3.70404e-05 0)
(-0.000179999 3.60487e-05 0)
(-0.000188108 3.50163e-05 0)
(-0.000195978 3.39453e-05 0)
(-0.000203599 3.28379e-05 0)
(-0.000210963 3.16965e-05 0)
(-0.000218063 3.05232e-05 0)
(-0.000224891 2.93205e-05 0)
(-0.00023144 2.80905e-05 0)
(-0.000237704 2.68354e-05 0)
(-0.000243678 2.55573e-05 0)
(-0.000249355 2.42584e-05 0)
(-0.000254733 2.29408e-05 0)
(-0.000259807 2.16066e-05 0)
(-0.000264573 2.0258e-05 0)
(-0.000269029 1.88973e-05 0)
(-0.000273173 1.75267e-05 0)
(-0.000277001 1.61484e-05 0)
(-0.000280514 1.47646e-05 0)
(-0.000283708 1.33776e-05 0)
(-0.000286584 1.19892e-05 0)
(-0.000289141 1.06007e-05 0)
(-0.000291379 9.21393e-06 0)
(-0.000293301 7.83097e-06 0)
(-0.000294907 6.45286e-06 0)
(-0.0002962 5.08052e-06 0)
(-0.000297181 3.71628e-06 0)
(-0.000297855 2.3627e-06 0)
(-0.000298223 1.02097e-06 0)
(-0.000298288 -3.08013e-07 0)
(-0.000298051 -1.62222e-06 0)
(-0.000297519 -2.91861e-06 0)
(-0.000296693 -4.19649e-06 0)
(-0.000295577 -5.45602e-06 0)
(-0.000294175 -6.69612e-06 0)
(-0.000292491 -7.91522e-06 0)
(-0.000290531 -9.11285e-06 0)
(-0.000288298 -1.02894e-05 0)
(-0.000285799 -1.1445e-05 0)
(-0.000283039 -1.25787e-05 0)
(-0.000280026 -1.36895e-05 0)
(-0.000276766 -1.47767e-05 0)
(-0.000273264 -1.58394e-05 0)
(-0.000269528 -1.68772e-05 0)
(-0.00026556 -1.78894e-05 0)
(-0.000261367 -1.88746e-05 0)
(-0.000256953 -1.98316e-05 0)
(-0.000252327 -2.07596e-05 0)
(-0.000247493 -2.16592e-05 0)
(-0.000242454 -2.25319e-05 0)
(-0.000237214 -2.33776e-05 0)
(-0.000231783 -2.41952e-05 0)
(-0.000226173 -2.49839e-05 0)
(-0.000220392 -2.5745e-05 0)
(-0.000214446 -2.64806e-05 0)
(-0.000208339 -2.71907e-05 0)
(-0.000202077 -2.7872e-05 0)
(-0.000195664 -2.85209e-05 0)
(-0.000189103 -2.91376e-05 0)
(-0.000182396 -2.97265e-05 0)
(-0.000175549 -3.02922e-05 0)
(-0.000168574 -3.08369e-05 0)
(-0.000161484 -3.1359e-05 0)
(-0.000154286 -3.18557e-05 0)
(-0.000146985 -3.23248e-05 0)
(-0.00013958 -3.27666e-05 0)
(-0.000132071 -3.31824e-05 0)
(-0.000124465 -3.35727e-05 0)
(-0.000116776 -3.39381e-05 0)
(-0.000109016 -3.42807e-05 0)
(-0.000101193 -3.46035e-05 0)
(-9.33061e-05 -3.49065e-05 0)
(-8.53501e-05 -3.51845e-05 0)
(-7.73211e-05 -3.54294e-05 0)
(-6.92253e-05 -3.56358e-05 0)
(-6.10851e-05 -3.58083e-05 0)
(-5.2927e-05 -3.59595e-05 0)
(-4.47551e-05 -3.60972e-05 0)
(-3.65465e-05 -3.62175e-05 0)
(-2.8287e-05 -3.63146e-05 0)
(-2.00116e-05 -3.63913e-05 0)
(-1.18144e-05 -3.63649e-05 0)
(-3.64093e-06 -3.35252e-05 0)
(2.77377e-06 -5.52189e-05 0)
(9.7824e-06 -4.112e-05 0)
(2.10535e-05 -4.08585e-05 0)
(2.98289e-05 -4.15286e-05 0)
(3.83953e-05 -4.21852e-05 0)
(4.66497e-05 -4.26648e-05 0)
(5.47351e-05 -4.29718e-05 0)
(6.27433e-05 -4.31137e-05 0)