/*--------------------------------*- C++ -*----------------------------------*\
| =========                 |                                                 |
| \\      /  F ield         | OpenFOAM: The Open Source CFD Toolbox           |
|  \\    /   O peration     | Version:  2412                                  |
|   \\  /    A nd           | Website:  www.openfoam.com                      |
|    \\/     M anipulation  |                                                 |
\*---------------------------------------------------------------------------*/
FoamFile
{
    version     2.0;
    format      ascii;
    arch        "LSB;label=32;scalar=64";
    class       surfaceScalarField;
    location    "1.18";
    object      alphaPhi0.water;
}
// * * * * * * * * * * * * * * * * * * * * * * * * * * * * * * * * * * * * * //

dimensions      [0 3 -1 0 0 0 0];

oriented        oriented;

internalField   nonuniform List<scalar> 
79600
(
3.83175e-198
-1.32318e-194
1.46015e-188
-1.99244e-185
1.91554e-187
-1.60321e-184
3.40647e-187
-2.01513e-184
4.42396e-187
-2.0106e-184
5.14428e-187
-1.89643e-184
5.58427e-187
-1.73263e-184
5.75932e-187
-1.54407e-184
5.69537e-187
-1.34556e-184
5.42891e-187
-1.14751e-184
5.00255e-187
-9.57507e-185
4.46273e-187
-7.81167e-185
3.85721e-187
-6.22574e-185
3.23062e-187
-4.84191e-185
2.62154e-187
-3.67044e-185
2.06004e-187
-2.70861e-185
1.56651e-187
-1.94321e-185
1.15191e-187
-1.35363e-185
8.1853e-188
-9.14554e-186
5.61531e-188
-5.98515e-186
3.71558e-188
-3.78924e-186
2.36904e-188
-2.31796e-186
1.45376e-188
-1.36813e-186
8.56892e-189
-7.77458e-187
4.83489e-189
-4.23846e-187
2.59761e-189
-2.2048e-187
1.32033e-189
-1.08726e-187
6.29584e-190
-5.04004e-188
2.79402e-190
-2.17889e-188
1.14671e-190
-8.72863e-189
4.33696e-191
-3.22796e-189
1.51139e-191
-1.10148e-189
4.87472e-192
-3.4826e-190
1.46216e-192
-1.02503e-190
4.06089e-193
-2.79625e-191
1.02318e-193
-6.92627e-192
2.28146e-194
-1.51949e-192
4.43467e-195
-2.90741e-193
7.51524e-196
-4.85081e-194
1.11946e-196
-7.11366e-195
1.46331e-197
-9.14917e-196
1.65576e-198
-1.01697e-196
1.60066e-199
-9.63252e-198
1.31408e-200
-7.72132e-199
9.1462e-202
-5.22396e-200
5.39565e-203
-2.97801e-201
2.69846e-204
-1.42793e-202
1.14452e-205
-5.74519e-204
4.11658e-207
-1.93128e-205
1.25345e-208
-5.37417e-207
3.21245e-210
-1.2118e-208
6.82789e-212
-2.09498e-210
1.15923e-213
-2.27858e-212
1.45537e-215
1.52192e-219
1.802e-217
2.0653e-220
2.1997e-219
4.81134e-222
2.64544e-221
8.57614e-224
3.13151e-223
1.35036e-225
3.64488e-225
1.96885e-227
4.16716e-227
2.71421e-229
4.67508e-229
3.57642e-231
5.14177e-231
4.53221e-233
5.5386e-233
5.54421e-235
5.83771e-235
6.56174e-237
6.01485e-237
7.5238e-239
6.05227e-239
8.36399e-241
5.94123e-241
9.01731e-243
5.68367e-243
9.42782e-245
5.29273e-245
9.5562e-247
4.79184e-247
9.38586e-249
4.21244e-249
8.92626e-251
3.59067e-251
8.21285e-253
2.96338e-253
7.30298e-255
2.3642e-255
6.26867e-257
1.82023e-257
5.18732e-259
1.34997e-259
4.13196e-261
9.62551e-262
3.16302e-263
6.58412e-264
2.32268e-265
4.31064e-266
1.63288e-267
2.6944e-268
1.09659e-269
1.60346e-270
7.01785e-272
9.05762e-273
4.26851e-274
4.84025e-275
2.46023e-276
2.4378e-277
1.33929e-278
1.15235e-279
6.86081e-281
5.08824e-282
3.29368e-283
2.08739e-284
1.47487e-285
7.90658e-287
6.12725e-288
2.74515e-289
2.34708e-290
8.66173e-292
8.23004e-293
2.45813e-294
2.61919e-295
6.19501e-297
7.48749e-298
1.3644e-299
1.89842e-300
2.57166e-302
4.20112e-303
4.03173e-305
7.94641e-306
5.0456e-308
1.24867e-308
4.7242e-311
1.56435e-311
2.94103e-314
1.46447e-314
9.13244e-318
9.1042e-318
4.94066e-324
2.82111e-321
-1.15208e-317
3.58198e-321
-3.70178e-314
1.15278e-317
-5.92379e-311
1.84673e-314
-6.30072e-308
1.96403e-311
-5.01349e-305
1.56075e-308
-3.18452e-302
9.88886e-306
-1.68261e-299
5.20555e-303
-7.60914e-297
2.34244e-300
-3.00744e-294
9.20108e-298
-1.05571e-291
3.20589e-295
-3.33357e-289
1.0035e-292
-9.56721e-287
2.85123e-290
-2.51715e-284
7.41679e-288
-6.11549e-282
1.77913e-285
-1.38057e-279
3.95992e-283
-2.91159e-277
8.22214e-281
-5.76376e-275
1.60008e-278
-1.07548e-272
2.93056e-276
-1.89864e-270
5.0699e-274
-3.18187e-268
8.31221e-272
-5.07735e-266
1.29536e-269
-7.73575e-264
1.92387e-267
-1.12816e-261
2.72974e-265
-1.57851e-259
3.70832e-263
-2.12348e-257
4.8329e-261
-2.75189e-255
6.05341e-259
-3.44181e-253
7.2991e-257
-4.16147e-251
8.48495e-255
-4.8719e-249
9.5217e-253
-5.53068e-247
1.03273e-250
-6.09657e-245
1.0837e-248
-6.53401e-243
1.10118e-246
-6.8169e-241
1.08429e-244
-6.9311e-239
1.03514e-242
-6.87534e-237
9.58382e-241
-6.66053e-235
8.60559e-239
-6.30774e-233
7.49241e-237
-5.84524e-231
6.32006e-235
-5.30523e-229
5.15784e-233
-4.72052e-227
4.06363e-231
-4.12173e-225
3.07938e-229
-3.53515e-223
2.23054e-227
-2.98139e-221
1.52772e-225
-2.47485e-219
9.68991e-224
-2.0239e-217
5.43131e-222
-1.63162e-215
2.3331e-220
-1.29709e-213
1.80775e-219
-7.62452e-212
-2.5438e-212
-3.575e-210
-2.33972e-210
-1.38858e-208
-1.34946e-208
-4.53481e-207
-5.95923e-207
-1.25252e-205
-2.12969e-205
-2.93146e-204
-6.29322e-204
-5.81556e-203
-1.55241e-202
-9.7787e-202
-3.21154e-201
-1.39374e-200
-5.58713e-200
-1.68461e-199
-8.19057e-199
-1.72991e-198
-1.01376e-197
-1.51876e-197
-1.06238e-196
-1.15535e-196
-9.49364e-196
-7.71848e-196
-7.33953e-195
-4.5336e-195
-4.98026e-194
-2.32199e-194
-2.97112e-193
-1.03734e-193
-1.54584e-192
-4.10442e-193
-7.01915e-192
-1.47429e-192
-2.82504e-191
-4.90617e-192
-1.03309e-190
-1.51865e-191
-3.50353e-190
-4.35113e-191
-1.10626e-189
-1.14885e-190
-3.23692e-189
-2.79588e-190
-8.74047e-189
-6.29364e-190
-2.17917e-188
-1.31873e-189
-5.03547e-188
-2.59243e-189
-1.08531e-187
-4.82175e-189
-2.19902e-187
-8.54044e-189
-4.22402e-187
-1.44831e-188
-7.74283e-187
-2.35969e-188
-1.36185e-186
-3.70084e-188
-2.30668e-186
-5.59364e-188
-3.77043e-186
-8.15504e-188
-5.95536e-186
-1.14785e-187
-9.10012e-186
-1.56122e-187
-1.34691e-185
-2.0534e-187
-1.93349e-185
-2.61375e-187
-2.69492e-185
-3.22237e-187
-3.65191e-185
-3.84979e-187
-4.81791e-185
-4.45814e-187
-6.19613e-185
-5.00369e-187
-7.77741e-185
-5.4398e-187
-9.53854e-185
-5.72152e-187
-1.14413e-184
-5.80981e-187
-1.34345e-184
-5.67621e-187
-1.54545e-184
-5.30513e-187
-1.74309e-184
-4.68656e-187
-1.9287e-184
-3.75764e-187
-2.08943e-184
-2.17311e-187
-2.16496e-184
-1.52464e-188
-1.75826e-184
-2.78997e-198
-2.01561e-185
-9.77519e-195
2.31442e-194
-4.50061e-191
5.55705e-185
-4.26583e-182
6.62298e-184
-3.19129e-181
1.12198e-183
-3.88892e-181
1.41948e-183
-3.82453e-181
1.63214e-183
-3.59436e-181
1.76757e-183
-3.29239e-181
1.82677e-183
-2.9498e-181
1.81467e-183
-2.58793e-181
1.74015e-183
-2.22378e-181
1.61491e-183
-1.87098e-181
1.45241e-183
-1.54025e-181
1.26684e-183
-1.23963e-181
1.07179e-183
-9.7436e-182
8.79394e-184
-7.47124e-182
6.99426e-184
-5.58194e-182
5.38874e-184
-4.05818e-182
4.01902e-184
-2.86754e-182
2.89972e-184
-1.96721e-182
2.02206e-184
-1.30855e-182
1.36157e-184
-8.42939e-183
8.84493e-185
-5.2523e-183
5.5369e-185
-3.16136e-183
3.33372e-185
-1.83427e-183
1.92414e-185
-1.02236e-183
1.05909e-185
-5.4449e-184
5.52436e-186
-2.75337e-184
2.70835e-186
-1.31109e-184
1.23839e-186
-5.83424e-185
5.24854e-187
-2.41087e-185
2.05449e-187
-9.21606e-186
7.42585e-188
-3.25701e-186
2.4893e-188
-1.06853e-186
7.77755e-189
-3.26985e-187
2.25562e-189
-9.29368e-188
5.95066e-190
-2.40305e-188
1.39345e-190
-5.51396e-189
2.85341e-191
-1.10576e-189
5.11073e-192
-1.93816e-190
8.07549e-193
-2.99492e-191
1.124e-193
-4.06901e-192
1.35919e-194
-4.78372e-193
1.40946e-195
-4.79485e-194
1.24653e-196
-4.07014e-195
9.3942e-198
-2.91871e-196
6.0373e-199
-1.76504e-197
3.31418e-200
-8.98493e-199
1.5582e-201
-3.84222e-200
6.29709e-203
-1.37564e-201
2.19649e-204
-4.09407e-203
6.64038e-206
-9.95715e-205
1.74597e-207
-1.89311e-206
3.99991e-209
-2.42218e-208
7.9731e-211
-3.0226e-211
1.54684e-212
2.42106e-215
2.94202e-214
9.55544e-217
5.48384e-216
2.7165e-218
1.00136e-217
6.69586e-220
1.79047e-219
1.51323e-221
3.13327e-221
3.21233e-223
5.36338e-223
6.48618e-225
8.97476e-225
1.25465e-226
1.4671e-226
2.33511e-228
2.34117e-228
4.19287e-230
3.64419e-230
7.27538e-232
5.52836e-232
1.22112e-233
8.16625e-234
1.98345e-235
1.17342e-235
3.11812e-237
1.63843e-237
4.74341e-239
2.22052e-239
6.97969e-241
2.91746e-241
9.92805e-243
3.71114e-243
1.36406e-244
4.56405e-245
1.80853e-246
5.41843e-247
2.31133e-248
6.1996e-249
2.84374e-250
6.82419e-251
3.36346e-252
7.21278e-253
3.81822e-254
7.30489e-255
4.15286e-256
7.0729e-257
4.31916e-258
6.53094e-259
4.28631e-260
5.73543e-261
4.04915e-262
4.776e-263
3.63159e-264
3.75859e-265
3.08327e-266
2.78507e-267
2.46997e-268
1.93503e-269
1.86016e-270
1.25468e-271
1.3116e-272
7.55155e-274
8.61822e-275
4.19275e-276
5.24904e-277
2.13195e-278
2.94516e-279
9.84327e-281
1.51137e-281
4.08412e-283
7.03312e-284
1.5036e-285
2.9374e-286
4.83359e-288
1.08717e-288
1.32871e-290
3.50908e-291
3.03563e-293
9.6732e-294
5.53188e-296
2.21345e-296
7.53634e-299
4.03498e-299
6.82167e-302
5.49219e-302
3.07806e-305
4.96086e-305
2.91171e-311
2.23086e-308
-3.72964e-305
2.71261e-308
-8.27371e-302
6.03651e-305
-9.13143e-299
6.67545e-302
-6.69211e-296
4.89597e-299
-3.66556e-293
2.68056e-296
-1.60129e-290
1.16905e-293
-5.81338e-288
4.23197e-291
-1.80468e-285
1.30835e-288
-4.89186e-283
3.5275e-286
-1.17659e-280
8.42825e-284
-2.5432e-278
1.8074e-281
-4.99153e-276
3.51478e-279
-8.97247e-274
6.25156e-277
-1.48787e-271
1.02437e-274
-2.29027e-269
1.55592e-272
-3.29017e-267
2.20241e-270
-4.43205e-265
2.91889e-268
-5.62153e-263
3.63691e-266
-6.73877e-261
4.27587e-264
-7.65998e-259
4.75896e-262
-8.28131e-257
5.02882e-260
-8.5384e-255
5.05862e-258
-8.41661e-253
4.85558e-256
-7.94999e-251
4.45683e-254
-7.21056e-249
3.91955e-252
-6.29183e-247
3.30853e-250
-5.29128e-245
2.6848e-248
-4.29566e-243
2.09742e-246
-3.37167e-241
1.57943e-244
-2.56223e-239
1.14776e-242
-1.88764e-237
8.05661e-241
-1.34981e-235
5.46691e-239
-9.37943e-234
3.58825e-237
-6.33992e-232
2.27911e-235
-4.17275e-230
1.40109e-233
-2.67661e-228
8.33545e-232
-1.67472e-226
4.79679e-230
-1.02289e-224
2.66759e-228
-6.10325e-223
1.43124e-226
-3.55981e-221
7.3885e-225
-2.03091e-219
3.65405e-223
-1.13394e-217
1.71891e-221
-6.19937e-216
7.59588e-220
-3.3201e-214
3.07799e-218
-1.7425e-212
1.08178e-216
-8.96513e-211
2.74341e-215
-4.49163e-209
-3.12849e-211
-1.95583e-207
-2.72505e-208
-7.4122e-206
-2.1288e-206
-2.4404e-204
-1.11609e-204
-6.95636e-203
-4.56719e-203
-1.70981e-201
-1.52534e-201
-3.60942e-200
-4.22992e-200
-6.52221e-199
-9.81244e-199
-1.00646e-197
-1.91105e-197
-1.32449e-196
-3.1323e-196
-1.48568e-195
-4.33003e-195
-1.4219e-194
-5.0585e-194
-1.16782e-193
-5.00718e-193
-8.34165e-193
-4.22884e-192
-5.25285e-192
-3.09398e-191
-2.91903e-191
-1.99211e-190
-1.41911e-190
-1.13115e-189
-6.03683e-190
-5.61494e-189
-2.28124e-189
-2.4375e-188
-7.84697e-189
-9.39766e-188
-2.50695e-188
-3.29834e-187
-7.46624e-188
-1.07587e-186
-2.06248e-187
-3.27396e-186
-5.26158e-187
-9.24972e-186
-1.23996e-186
-2.41628e-185
-2.70905e-186
-5.84022e-185
-5.52121e-186
-1.31109e-184
-1.05775e-185
-2.75102e-184
-1.92051e-185
-5.43629e-184
-3.32578e-185
-1.02008e-183
-5.52184e-185
-1.82918e-183
-8.81937e-185
-3.15144e-183
-1.35757e-184
-5.23472e-183
-2.01624e-184
-8.4004e-183
-2.89176e-184
-1.30403e-182
-4.00877e-184
-1.96055e-182
-5.37632e-184
-2.85815e-182
-6.98031e-184
-4.04556e-182
-8.78008e-184
-5.5658e-182
-1.07073e-183
-7.45183e-182
-1.26658e-183
-9.72238e-182
-1.45367e-183
-1.23767e-181
-1.61863e-183
-1.53912e-181
-1.74754e-183
-1.87179e-181
-1.82727e-183
-2.22833e-181
-1.84669e-183
-2.5991e-181
-1.79793e-183
-2.97269e-181
-1.67704e-183
-3.33659e-181
-1.48155e-183
-3.67758e-181
-1.19236e-183
-3.97383e-181
-6.99914e-184
-4.11735e-181
-5.28222e-185
-3.37418e-181
-1.6361e-194
-4.1201e-182
-3.3671e-191
3.10519e-191
-5.42422e-188
4.81476e-182
-3.24444e-179
5.49543e-181
-2.32186e-178
9.14742e-181
-2.78779e-178
1.14413e-180
-2.71894e-178
1.30911e-180
-2.54925e-178
1.41756e-180
-2.33918e-178
1.46916e-180
-2.10456e-178
1.46628e-180
-1.8569e-178
1.41454e-180
-1.60644e-178
1.32208e-180
-1.362e-178
1.19871e-180
-1.13089e-178
1.05507e-180
-9.18817e-179
9.01607e-181
-7.29711e-179
7.4791e-181
-5.65866e-179
6.01986e-181
-4.27957e-179
4.69824e-181
-3.15247e-179
3.55309e-181
-2.25922e-179
2.60209e-181
-1.57347e-179
1.84371e-181
-1.06363e-179
1.26278e-181
-6.96996e-180
8.35294e-182
-4.4225e-180
5.33056e-182
-2.71367e-180
3.27589e-182
-1.60704e-180
1.9324e-182
-9.15381e-181
1.08859e-182
-4.98921e-181
5.82054e-183
-2.58606e-181
2.93014e-183
-1.2645e-181
1.37853e-183
-5.7904e-182
6.02413e-184
-2.46777e-182
2.43643e-184
-9.74993e-183
9.11621e-185
-3.56783e-183
3.16935e-185
-1.21409e-183
1.02899e-185
-3.86053e-184
3.1075e-186
-1.14236e-184
8.5526e-187
-3.08084e-185
2.09333e-187
-7.38783e-186
4.4893e-188
-1.55145e-186
8.44037e-189
-2.85404e-187
1.404e-189
-4.64153e-188
2.06222e-190
-6.65155e-189
2.63448e-191
-8.25407e-190
2.88706e-192
-8.73138e-191
2.69954e-193
-7.8219e-192
2.15215e-194
-5.91932e-193
1.46368e-195
-3.77561e-194
8.50441e-197
-2.02499e-195
4.23297e-198
-9.1101e-197
1.81213e-199
-3.42621e-198
6.70602e-201
-1.06992e-199
2.15748e-202
-2.73072e-201
6.07055e-204
-5.46906e-203
1.50271e-205
-7.52019e-205
3.29068e-207
-2.06693e-207
6.95803e-209
1.53485e-211
1.43993e-210
6.8985e-213
2.91577e-212
2.16162e-214
5.77565e-214
5.82163e-216
1.11875e-215
1.43143e-217
2.11819e-217
3.29719e-219
3.9183e-219
7.2095e-221
7.07773e-221
1.50777e-222
1.24765e-222
3.02985e-224
2.14492e-224
5.86686e-226
3.5936e-226
1.09663e-227
5.86279e-228
1.98084e-229
9.30595e-230
3.45943e-231
1.43579e-231
5.84257e-233
2.15108e-233
9.54101e-235
3.12594e-235
1.50598e-236
4.40096e-237
2.2963e-238
5.9952e-239
3.37987e-240
7.89129e-241
4.79769e-242
1.00215e-242
6.56078e-244
1.22591e-244
8.63239e-246
1.442e-246
1.09131e-247
1.62791e-248
1.32352e-249
1.76017e-250
1.53717e-251
1.81871e-252
1.7064e-253
1.79138e-254
1.8067e-255
1.67745e-256
1.82016e-257
1.48886e-258
1.74025e-259
1.24842e-260
1.57447e-261
9.85288e-263
1.34357e-263
7.28886e-265
1.0775e-265
5.03046e-267
8.08757e-268
3.22163e-269
5.65515e-270
1.9027e-271
3.66421e-272
1.02885e-273
2.1865e-274
5.05003e-276
1.19296e-276
2.22696e-278
5.90055e-279
8.71142e-281
2.61864e-281
2.9748e-283
1.02959e-283
8.68442e-286
3.52937e-286
2.10659e-288
1.03301e-288
4.07499e-291
2.50918e-291
5.89188e-294
4.8544e-294
5.65931e-297
7.0111e-297
2.70994e-300
6.71869e-300
3.4915e-306
3.20571e-303
-3.2715e-300
3.88186e-303
-6.84961e-297
8.15512e-300
-7.13093e-294
8.50887e-297
-4.92782e-291
5.88599e-294
-2.54437e-288
3.03848e-291
-1.04743e-285
1.24906e-288
-3.5824e-283
4.26071e-286
-1.04739e-280
1.24086e-283
-2.67309e-278
3.15063e-281
-6.05156e-276
7.08708e-279
-1.23082e-273
1.43038e-276
-2.27238e-271
2.61713e-274
-3.8411e-269
4.37832e-272
-5.98773e-267
6.74572e-270
-8.66152e-265
9.63088e-268
-1.16892e-262
1.28096e-265
-1.47868e-260
1.59462e-263
-1.76063e-258
1.86559e-261
-1.98048e-256
2.05868e-259
-2.11166e-254
2.14975e-257
-2.14053e-252
2.13048e-255
-2.06843e-250
2.00906e-253
-1.91007e-248
1.807e-251
-1.68937e-246
1.55346e-249
-1.43404e-244
1.27897e-247
-1.17053e-242
1.01015e-245
-9.20343e-241
7.66588e-244
-6.98168e-239
5.59749e-242
-5.11754e-237
3.93747e-240
-3.62954e-235
2.67118e-238
-2.49395e-233
1.74926e-236
-1.66219e-231
1.10662e-234
-1.07574e-229
6.76661e-233
-6.76718e-228
4.00074e-231
-4.14177e-226
2.28751e-229
-2.4684e-224
1.2646e-227
-1.43364e-222
6.75573e-226
-8.12036e-221
3.48387e-224
-4.48853e-219
1.73121e-222
-2.42262e-217
8.26592e-221
-1.27747e-215
3.77484e-219
-6.58418e-214
1.63644e-217
-3.31832e-212
6.64621e-216
-1.63586e-210
2.46478e-214
-7.89064e-209
7.85924e-213
-3.72481e-207
1.75035e-211
-1.69823e-205
-2.2794e-207
-6.84214e-204
-8.53092e-205
-2.42244e-202
-6.19716e-203
-7.49199e-201
-3.08305e-201
-2.01207e-199
-1.2016e-199
-4.66617e-198
-3.82235e-198
-9.29918e-197
-1.0084e-196
-1.58664e-195
-2.22192e-195
-2.31225e-194
-4.10421e-194
-2.87497e-193
-6.37334e-193
-3.04883e-192
-8.34357e-192
-2.76005e-191
-9.23134e-191
-2.14504e-190
-8.65443e-190
-1.45157e-189
-6.92216e-189
-8.68154e-189
-4.80032e-188
-4.59548e-188
-2.93622e-187
-2.13307e-187
-1.58837e-186
-8.68086e-187
-7.52868e-186
-3.1443e-186
-3.12716e-185
-1.03864e-185
-1.1559e-184
-3.19321e-185
-3.8966e-184
-9.16972e-185
-1.22318e-183
-2.44695e-184
-3.58862e-183
-6.04157e-184
-9.79166e-183
-1.38083e-183
-2.47484e-182
-2.93204e-183
-5.79993e-182
-5.8196e-183
-1.26529e-181
-1.0877e-182
-2.58557e-181
-1.92974e-182
-4.98491e-181
-3.26991e-182
-9.14069e-181
-5.31922e-182
-1.604e-180
-8.33371e-182
-2.7077e-180
-1.25977e-181
-4.41196e-180
-1.83935e-181
-6.95272e-180
-2.59623e-181
-1.061e-179
-3.54576e-181
-1.56973e-179
-4.68983e-181
-2.25425e-179
-6.01121e-181
-3.14636e-179
-7.47176e-181
-4.27271e-179
-9.01268e-181
-5.65204e-179
-1.0555e-180
-7.29284e-179
-1.20043e-180
-9.18988e-179
-1.32573e-180
-1.13226e-178
-1.42089e-180
-1.36547e-178
-1.47621e-180
-1.61337e-178
-1.4837e-180
-1.86932e-178
-1.43789e-180
-2.12567e-178
-1.33632e-180
-2.3741e-178
-1.17757e-180
-2.60601e-178
-9.47201e-181
-2.80707e-178
-5.59928e-181
-2.90422e-178
-4.47303e-182
-2.39284e-178
-2.31951e-191
-3.08205e-179
-4.218e-188
2.21044e-188
-3.74447e-185
2.17444e-179
-1.39225e-176
2.40765e-178
-9.60741e-176
3.98932e-178
-1.14583e-175
4.97406e-178
-1.11344e-175
5.68756e-178
-1.04332e-175
6.1693e-178
-9.59252e-176
6.41695e-178
-8.66431e-176
6.43662e-178
-7.6856e-176
6.24799e-178
-6.69203e-176
5.88185e-178
-5.71623e-176
5.37684e-178
-4.7864e-176
4.77596e-178
-3.92537e-176
4.12264e-178
-3.14974e-176
3.45779e-178
-2.47014e-176
2.81672e-178
-1.89107e-176
2.22701e-178
-1.41149e-176
1.70786e-178
-1.02597e-176
1.26958e-178
-7.25453e-177
9.14025e-179
-4.98361e-177
6.3674e-179
-3.32211e-177
4.28841e-179
-2.14645e-177
2.78953e-179
-1.34259e-177
1.74946e-179
-8.11419e-178
1.05448e-179
-4.7228e-178
6.07825e-180
-2.63404e-178
3.33071e-180
-1.39937e-178
1.72147e-180
-7.02663e-179
8.33269e-181
-3.31185e-179
3.75478e-181
-1.45627e-179
1.56922e-181
-5.94943e-180
6.07827e-182
-2.25529e-180
2.19138e-182
-7.96266e-181
7.39115e-183
-2.63116e-181
2.32325e-183
-8.10579e-182
6.66733e-184
-2.28029e-182
1.70493e-184
-5.71705e-183
3.82759e-185
-1.25814e-183
7.54991e-186
-2.43095e-184
1.32122e-186
-4.16367e-185
2.04597e-187
-6.29743e-186
2.75736e-188
-8.25391e-187
3.18705e-189
-9.22145e-188
3.14265e-190
-8.7256e-189
2.6416e-191
-6.97485e-190
1.89286e-192
-4.69643e-191
1.15718e-193
-2.65539e-192
6.04868e-195
-1.25694e-193
2.71339e-196
-4.96287e-195
1.0498e-197
-1.62346e-196
3.5234e-199
-4.3331e-198
1.0323e-200
-9.07629e-200
2.65731e-202
-1.31615e-201
6.04881e-204
-4.77167e-204
1.32246e-205
3.82927e-208
2.82668e-207
1.82989e-209
5.90593e-209
5.9676e-211
1.20593e-210
1.66367e-212
2.40579e-212
4.22355e-214
4.68747e-214
1.0028e-215
8.91623e-216
2.2574e-217
1.65491e-217
4.85546e-219
2.99556e-219
1.00261e-220
5.28471e-221
1.9934e-222
9.0804e-223
3.82319e-224
1.51845e-224
7.08125e-226
2.46913e-226
1.26738e-227
3.90071e-228
2.19236e-229
5.98096e-230
3.6651e-231
8.89119e-232
5.91951e-233
1.27999e-233
9.23156e-235
1.78223e-235
1.38912e-236
2.39685e-237
2.01506e-238
3.10885e-239
2.81488e-240
3.8828e-241
3.78203e-242
4.6615e-243
4.88069e-244
5.36938e-245
6.04029e-246
5.92176e-247
7.15658e-248
6.23928e-249
8.10201e-250
6.26486e-251
8.74578e-252
5.97875e-253
8.98054e-254
5.40679e-255
8.74929e-256
4.61811e-257
8.064e-258
3.71179e-259
7.00858e-260
2.79574e-261
5.72316e-262
1.96412e-263
4.37313e-264
1.28016e-265
3.11229e-266
7.69317e-268
2.05205e-268
4.232e-270
1.24579e-270
2.11285e-272
6.91384e-273
9.47517e-275
3.47783e-275
3.76868e-277
1.5694e-277
1.30831e-279
6.27322e-280
3.88221e-282
2.18586e-282
9.57051e-285
6.50217e-285
1.88122e-287
1.6049e-287
2.76354e-290
3.15465e-290
2.69667e-293
4.62856e-293
1.31181e-296
4.50548e-296
1.88268e-302
2.18358e-299
-1.59655e-296
2.66562e-299
-3.29223e-293
5.51616e-296
-3.37471e-290
5.66765e-293
-2.29575e-287
3.86001e-290
-1.16668e-284
1.96149e-287
-4.72633e-282
7.93596e-285
-1.59047e-279
2.66383e-282
-4.57438e-277
7.63278e-280
-1.14825e-274
1.90639e-277
-2.55627e-272
4.21752e-275
-5.11174e-270
8.37017e-273
-9.27698e-268
1.50563e-270
-1.54115e-265
2.47586e-268
-2.36061e-263
3.7487e-266
-3.35456e-261
5.25847e-264
-4.44639e-259
6.87028e-262
-5.52305e-257
8.39931e-260
-6.4558e-255
9.64819e-258
-7.12725e-253
1.0451e-255
-7.4564e-251
1.07098e-253
-7.4142e-249
1.04131e-251
-7.02582e-247
9.63123e-250
-6.36049e-245
8.49393e-248
-5.51337e-243
7.15782e-246
-4.58527e-241
5.7747e-244
-3.66565e-239
4.46788e-242
-2.8218e-237
3.32024e-240
-2.095e-235
2.37319e-238
-1.50232e-233
1.63351e-236
-1.04196e-231
1.08392e-234
-6.99838e-230
6.93976e-233
-4.55726e-228
4.29027e-231
-2.88028e-226
2.56242e-229
-1.76855e-224
1.47906e-227
-1.05595e-222
8.25144e-226
-6.13587e-221
4.44823e-224
-3.47249e-219
2.31575e-222
-1.9153e-217
1.16295e-220
-1.03022e-215
5.62327e-219
-5.40706e-214
2.61029e-217
-2.77037e-212
1.15775e-215
-1.38625e-210
4.86851e-214
-6.77681e-209
1.91482e-212
-3.23749e-207
6.85893e-211
-1.51176e-205
2.10107e-209
-6.90089e-204
4.40067e-208
-3.02608e-202
-5.36455e-204
-1.17205e-200
-1.50612e-201
-3.98351e-199
-1.03683e-199
-1.18036e-197
-4.92929e-198
-3.03022e-196
-1.83597e-196
-6.70166e-195
-5.57131e-195
-1.27083e-193
-1.39893e-193
-2.05929e-192
-2.92713e-192
-2.8464e-191
-5.12467e-191
-3.35462e-190
-7.53289e-190
-3.37175e-189
-9.33008e-189
-2.89286e-188
-9.76799e-188
-2.1304e-187
-8.66701e-187
-1.36713e-186
-6.56105e-186
-7.77102e-186
-4.30999e-185
-3.92044e-185
-2.50281e-184
-1.73817e-184
-1.2889e-183
-6.77036e-184
-5.82927e-183
-2.35174e-183
-2.31575e-182
-7.46324e-183
-8.2058e-182
-2.20867e-182
-2.65693e-181
-6.11611e-182
-8.02571e-181
-1.57654e-181
-2.26939e-180
-3.76696e-181
-5.9774e-180
-8.34944e-181
-1.46106e-179
-1.72317e-180
-3.31869e-179
-3.33136e-180
-7.034e-179
-6.07556e-180
-1.39973e-178
-1.05345e-179
-2.63302e-178
-1.74702e-179
-4.71845e-178
-2.78484e-179
-8.10329e-178
-4.28043e-179
-1.3404e-177
-6.35497e-179
-2.14258e-177
-9.12241e-179
-3.31582e-177
-1.26722e-178
-4.9742e-177
-1.70501e-178
-7.24157e-177
-2.22392e-178
-1.02434e-176
-2.81383e-178
-1.40968e-176
-3.45583e-178
-1.88935e-176
-4.12275e-178
-2.46907e-176
-4.77968e-178
-3.15036e-176
-5.38612e-178
-3.92927e-176
-5.89899e-178
-4.79608e-176
-6.27546e-178
-5.73518e-176
-6.47691e-178
-6.72521e-176
-6.47246e-178
-7.74005e-176
-6.24185e-178
-8.74999e-176
-5.7773e-178
-9.7236e-176
-5.07477e-178
-1.06286e-175
-4.07541e-178
-1.14104e-175
-2.42043e-178
-1.17835e-175
-2.03386e-179
-9.74965e-176
-1.75404e-188
-1.31959e-176
-3.02354e-185
1.07779e-185
-1.76871e-182
6.56961e-177
-4.01816e-174
7.04102e-176
-2.67486e-173
1.16549e-175
-3.18046e-173
1.45382e-175
-3.08827e-173
1.66482e-175
-2.89638e-173
1.81096e-175
-2.66992e-173
1.89149e-175
-2.42146e-173
1.90737e-175
-2.15942e-173
1.86325e-175
-1.89237e-173
1.76695e-175
-1.6285e-173
1.62867e-175
-1.37513e-173
1.46009e-175
-1.1384e-173
1.27326e-175
-9.22966e-174
1.0799e-175
-7.3207e-174
8.9041e-176
-5.67393e-174
7.13267e-176
-4.29166e-174
5.54746e-176
-3.16432e-174
4.18647e-176
-2.27189e-174
3.06278e-176
-1.58626e-174
2.1703e-176
-1.07576e-174
1.4883e-176
-7.07801e-175
9.86795e-177
-4.51305e-175
6.31538e-177
-2.78353e-175
3.88936e-177
-1.65543e-175
2.2939e-177
-9.44743e-176
1.28825e-177
-5.14453e-176
6.83679e-178
-2.65317e-176
3.40589e-178
-1.28763e-176
1.58329e-178
-5.84512e-177
6.84145e-179
-2.47097e-177
2.74486e-179
-9.70986e-178
1.02663e-179
-3.55873e-178
3.59787e-180
-1.22233e-178
1.17722e-180
-3.92094e-179
3.52351e-181
-1.15094e-179
9.41868e-182
-3.0193e-180
2.21546e-182
-6.97106e-181
4.58897e-183
-1.41641e-181
8.45563e-184
-2.55768e-182
1.38159e-184
-4.087e-183
1.96603e-185
-5.66484e-184
2.39912e-186
-6.69418e-185
2.49768e-187
-6.70237e-186
2.21648e-188
-5.67057e-187
1.67555e-189
-4.03939e-188
1.07899e-190
-2.41302e-189
5.92805e-192
-1.20444e-190
2.78782e-193
-5.00306e-192
1.12748e-194
-1.7176e-193
3.9437e-196
-4.80084e-195
1.20048e-197
-1.05204e-196
3.20099e-199
-1.60326e-198
7.52571e-201
-6.91153e-201
1.69154e-202
6.03449e-205
3.71331e-204
3.02973e-206
7.96065e-206
1.02042e-207
1.66641e-207
2.92542e-209
3.40533e-209
7.6213e-211
6.79125e-211
1.8544e-212
1.32127e-212
4.27338e-214
2.50666e-214
9.40125e-216
4.63482e-216
1.98401e-217
8.34746e-218
4.02869e-219
1.46343e-219
7.88637e-221
2.4956e-221
1.49002e-222
4.13628e-223
2.71887e-224
6.65727e-225
4.79264e-226
1.03948e-226
8.16069e-228
1.57295e-228
1.34187e-229
2.30407e-230
2.12964e-231
3.26305e-232
3.25988e-233
4.46186e-234
4.8086e-235
5.88217e-236
6.82817e-237
7.46456e-238
9.32259e-239
9.10269e-240
1.22214e-240
1.06469e-241
1.53601e-242
1.19202e-243
1.84761e-244
1.27462e-245
2.12298e-246
1.29854e-247
2.32532e-248
1.25703e-249
2.42219e-250
1.15283e-251
2.39328e-252
9.98338e-254
2.23658e-254
8.13374e-256
1.97053e-256
6.20877e-258
1.63085e-258
4.41967e-260
1.26271e-260
2.91822e-262
9.10419e-263
1.77626e-264
6.08017e-265
9.89501e-267
3.73816e-267
5.00187e-269
2.1006e-269
2.27077e-271
1.06971e-271
9.14171e-274
4.88604e-274
3.2117e-276
1.97655e-276
9.64319e-279
6.96898e-279
2.4051e-281
2.09735e-281
4.78226e-284
5.23675e-284
7.10555e-287
1.04114e-286
7.01204e-290
1.54485e-289
3.44927e-293
1.52059e-292
5.11318e-299
7.45122e-296
-4.25033e-293
9.21006e-296
-8.66811e-290
1.88515e-292
-8.78599e-287
1.91552e-289
-5.90929e-284
1.28998e-286
-2.96863e-281
6.48082e-284
-1.18866e-278
2.59196e-281
-3.95295e-276
8.59914e-279
-1.12338e-273
2.43491e-276
-2.78584e-271
6.00892e-274
-6.12608e-269
1.31328e-271
-1.20983e-266
2.57439e-269
-2.16804e-264
4.57324e-267
-3.55574e-262
7.42536e-265
-5.37592e-260
1.10989e-262
-7.53912e-258
1.53667e-260
-9.85963e-256
1.98121e-258
-1.20811e-253
2.38971e-256
-1.3927e-251
2.70768e-254
-1.51603e-249
2.89242e-252
-1.56347e-247
2.92238e-250
-1.53211e-245
2.80078e-248
-1.43045e-243
2.55279e-246
-1.27556e-241
2.21798e-244
-1.08876e-239
1.84088e-242
-8.9137e-238
1.46231e-240
-7.01268e-236
1.11365e-238
-5.31076e-234
8.14344e-237
-3.87757e-232
5.72554e-235
-2.73355e-230
3.87521e-233
-1.86311e-228
2.52753e-231
-1.22922e-226
1.59e-229
-7.85955e-225
9.65402e-228
-4.87523e-223
5.66046e-226
-2.93656e-221
3.20597e-224
-1.71913e-219
1.75409e-222
-9.78936e-218
9.26879e-221
-5.42611e-216
4.72704e-219
-2.9295e-214
2.32404e-217
-1.54142e-212
1.09939e-215
-7.90846e-211
4.98881e-214
-3.95818e-209
2.16114e-212
-1.93327e-207
8.86679e-211
-9.21747e-206
3.39776e-209
-4.2909e-204
1.1833e-207
-1.95058e-202
3.50899e-206
-8.65941e-201
6.99368e-205
-3.67546e-199
-7.88244e-201
-1.37378e-197
-1.85161e-198
-4.49171e-196
-1.21208e-196
-1.2763e-194
-5.50468e-195
-3.1322e-193
-1.95645e-193
-6.60259e-192
-5.65243e-192
-1.19022e-190
-1.34792e-190
-1.82947e-189
-2.67228e-189
-2.39518e-188
-4.42425e-188
-2.6721e-187
-6.14229e-187
-2.54252e-186
-7.1829e-186
-2.06533e-185
-7.10316e-185
-1.44001e-184
-5.95611e-184
-8.75607e-184
-4.26225e-183
-4.72627e-183
-2.64959e-182
-2.27037e-182
-1.45918e-181
-9.60648e-182
-7.1451e-181
-3.57934e-181
-3.07987e-180
-1.19208e-180
-1.16929e-179
-3.6341e-180
-3.97079e-179
-1.03504e-179
-1.2347e-178
-2.76273e-179
-3.588e-178
-6.87532e-179
-9.77334e-178
-1.58887e-178
-2.48329e-177
-3.41371e-178
-5.866e-177
-6.84552e-178
-1.29066e-176
-1.28888e-177
-2.65674e-176
-2.29358e-177
-5.14745e-176
-3.8868e-177
-9.44682e-176
-6.3086e-177
-1.65446e-175
-9.85455e-177
-2.78076e-175
-1.48602e-176
-4.50726e-175
-2.16675e-176
-7.06771e-175
-3.05773e-176
-1.07409e-174
-4.17992e-176
-1.5838e-174
-5.53979e-176
-2.26859e-174
-7.12476e-176
-3.16036e-174
-8.89734e-176
-4.28755e-174
-1.07956e-175
-5.67062e-174
-1.27358e-175
-7.3199e-174
-1.46146e-175
-9.23427e-174
-1.63161e-175
-1.13982e-173
-1.77195e-175
-1.37815e-173
-1.87085e-175
-1.63395e-173
-1.91802e-175
-1.90138e-173
-1.90551e-175
-2.17349e-173
-1.82839e-175
-2.44254e-173
-1.68518e-175
-2.70047e-173
-1.47529e-175
-2.93922e-173
-1.18249e-175
-3.14466e-173
-7.05019e-176
-3.24089e-173
-6.21649e-177
-2.69118e-173
-8.93386e-186
-3.82039e-174
-1.47251e-182
3.94935e-183
-6.21937e-180
1.46551e-174
-8.49323e-172
1.51483e-173
-5.44683e-171
2.50539e-173
-6.46549e-171
3.13028e-173
-6.28357e-171
3.59337e-173
-5.90481e-171
3.92232e-173
-5.46051e-171
4.11522e-173
-4.97412e-171
4.17268e-173
-4.46025e-171
4.10265e-173
-3.93426e-171
3.91966e-173
-3.41124e-171
3.64338e-173
-2.90512e-171
3.29694e-173
-2.42793e-171
2.9049e-173
-1.98921e-171
2.49171e-173
-1.59599e-171
2.07985e-173
-1.25249e-171
1.68829e-173
-9.602e-172
1.33191e-173
-7.18289e-172
1.02057e-173
-5.23743e-172
7.5883e-174
-3.71736e-172
5.47017e-174
-2.56513e-172
3.81984e-174
-1.71888e-172
2.58167e-174
-1.1173e-172
1.68607e-174
-7.03282e-173
1.06095e-174
-4.27368e-173
6.40249e-175
-2.49568e-173
3.68528e-175
-1.39308e-173
2.00865e-175
-7.38067e-174
1.03029e-175
-3.69003e-174
4.94417e-176
-1.73049e-174
2.21051e-176
-7.57608e-175
9.19288e-177
-3.08858e-175
3.56893e-177
-1.1758e-175
1.29998e-177
-4.19927e-176
4.42856e-178
-1.40285e-176
1.38294e-178
-4.29848e-177
3.86759e-179
-1.181e-177
9.54322e-180
-2.86465e-178
2.07839e-180
-6.1291e-179
4.03687e-181
-1.16817e-179
6.96737e-182
-1.97433e-180
1.04827e-182
-2.89805e-181
1.35267e-183
-3.62864e-182
1.48964e-184
-3.85211e-183
1.39864e-185
-3.4575e-184
1.11804e-186
-2.61213e-185
7.60243e-188
-1.65294e-186
4.40105e-189
-8.7234e-188
2.17513e-190
-3.82252e-189
9.21804e-192
-1.381e-190
3.36809e-193
-4.05277e-192
1.06753e-194
-9.31213e-194
2.95413e-196
-1.49286e-195
7.18438e-198
-7.4052e-198
1.66284e-199
6.97115e-202
3.75482e-201
3.67766e-203
8.27187e-203
1.28039e-204
1.77771e-204
3.77904e-206
3.72638e-206
1.01152e-207
7.61688e-208
2.52529e-209
1.51772e-209
5.96458e-211
2.94686e-211
1.34371e-212
5.57283e-213
2.90155e-214
1.0259e-214
6.02435e-216
1.8373e-216
1.20505e-217
3.19888e-218
2.32509e-219
5.41033e-220
4.3303e-221
8.88156e-222
7.78682e-223
1.4138e-223
1.35194e-224
2.18008e-225
2.26564e-226
3.25284e-227
3.66306e-228
4.69058e-229
5.70984e-230
6.52818e-231
8.57349e-232
8.75658e-233
1.2388e-233
1.13025e-234
1.72045e-235
1.40144e-236
2.29347e-237
1.66621e-238
2.93019e-239
1.89566e-240
3.5819e-241
2.05926e-242
4.18144e-243
2.13071e-244
4.65182e-245
2.09431e-246
4.92034e-247
1.94975e-248
4.93538e-249
1.71361e-250
4.68112e-251
1.41659e-252
4.1849e-253
1.09696e-254
3.51367e-255
7.91976e-257
2.75935e-257
5.30265e-259
2.01748e-259
3.27228e-261