/*--------------------------------*- C++ -*----------------------------------*\
| =========                 |                                                 |
| \\      /  F ield         | OpenFOAM: The Open Source CFD Toolbox           |
|  \\    /   O peration     | Version:  2412                                  |
|   \\  /    A nd           | Website:  www.openfoam.com                      |
|    \\/     M anipulation  |                                                 |
\*---------------------------------------------------------------------------*/
FoamFile
{
    version     2.0;
    format      ascii;
    arch        "LSB;label=32;scalar=64";
    class       volScalarField;
    location    "1.18";
    object      p;
}
// * * * * * * * * * * * * * * * * * * * * * * * * * * * * * * * * * * * * * //

dimensions      [1 -1 -2 0 0 0 0];

internalField   nonuniform List<scalar> 
40000
(
0
2.65929e-05
-3.80836e-05
-0.000200209
-0.000460583
-0.000819904
-0.00127779
-0.00183327
-0.00248549
-0.00323391
-0.00407797
-0.0050169
-0.00604971
-0.00717532
-0.00839266
-0.00970062
-0.011098
-0.0125836
-0.014156
-0.0158137
-0.0175551
-0.0193786
-0.0212824
-0.0232649
-0.0253241
-0.0274581
-0.0296649
-0.0319424
-0.0342883
-0.0367005
-0.0391766
-0.0417142
-0.0443109
-0.0469642
-0.0496715
-0.0524301
-0.0552373
-0.0580903
-0.0609863
-0.0639226
-0.0668961
-0.0699038
-0.0729428
-0.0760099
-0.079102
-0.0822161
-0.0853488
-0.0884971
-0.0916578
-0.0948275
-0.0980031
-0.101181
-0.104359
-0.107532
-0.110698
-0.113853
-0.116994
-0.120118
-0.123222
-0.126302
-0.129355
-0.132378
-0.135367
-0.13832
-0.141234
-0.144105
-0.14693
-0.149707
-0.152433
-0.155104
-0.157718
-0.160272
-0.162764
-0.165191
-0.167551
-0.16984
-0.172057
-0.174199
-0.176265
-0.178251
-0.180157
-0.181979
-0.183717
-0.185368
-0.186931
-0.188405
-0.189786
-0.191075
-0.192271
-0.193371
-0.194375
-0.195281
-0.196089
-0.196799
-0.197409
-0.197918
-0.198327
-0.198634
-0.19884
-0.198945
-0.198947
-0.198848
-0.198647
-0.198344
-0.197941
-0.197436
-0.196831
-0.196127
-0.195323
-0.194422
-0.193423
-0.192328
-0.191137
-0.189853
-0.188476
-0.187007
-0.185449
-0.183802
-0.182069
-0.180251
-0.17835
-0.176368
-0.174307
-0.172169
-0.169956
-0.167671
-0.165316
-0.162893
-0.160405
-0.157855
-0.155245
-0.152577
-0.149856
-0.147082
-0.14426
-0.141393
-0.138483
-0.135533
-0.132547
-0.129527
-0.126477
-0.1234
-0.1203
-0.117178
-0.11404
-0.110888
-0.107725
-0.104554
-0.10138
-0.0982043
-0.0950313
-0.0918641
-0.0887058
-0.0855599
-0.0824295
-0.0793178
-0.0762279
-0.073163
-0.0701261
-0.0671204
-0.0641488
-0.0612144
-0.0583202
-0.0554689
-0.0526634
-0.0499064
-0.0472007
-0.0445488
-0.0419535
-0.0394173
-0.0369425
-0.0345316
-0.0321869
-0.0299105
-0.0277049
-0.025572
-0.0235139
-0.0215324
-0.0196295
-0.0178068
-0.0160661
-0.014409
-0.0128374
-0.0113524
-0.00995543
-0.00864768
-0.00743054
-0.00630514
-0.00527237
-0.00433345
-0.00348878
-0.0027396
-0.00208642
-0.00152979
-0.0010703
-0.000708099
-0.000443512
-0.00027753
-0.000210644
-0.00024052
-3.92403
-3.924
-3.92406
-3.92422
-3.92448
-3.92484
-3.9253
-3.92586
-3.92651
-3.92726
-3.9281
-3.92904
-3.93007
-3.9312
-3.93242
-3.93372
-3.93512
-3.93661
-3.93818
-3.93984
-3.94158
-3.9434
-3.94531
-3.94729
-3.94935
-3.95148
-3.95369
-3.95596
-3.95831
-3.96072
-3.9632
-3.96574
-3.96833
-3.97099
-3.97369
-3.97645
-3.97926
-3.98211
-3.98501
-3.98794
-3.99091
-3.99392
-3.99696
-4.00003
-4.00312
-4.00623
-4.00936
-4.01251
-4.01567
-4.01884
-4.02201
-4.02519
-4.02837
-4.03154
-4.03471
-4.03786
-4.041
-4.04412
-4.04723
-4.0503
-4.05336
-4.05638
-4.05937
-4.06232
-4.06523
-4.0681
-4.07092
-4.0737
-4.07642
-4.07909
-4.08171
-4.08426
-4.08675
-4.08917
-4.09153
-4.09382
-4.09604
-4.09818
-4.10024
-4.10223
-4.10413
-4.10595
-4.10769
-4.10934
-4.1109
-4.11237
-4.11375
-4.11504
-4.11623
-4.11733
-4.11834
-4.11924
-4.12005
-4.12076
-4.12137
-4.12188
-4.12229
-4.12259
-4.1228
-4.1229
-4.12291
-4.12281
-4.1226
-4.1223
-4.1219
-4.1214
-4.12079
-4.12009
-4.11928
-4.11838
-4.11739
-4.11629
-4.1151
-4.11382
-4.11244
-4.11098
-4.10942
-4.10777
-4.10604
-4.10422
-4.10232
-4.10034
-4.09828
-4.09615
-4.09394
-4.09165
-4.0893
-4.08688
-4.08439
-4.08184
-4.07923
-4.07657
-4.07385
-4.07108
-4.06826
-4.06539
-4.06248
-4.05953
-4.05655
-4.05353
-4.05048
-4.0474
-4.0443
-4.04118
-4.03805
-4.0349
-4.03173
-4.02856
-4.02539
-4.02222
-4.01904
-4.01588
-4.01272
-4.00957
-4.00644
-4.00333
-4.00024
-3.99718
-3.99414
-3.99114
-3.98817
-3.98523
-3.98234
-3.97949
-3.97668
-3.97393
-3.97122
-3.96857
-3.96597
-3.96344
-3.96096
-3.95855
-3.95621
-3.95393
-3.95173
-3.94959
-3.94754
-3.94555
-3.94365
-3.94183
-3.94009
-3.93843
-3.93686
-3.93538
-3.93398
-3.93267
-3.93145
-3.93033
-3.9293
-3.92836
-3.92751
-3.92676
-3.92611
-3.92555
-3.92509
-3.92473
-3.92447
-3.9243
-3.92424
-3.92427
-7.84797
-7.84794
-7.848
-7.84816
-7.84842
-7.84878
-7.84924
-7.8498
-7.85045
-7.8512
-7.85205
-7.85299
-7.85402
-7.85514
-7.85636
-7.85767
-7.85907
-7.86056
-7.86213
-7.86379
-7.86553
-7.86736
-7.86926
-7.87125
-7.87331
-7.87544
-7.87765
-7.87993
-7.88228
-7.88469
-7.88717
-7.88971
-7.89231
-7.89496
-7.89767
-7.90043
-7.90324
-7.90609
-7.90899
-7.91193
-7.9149
-7.91791
-7.92095
-7.92402
-7.92712
-7.93023
-7.93337
-7.93652
-7.93968
-7.94285
-7.94603
-7.9492
-7.95238
-7.95556
-7.95872
-7.96188
-7.96502
-7.96815
-7.97125
-7.97433
-7.97739
-7.98041
-7.9834
-7.98635
-7.98927
-7.99214
-7.99496
-7.99774
-8.00047
-8.00314
-8.00575
-8.0083
-8.0108
-8.01322
-8.01558
-8.01787
-8.02009
-8.02223
-8.02429
-8.02628
-8.02818
-8.03001
-8.03174
-8.03339
-8.03496
-8.03643
-8.03781
-8.0391
-8.04029
-8.04139
-8.04239
-8.0433
-8.04411
-8.04482
-8.04543
-8.04594
-8.04634
-8.04665
-8.04686
-8.04696
-8.04696
-8.04686
-8.04666
-8.04636
-8.04596
-8.04545
-8.04485
-8.04415
-8.04334
-8.04244
-8.04144
-8.04035
-8.03916
-8.03788
-8.0365
-8.03503
-8.03347
-8.03183
-8.0301
-8.02828
-8.02638
-8.0244
-8.02234
-8.0202
-8.01799
-8.0157
-8.01335
-8.01092
-8.00844
-8.00589
-8.00328
-8.00061
-7.99789
-7.99512
-7.99229
-7.98943
-7.98652
-7.98357
-7.98058
-7.97756
-7.97451
-7.97143
-7.96833
-7.96521
-7.96207
-7.95892
-7.95575
-7.95258
-7.9494
-7.94623
-7.94305
-7.93988
-7.93672
-7.93358
-7.93045
-7.92733
-7.92424
-7.92117
-7.91814
-7.91513
-7.91216
-7.90922
-7.90632
-7.90347
-7.90066
-7.8979
-7.8952
-7.89254
-7.88995
-7.88741
-7.88493
-7.88252
-7.88017
-7.8779
-7.87569
-7.87355
-7.87149
-7.86951
-7.86761
-7.86578
-7.86404
-7.86238
-7.86081
-7.85932
-7.85793
-7.85662
-7.8554
-7.85427
-7.85324
-7.8523
-7.85146
-7.85071
-7.85005
-7.84949
-7.84903
-7.84867
-7.84841
-7.84824
-7.84818
-7.84821
-11.7718
-11.7718
-11.7718
-11.772
-11.7723
-11.7726
-11.7731
-11.7736
-11.7743
-11.7751
-11.7759
-11.7768
-11.7779
-11.779
-11.7802
-11.7815
-11.7829
-11.7844
-11.786
-11.7877
-11.7894
-11.7912
-11.7931
-11.7951
-11.7972
-11.7993
-11.8015
-11.8038
-11.8062
-11.8086
-11.8111
-11.8136
-11.8162
-11.8189
-11.8216
-11.8244
-11.8272
-11.83
-11.8329
-11.8359
-11.8389
-11.8419
-11.8449
-11.848
-11.8511
-11.8542
-11.8574
-11.8605
-11.8637
-11.8669
-11.87
-11.8732
-11.8764
-11.8796
-11.8828
-11.8859
-11.8891
-11.8922
-11.8953
-11.8984
-11.9014
-11.9045
-11.9075
-11.9104
-11.9133
-11.9162
-11.9191
-11.9218
-11.9246
-11.9272
-11.9299
-11.9324
-11.9349
-11.9373
-11.9397
-11.942
-11.9442
-11.9464
-11.9484
-11.9504
-11.9523
-11.9542
-11.9559
-11.9575
-11.9591
-11.9606
-11.962
-11.9633
-11.9645
-11.9656
-11.9666
-11.9675
-11.9683
-11.969
-11.9696
-11.9701
-11.9705
-11.9708
-11.971
-11.9711
-11.9711
-11.971
-11.9708
-11.9705
-11.9701
-11.9696
-11.969
-11.9683
-11.9675
-11.9666
-11.9656
-11.9645
-11.9633
-11.962
-11.9607
-11.9592
-11.9576
-11.956
-11.9542
-11.9524
-11.9505
-11.9485
-11.9465
-11.9443
-11.9421
-11.9398
-11.9375
-11.935
-11.9326
-11.93
-11.9274
-11.9247
-11.922
-11.9192
-11.9164
-11.9135
-11.9106
-11.9076
-11.9046
-11.9016
-11.8986
-11.8955
-11.8924
-11.8892
-11.8861
-11.8829
-11.8798
-11.8766
-11.8734
-11.8702
-11.8671
-11.8639
-11.8607
-11.8576
-11.8544
-11.8513
-11.8482
-11.8451
-11.8421
-11.8391
-11.8361
-11.8332
-11.8303
-11.8274
-11.8246
-11.8218
-11.8191
-11.8165
-11.8139
-11.8113
-11.8088
-11.8064
-11.8041
-11.8018
-11.7996
-11.7974
-11.7954
-11.7934
-11.7915
-11.7897
-11.7879
-11.7863
-11.7847
-11.7832
-11.7818
-11.7805
-11.7793
-11.7781
-11.7771
-11.7762
-11.7753
-11.7746
-11.7739
-11.7733
-11.7729
-11.7725
-11.7723
-11.7721
-11.772
-11.7721
-15.6956
-15.6955
-15.6956
-15.6958
-15.696
-15.6964
-15.6968
-15.6974
-15.6981
-15.6988
-15.6997
-15.7006
-15.7016
-15.7028
-15.704
-15.7053
-15.7067
-15.7082
-15.7098
-15.7115
-15.7132
-15.715
-15.7169
-15.7189
-15.721
-15.7232
-15.7254
-15.7277
-15.73
-15.7324
-15.7349
-15.7375
-15.7401
-15.7428
-15.7455
-15.7482
-15.7511
-15.7539
-15.7568
-15.7598
-15.7628
-15.7658
-15.7689
-15.7719
-15.775
-15.7782
-15.7813
-15.7845
-15.7877
-15.7908
-15.794
-15.7972
-15.8004
-15.8036
-15.8068
-15.81
-15.8131
-15.8163
-15.8194
-15.8225
-15.8255
-15.8286
-15.8316
-15.8345
-15.8375
-15.8404
-15.8432
-15.846
-15.8487
-15.8514
-15.854
-15.8566
-15.8591
-15.8615
-15.8639
-15.8662
-15.8684
-15.8706
-15.8727
-15.8747
-15.8766
-15.8784
-15.8801
-15.8818
-15.8834
-15.8848
-15.8862
-15.8875
-15.8887
-15.8898
-15.8908
-15.8918
-15.8926
-15.8933
-15.8939
-15.8944
-15.8948
-15.8951
-15.8953
-15.8954
-15.8954
-15.8953
-15.8951
-15.8948
-15.8944
-15.8939
-15.8933
-15.8926
-15.8918
-15.8909
-15.8899
-15.8888
-15.8876
-15.8863
-15.8849
-15.8834
-15.8819
-15.8802
-15.8785
-15.8767
-15.8748
-15.8728
-15.8707
-15.8685
-15.8663
-15.864
-15.8617
-15.8592
-15.8567
-15.8542
-15.8516
-15.8489
-15.8461
-15.8434
-15.8405
-15.8376
-15.8347
-15.8317
-15.8287
-15.8257
-15.8227
-15.8196
-15.8164
-15.8133
-15.8102
-15.807
-15.8038
-15.8006
-15.7974
-15.7942
-15.7911
-15.7879
-15.7847
-15.7815
-15.7784
-15.7753
-15.7722
-15.7691
-15.766
-15.763
-15.76
-15.7571
-15.7542
-15.7513
-15.7485
-15.7457
-15.743
-15.7403
-15.7377
-15.7352
-15.7327
-15.7303
-15.7279
-15.7256
-15.7234
-15.7213
-15.7192
-15.7172
-15.7153
-15.7135
-15.7117
-15.71
-15.7085
-15.707
-15.7056
-15.7043
-15.703
-15.7019
-15.7009
-15.6999
-15.6991
-15.6983
-15.6977
-15.6971
-15.6966
-15.6963
-15.696
-15.6958
-15.6958
-15.6958
-19.6192
-19.6192
-19.6193
-19.6194
-19.6197
-19.6201
-19.6205
-19.6211
-19.6217
-19.6225
-19.6233
-19.6243
-19.6253
-19.6265
-19.6277
-19.629
-19.6304
-19.6319
-19.6335
-19.6352
-19.6369
-19.6388
-19.6407
-19.6427
-19.6448
-19.6469
-19.6491
-19.6514
-19.6538
-19.6562
-19.6587
-19.6613
-19.6639
-19.6666
-19.6693
-19.6721
-19.6749
-19.6778
-19.6807
-19.6837
-19.6867
-19.6897
-19.6928
-19.6959
-19.699
-19.7021
-19.7053
-19.7085
-19.7116
-19.7148
-19.718
-19.7212
-19.7245
-19.7277
-19.7308
-19.734
-19.7372
-19.7404
-19.7435
-19.7466
-19.7497
-19.7527
-19.7557
-19.7587
-19.7616
-19.7645
-19.7674
-19.7702
-19.7729
-19.7756
-19.7783
-19.7808
-19.7834
-19.7858
-19.7882
-19.7905
-19.7927
-19.7949
-19.797
-19.799
-19.8009
-19.8027
-19.8045
-19.8061
-19.8077
-19.8092
-19.8106
-19.8119
-19.8131
-19.8142
-19.8152
-19.8161
-19.817
-19.8177
-19.8183
-19.8188
-19.8192
-19.8195
-19.8197
-19.8198
-19.8198
-19.8197
-19.8195
-19.8192
-19.8188
-19.8183
-19.8177
-19.817
-19.8162
-19.8153
-19.8143
-19.8132
-19.812
-19.8107
-19.8093
-19.8078
-19.8062
-19.8046
-19.8028
-19.801
-19.7991
-19.7971
-19.795
-19.7928
-19.7906
-19.7883
-19.7859
-19.7835
-19.781
-19.7784
-19.7758
-19.7731
-19.7703
-19.7675
-19.7647
-19.7618
-19.7589
-19.7559
-19.7529
-19.7498
-19.7468
-19.7437
-19.7405
-19.7374
-19.7342
-19.731
-19.7278
-19.7247
-19.7214
-19.7182
-19.715
-19.7119
-19.7087
-19.7055
-19.7023
-19.6992
-19.6961
-19.693
-19.6899
-19.6869
-19.6839
-19.6809
-19.678
-19.6751
-19.6723
-19.6695
-19.6668
-19.6641
-19.6615
-19.659
-19.6565
-19.654
-19.6517
-19.6494
-19.6472
-19.645
-19.6429
-19.6409
-19.639
-19.6372
-19.6354
-19.6337
-19.6322
-19.6307
-19.6293
-19.6279
-19.6267
-19.6256
-19.6245
-19.6236
-19.6227
-19.622
-19.6213
-19.6208
-19.6203
-19.6199
-19.6197
-19.6195
-19.6194
-19.6195
-23.5428
-23.5428
-23.5428
-23.543
-23.5433
-23.5436
-23.5441
-23.5447
-23.5453
-23.5461
-23.5469
-23.5479
-23.5489
-23.5501
-23.5513
-23.5526
-23.554
-23.5555
-23.5571
-23.5588
-23.5606
-23.5624
-23.5643
-23.5663
-23.5684
-23.5706
-23.5728
-23.5751
-23.5775
-23.5799
-23.5825
-23.585
-23.5877
-23.5903
-23.5931
-23.5959
-23.5987
-23.6016
-23.6045
-23.6075
-23.6105
-23.6136
-23.6167
-23.6198
-23.6229
-23.626
-23.6292
-23.6324
-23.6356
-23.6388
-23.642
-23.6453
-23.6485
-23.6517
-23.6549
-23.6581
-23.6613
-23.6645
-23.6676
-23.6707
-23.6738
-23.6769
-23.6799
-23.6829
-23.6859
-23.6888
-23.6916
-23.6945
-23.6972
-23.6999
-23.7026
-23.7052
-23.7077
-23.7101
-23.7125
-23.7149
-23.7171
-23.7193
-23.7214
-23.7234
-23.7253
-23.7272
-23.7289
-23.7306
-23.7322
-23.7337
-23.7351
-23.7364
-23.7376
-23.7387
-23.7397
-23.7406
-23.7415
-23.7422
-23.7428
-23.7433
-23.7437
-23.744
-23.7442
-23.7444
-23.7444
-23.7443
-23.7441
-23.7437
-23.7433
-23.7428
-23.7422
-23.7415
-23.7407
-23.7398
-23.7388
-23.7376
-23.7364
-23.7351
-23.7337
-23.7323
-23.7307
-23.729
-23.7273
-23.7254
-23.7235
-23.7215
-23.7194
-23.7172
-23.715
-23.7127
-23.7103
-23.7078
-23.7053
-23.7027
-23.7001
-23.6974
-23.6946
-23.6918
-23.6889
-23.686
-23.6831
-23.6801
-23.6771
-23.674
-23.6709
-23.6678
-23.6646
-23.6615
-23.6583
-23.6551
-23.6519
-23.6487
-23.6455
-23.6422
-23.639
-23.6358
-23.6326
-23.6294
-23.6263
-23.6231
-23.62
-23.6169
-23.6138
-23.6108
-23.6077
-23.6048
-23.6018
-23.599
-23.5961
-23.5933
-23.5906
-23.5879
-23.5853
-23.5827
-23.5802
-23.5777
-23.5754
-23.5731
-23.5708
-23.5687
-23.5666
-23.5646
-23.5627
-23.5608
-23.5591
-23.5574
-23.5558
-23.5543
-23.5529
-23.5515
-23.5503
-23.5492
-23.5481
-23.5472
-23.5463
-23.5456
-23.5449
-23.5443
-23.5439
-23.5435
-23.5432
-23.5431
-23.543
-23.543
-27.4663
-27.4662
-27.4663
-27.4665
-27.4667
-27.4671
-27.4676
-27.4681
-27.4688
-27.4696
-27.4704
-27.4714
-27.4724
-27.4736
-27.4748
-27.4761
-27.4776
-27.4791
-27.4807
-27.4824
-27.4841
-27.486
-27.4879
-27.4899
-27.492
-27.4942
-27.4964
-27.4988
-27.5012
-27.5036
-27.5061
-27.5087
-27.5114
-27.5141
-27.5168
-27.5196
-27.5225
-27.5254
-27.5283
-27.5313
-27.5344
-27.5374
-27.5405
-27.5436
-27.5468
-27.55
-27.5532
-27.5564
-27.5596
-27.5628
-27.566
-27.5693
-27.5725
-27.5758
-27.579
-27.5822
-27.5854
-27.5886
-27.5918
-27.5949
-27.598
-27.6011
-27.6041
-27.6072
-27.6101
-27.6131
-27.6159
-27.6188
-27.6215
-27.6243
-27.6269
-27.6295
-27.6321
-27.6346
-27.637
-27.6393
-27.6416
-27.6437
-27.6459
-27.6479
-27.6498
-27.6517
-27.6535
-27.6551
-27.6567
-27.6582
-27.6596
-27.661
-27.6622
-27.6633
-27.6643
-27.6653
-27.6661
-27.6668
-27.6674
-27.6679
-27.6684
-27.6687
-27.6689
-27.669
-27.669
-27.6689
-27.6687
-27.6684
-27.668
-27.6674
-27.6668
-27.6661
-27.6653
-27.6644
-27.6634
-27.6622
-27.661
-27.6597
-27.6583
-27.6568
-27.6552
-27.6535
-27.6518
-27.6499
-27.648
-27.646
-27.6439
-27.6417
-27.6394
-27.6371
-27.6347
-27.6322
-27.6297
-27.6271
-27.6244
-27.6217
-27.6189
-27.6161
-27.6132
-27.6103
-27.6073
-27.6043
-27.6013
-27.5982
-27.5951
-27.5919
-27.5888
-27.5856
-27.5824
-27.5792
-27.576
-27.5727
-27.5695
-27.5662
-27.563
-27.5598
-27.5566
-27.5534
-27.5502
-27.547
-27.5439
-27.5407
-27.5376
-27.5346
-27.5316
-27.5286
-27.5256
-27.5227
-27.5199
-27.517
-27.5143
-27.5116
-27.509
-27.5064
-27.5039
-27.5014
-27.499
-27.4967
-27.4945
-27.4923
-27.4902
-27.4882
-27.4862
-27.4844
-27.4826
-27.4809
-27.4793
-27.4778
-27.4764
-27.4751
-27.4738
-27.4727
-27.4716
-27.4707
-27.4698
-27.4691
-27.4684
-27.4678
-27.4674
-27.467
-27.4667
-27.4666
-27.4665
-27.4665
-31.3896
-31.3896
-31.3897
-31.3899
-31.3901
-31.3905
-31.391
-31.3915
-31.3922
-31.393
-31.3938
-31.3948
-31.3958
-31.397
-31.3982
-31.3996
-31.401
-31.4025
-31.4041
-31.4058
-31.4076
-31.4095
-31.4114
-31.4135
-31.4156
-31.4177
-31.42
-31.4223
-31.4247
-31.4272
-31.4297
-31.4323
-31.435
-31.4377
-31.4405
-31.4433
-31.4462
-31.4491
-31.4521
-31.4551
-31.4581
-31.4612
-31.4643
-31.4675
-31.4707
-31.4738
-31.4771
-31.4803
-31.4835
-31.4868
-31.49
-31.4933
-31.4966
-31.4998
-31.5031
-31.5063
-31.5095
-31.5127
-31.5159
-31.5191
-31.5222
-31.5253
-31.5284
-31.5314
-31.5344
-31.5374
-31.5403
-31.5431
-31.5459
-31.5487
-31.5514
-31.554
-31.5565
-31.559
-31.5615
-31.5638
-31.5661
-31.5683
-31.5704
-31.5725
-31.5744
-31.5763
-31.5781
-31.5798
-31.5814
-31.5829
-31.5843
-31.5856
-31.5869
-31.588
-31.589
-31.59
-31.5908
-31.5915
-31.5922
-31.5927
-31.5931
-31.5934
-31.5936
-31.5937
-31.5937
-31.5936
-31.5934
-31.5931
-31.5927
-31.5922
-31.5916
-31.5908
-31.59
-31.5891
-31.5881
-31.5869
-31.5857
-31.5844
-31.583
-31.5815
-31.5799
-31.5782
-31.5764
-31.5745
-31.5726
-31.5705
-31.5684
-31.5662
-31.5639
-31.5616
-31.5592
-31.5567
-31.5541
-31.5515
-31.5488
-31.5461
-31.5433
-31.5404
-31.5375
-31.5346
-31.5316
-31.5286
-31.5255
-31.5224
-31.5193
-31.5161
-31.5129
-31.5097
-31.5065
-31.5033
-31.5
-31.4968
-31.4935
-31.4902
-31.487
-31.4837
-31.4805
-31.4773
-31.4741
-31.4709
-31.4677
-31.4646
-31.4614
-31.4584
-31.4553
-31.4523
-31.4493
-31.4464
-31.4436
-31.4407
-31.438
-31.4352
-31.4326
-31.43
-31.4275
-31.425
-31.4226
-31.4203
-31.418
-31.4158
-31.4137
-31.4117
-31.4097
-31.4079
-31.4061
-31.4044
-31.4028
-31.4013
-31.3998
-31.3985
-31.3973
-31.3961
-31.395
-31.3941
-31.3932
-31.3925
-31.3918
-31.3912
-31.3908
-31.3904
-31.3901
-31.3899
-31.3899
-31.3899
-35.3129
-35.3129
-35.313
-35.3132
-35.3134
-35.3138
-35.3143
-35.3148
-35.3155
-35.3163
-35.3172
-35.3181
-35.3192
-35.3203
-35.3216
-35.3229
-35.3244
-35.3259
-35.3275
-35.3292
-35.331
-35.3329
-35.3349
-35.3369
-35.339
-35.3412
-35.3435
-35.3458
-35.3483
-35.3507
-35.3533
-35.3559
-35.3586
-35.3613
-35.3641
-35.367
-35.3699
-35.3728
-35.3758
-35.3788
-35.3819
-35.385
-35.3881
-35.3913
-35.3945
-35.3977
-35.401
-35.4042
-35.4075
-35.4108
-35.414
-35.4173
-35.4206
-35.4239
-35.4272
-35.4304
-35.4337
-35.4369
-35.4401
-35.4433
-35.4465
-35.4496
-35.4527
-35.4558
-35.4588
-35.4618
-35.4647
-35.4676
-35.4704
-35.4731
-35.4759
-35.4785
-35.4811
-35.4836
-35.486
-35.4884
-35.4907
-35.4929
-35.4951
-35.4971
-35.4991
-35.501
-35.5028
-35.5045
-35.5061
-35.5077
-35.5091
-35.5104
-35.5117
-35.5128
-35.5139
-35.5148
-35.5156
-35.5164
-35.517
-35.5175
-35.518
-35.5183
-35.5185
-35.5186
-35.5186
-35.5185
-35.5183
-35.518
-35.5176
-35.517
-35.5164
-35.5157
-35.5148
-35.5139
-35.5129
-35.5117
-35.5105
-35.5092
-35.5077
-35.5062
-35.5046
-35.5029
-35.5011
-35.4992
-35.4972
-35.4952
-35.4931
-35.4908
-35.4885
-35.4862
-35.4837
-35.4812
-35.4786
-35.476
-35.4733
-35.4705
-35.4677
-35.4648
-35.4619
-35.4589
-35.4559
-35.4529
-35.4498
-35.4467
-35.4435
-35.4403
-35.4371
-35.4339
-35.4306
-35.4274
-35.4241
-35.4208
-35.4175
-35.4142
-35.411
-35.4077
-35.4044
-35.4012
-35.3979
-35.3947
-35.3915
-35.3884
-35.3852
-35.3821
-35.3791
-35.376
-35.373
-35.3701
-35.3672
-35.3644
-35.3616
-35.3588
-35.3562
-35.3535
-35.351
-35.3485
-35.3461
-35.3437
-35.3415
-35.3393
-35.3372
-35.3351
-35.3332
-35.3313
-35.3295
-35.3278
-35.3262
-35.3246
-35.3232
-35.3218
-35.3206
-35.3194
-35.3184
-35.3174
-35.3165
-35.3158
-35.3151
-35.3145
-35.3141
-35.3137
-35.3134
-35.3132
-35.3132
-35.3132
-39.2361
-39.2361
-39.2362
-39.2364
-39.2366
-39.237
-39.2375
-39.2381
-39.2387
-39.2395
-39.2404
-39.2414
-39.2424
-39.2436
-39.2449
-39.2462
-39.2477
-39.2492
-39.2508
-39.2525
-39.2544
-39.2562
-39.2582
-39.2603
-39.2624
-39.2646
-39.2669
-39.2693
-39.2717
-39.2742
-39.2768
-39.2794
-39.2821
-39.2849
-39.2877
-39.2906
-39.2935
-39.2965
-39.2995
-39.3025
-39.3056
-39.3088
-39.3119
-39.3151
-39.3183
-39.3216
-39.3248
-39.3281
-39.3314
-39.3347
-39.338
-39.3413
-39.3447
-39.348
-39.3513
-39.3546
-39.3578
-39.3611
-39.3644
-39.3676
-39.3708
-39.3739
-39.377
-39.3801
-39.3832
-39.3862
-39.3891
-39.392
-39.3949
-39.3977
-39.4004
-39.4031
-39.4057
-39.4082
-39.4107
-39.4131
-39.4154
-39.4177
-39.4198
-39.4219
-39.4239
-39.4258
-39.4276
-39.4294
-39.431
-39.4325
-39.434
-39.4353
-39.4366
-39.4377
-39.4388
-39.4398
-39.4406
-39.4413
-39.442
-39.4425
-39.4429
-39.4433
-39.4435
-39.4436
-39.4436
-39.4435
-39.4433
-39.443
-39.4425
-39.442
-39.4414
-39.4406
-39.4398
-39.4388
-39.4378
-39.4367
-39.4354
-39.4341
-39.4326
-39.4311
-39.4294
-39.4277
-39.4259
-39.424
-39.422
-39.4199
-39.4178
-39.4155
-39.4132
-39.4108
-39.4084
-39.4058
-39.4032
-39.4006
-39.3978
-39.395
-39.3922
-39.3893
-39.3863
-39.3833
-39.3803
-39.3772
-39.3741
-39.3709
-39.3677
-39.3645
-39.3613
-39.358
-39.3548
-39.3515
-39.3482
-39.3449
-39.3415
-39.3382
-39.3349
-39.3316
-39.3283
-39.3251
-39.3218
-39.3186
-39.3153
-39.3121
-39.309
-39.3058
-39.3028
-39.2997
-39.2967
-39.2937
-39.2908
-39.2879
-39.2851
-39.2824
-39.2797
-39.277
-39.2745
-39.272
-39.2695
-39.2672
-39.2649
-39.2627
-39.2605
-39.2585
-39.2565
-39.2546
-39.2528
-39.2511
-39.2495
-39.2479
-39.2465
-39.2451
-39.2439
-39.2427
-39.2416
-39.2406
-39.2398
-39.239
-39.2383
-39.2377
-39.2373
-39.2369
-39.2366
-39.2364
-39.2364
-39.2364
-43.1592
-43.1592
-43.1593
-43.1595
-43.1597
-43.1601
-43.1606
-43.1612
-43.1619
-43.1626
-43.1635
-43.1645
-43.1656
-43.1668
-43.168
-43.1694
-43.1709
-43.1724
-43.1741
-43.1758
-43.1776
-43.1795
-43.1815
-43.1836
-43.1857
-43.188
-43.1903
-43.1927
-43.1951
-43.1976
-43.2002
-43.2029
-43.2056
-43.2084
-43.2112
-43.2141
-43.2171
-43.2201
-43.2231
-43.2262
-43.2293
-43.2325
-43.2357
-43.2389
-43.2421
-43.2454
-43.2487
-43.252
-43.2553
-43.2587
-43.262
-43.2654
-43.2687
-43.2721
-43.2754
-43.2787
-43.282
-43.2853
-43.2886
-43.2919
-43.2951
-43.2983
-43.3014
-43.3045
-43.3076
-43.3107
-43.3136
-43.3166
-43.3195
-43.3223
-43.325
-43.3277
-43.3304
-43.3329
-43.3354
-43.3379
-43.3402
-43.3425
-43.3447
-43.3468
-43.3488
-43.3507
-43.3526
-43.3543
-43.356
-43.3575
-43.359
-43.3604
-43.3616
-43.3628
-43.3638
-43.3648
-43.3657
-43.3664
-43.3671
-43.3676
-43.368
-43.3684
-43.3686
-43.3687
-43.3687
-43.3686
-43.3684
-43.3681
-43.3676
-43.3671
-43.3665
-43.3657
-43.3649
-43.3639
-43.3628
-43.3617
-43.3604
-43.3591
-43.3576
-43.356
-43.3544
-43.3526
-43.3508
-43.3489
-43.3469
-43.3448
-43.3426
-43.3403
-43.338
-43.3356
-43.3331
-43.3305
-43.3279
-43.3252
-43.3224
-43.3196
-43.3167
-43.3138
-43.3108
-43.3078
-43.3047
-43.3016
-43.2984
-43.2953
-43.292
-43.2888
-43.2855
-43.2822
-43.2789
-43.2756
-43.2723
-43.2689
-43.2656
-43.2622
-43.2589
-43.2556
-43.2522
-43.2489
-43.2456
-43.2424
-43.2391
-43.2359
-43.2327
-43.2295
-43.2264
-43.2233
-43.2203
-43.2173
-43.2144
-43.2115
-43.2086
-43.2059
-43.2031
-43.2005
-43.1979
-43.1954
-43.1929
-43.1905
-43.1882
-43.186
-43.1838
-43.1818
-43.1798
-43.1779
-43.176
-43.1743
-43.1727
-43.1711
-43.1697
-43.1683
-43.167
-43.1658
-43.1648
-43.1638
-43.1629
-43.1621
-43.1614
-43.1609
-43.1604
-43.16
-43.1597
-43.1595
-43.1595
-43.1595
-47.0823
-47.0822
-47.0823
-47.0825
-47.0828
-47.0831
-47.0836
-47.0842
-47.0849
-47.0857
-47.0866
-47.0876
-47.0886
-47.0898
-47.0911
-47.0925
-47.094
-47.0955
-47.0972
-47.0989
-47.1008
-47.1027
-47.1047
-47.1068
-47.109
-47.1112
-47.1136
-47.116
-47.1184
-47.121
-47.1236
-47.1263
-47.129
-47.1319
-47.1347
-47.1376
-47.1406
-47.1436
-47.1467
-47.1498
-47.153
-47.1562
-47.1594
-47.1626
-47.1659
-47.1692
-47.1726
-47.1759
-47.1793
-47.1826
-47.186
-47.1894
-47.1928
-47.1962
-47.1995
-47.2029
-47.2062
-47.2096
-47.2129
-47.2162
-47.2194
-47.2226
-47.2258
-47.229
-47.2321
-47.2352
-47.2382
-47.2412
-47.2441
-47.2469
-47.2497
-47.2525
-47.2551
-47.2577
-47.2603
-47.2627
-47.2651
-47.2674
-47.2696
-47.2717
-47.2738
-47.2757
-47.2776
-47.2794
-47.281
-47.2826
-47.2841
-47.2855
-47.2868
-47.2879
-47.289
-47.29
-47.2909
-47.2916
-47.2923
-47.2928
-47.2933
-47.2936
-47.2938
-47.2939
-47.2939
-47.2938
-47.2936
-47.2933
-47.2928
-47.2923
-47.2917
-47.2909
-47.29
-47.2891
-47.288
-47.2868
-47.2855
-47.2842
-47.2827
-47.2811
-47.2794
-47.2777
-47.2758
-47.2739
-47.2718
-47.2697
-47.2675
-47.2652
-47.2628
-47.2604
-47.2579
-47.2553
-47.2526
-47.2499
-47.2471
-47.2442
-47.2413
-47.2384
-47.2353
-47.2323
-47.2292
-47.226
-47.2228
-47.2196
-47.2163
-47.2131
-47.2098
-47.2064
-47.2031
-47.1997
-47.1964
-47.193
-47.1896
-47.1862
-47.1828
-47.1795
-47.1761
-47.1728
-47.1694
-47.1661
-47.1629
-47.1596
-47.1564
-47.1532
-47.15
-47.1469
-47.1439
-47.1408
-47.1379
-47.135
-47.1321
-47.1293
-47.1265
-47.1239
-47.1212
-47.1187
-47.1162
-47.1138
-47.1115
-47.1092
-47.1071
-47.105
-47.103
-47.101
-47.0992
-47.0974
-47.0958
-47.0942
-47.0928
-47.0914
-47.0901
-47.0889
-47.0878
-47.0868
-47.0859
-47.0852
-47.0845
-47.0839
-47.0834
-47.083
-47.0827
-47.0826
-47.0825
-47.0825
-51.0052
-51.0051
-51.0052
-51.0054
-51.0057
-51.0061
-51.0065
-51.0071
-51.0078
-51.0086
-51.0095
-51.0105
-51.0116
-51.0128
-51.0141
-51.0155
-51.017
-51.0186
-51.0202
-51.022
-51.0239
-51.0258
-51.0278
-51.03
-51.0321
-51.0344
-51.0368
-51.0392
-51.0417
-51.0443
-51.0469
-51.0496
-51.0524
-51.0552
-51.0581
-51.0611
-51.0641
-51.0672
-51.0703
-51.0734
-51.0766
-51.0798
-51.0831
-51.0864
-51.0897
-51.093
-51.0964
-51.0998
-51.1032
-51.1066
-51.11
-51.1134
-51.1168
-51.1203
-51.1237
-51.1271
-51.1305
-51.1338
-51.1372
-51.1405
-51.1438
-51.1471
-51.1503
-51.1535
-51.1566
-51.1598
-51.1628
-51.1658
-51.1688
-51.1717
-51.1745
-51.1773
-51.18
-51.1826
-51.1852
-51.1876
-51.19
-51.1924
-51.1946
-51.1968
-51.1988
-51.2008
-51.2027
-51.2045
-51.2062
-51.2078
-51.2093
-51.2107
-51.212
-51.2132
-51.2143
-51.2153
-51.2162
-51.2169
-51.2176
-51.2182
-51.2186
-51.2189
-51.2192
-51.2193
-51.2193
-51.2192
-51.2189
-51.2186
-51.2182
-51.2176
-51.217
-51.2162
-51.2153
-51.2143
-51.2133
-51.2121
-51.2108
-51.2094
-51.2079
-51.2063
-51.2046
-51.2028
-51.2009
-51.1989
-51.1969
-51.1947
-51.1925
-51.1902
-51.1878
-51.1853
-51.1827
-51.1801
-51.1774
-51.1746
-51.1718
-51.1689
-51.166
-51.163
-51.1599
-51.1568
-51.1537
-51.1505
-51.1472
-51.144
-51.1407
-51.1374
-51.134
-51.1306
-51.1273
-51.1239
-51.1205
-51.117
-51.1136
-51.1102
-51.1068
-51.1034
-51.1
-51.0966
-51.0932
-51.0899
-51.0866
-51.0833
-51.08
-51.0768
-51.0736
-51.0705
-51.0674
-51.0643
-51.0613
-51.0584
-51.0555
-51.0527
-51.0499
-51.0472
-51.0445
-51.042
-51.0395
-51.037
-51.0347
-51.0324
-51.0302
-51.0281
-51.0261
-51.0241
-51.0223
-51.0205
-51.0188
-51.0173
-51.0158
-51.0144
-51.0131
-51.0119
-51.0108
-51.0098
-51.0089
-51.0081
-51.0074
-51.0068
-51.0063
-51.0059
-51.0057
-51.0055
-51.0054
-51.0054
-54.928
-54.928
-54.928
-54.9282
-54.9285
-54.9289
-54.9294
-54.93
-54.9307
-54.9315
-54.9324
-54.9334
-54.9345
-54.9357
-54.937
-54.9384
-54.9399
-54.9415
-54.9432
-54.945
-54.9469
-54.9488
-54.9509
-54.953
-54.9552
-54.9575
-54.9599
-54.9624
-54.9649
-54.9675
-54.9702
-54.9729
-54.9757
-54.9786
-54.9815
-54.9845
-54.9875
-54.9906
-54.9938
-54.9969
-55.0002
-55.0034
-55.0067
-55.0101
-55.0134
-55.0168
-55.0202
-55.0236
-55.0271
-55.0305
-55.034
-55.0374
-55.0409
-55.0444
-55.0478
-55.0513
-55.0547
-55.0581
-55.0615
-55.0649
-55.0682
-55.0715
-55.0748
-55.078
-55.0812
-55.0844
-55.0875
-55.0905
-55.0935
-55.0965
-55.0993
-55.1021
-55.1049
-55.1075
-55.1101
-55.1127
-55.1151
-55.1175
-55.1197
-55.1219
-55.124
-55.126
-55.1279
-55.1298
-55.1315
-55.1331
-55.1346
-55.1361
-55.1374
-55.1386
-55.1397
-55.1407
-55.1416
-55.1424
-55.143
-55.1436
-55.1441
-55.1444
-55.1446
-55.1447
-55.1447
-55.1446
-55.1444
-55.1441
-55.1436
-55.1431
-55.1424
-55.1416
-55.1407
-55.1397
-55.1386
-55.1374
-55.1361
-55.1347
-55.1332
-55.1316
-55.1298
-55.128
-55.1261
-55.1241
-55.122
-55.1198
-55.1176
-55.1152
-55.1128
-55.1103
-55.1077
-55.105
-55.1023
-55.0995
-55.0966
-55.0937
-55.0907
-55.0876
-55.0845
-55.0814
-55.0782
-55.075
-55.0717
-55.0684
-55.0651
-55.0617
-55.0583
-55.0549
-55.0515
-55.048
-55.0446
-55.0411
-55.0377
-55.0342
-55.0307
-55.0273
-55.0238
-55.0204
-55.017
-55.0136
-55.0103
-55.007
-55.0037
-55.0004
-54.9972
-54.994
-54.9909
-54.9878
-54.9847
-54.9818
-54.9788
-54.976
-54.9732
-54.9704
-54.9678
-54.9652
-54.9626
-54.9602
-54.9578
-54.9555
-54.9533
-54.9511
-54.9491
-54.9471
-54.9453
-54.9435
-54.9418
-54.9402
-54.9387
-54.9373
-54.936
-54.9348
-54.9337
-54.9327
-54.9317
-54.9309
-54.9302
-54.9296
-54.9291
-54.9288
-54.9285
-54.9283
-54.9282
-54.9283
-58.8507
-58.8507
-58.8508
-58.8509
-58.8512
-58.8516
-58.8521
-58.8527
-58.8534
-58.8542
-58.8552
-58.8562
-58.8573
-58.8585
-58.8598
-58.8613
-58.8628
-58.8644
-58.8661
-58.8679
-58.8698
-58.8718
-58.8739
-58.876
-58.8783
-58.8806
-58.883
-58.8855
-58.888
-58.8907
-58.8934
-58.8961
-58.899
-58.9019
-58.9048
-58.9079
-58.9109
-58.9141
-58.9172
-58.9205
-58.9237
-58.927
-58.9304
-58.9337
-58.9371
-58.9406
-58.944
-58.9475
-58.951
-58.9545
-58.958
-58.9615
-58.965
-58.9685
-58.972
-58.9755
-58.979
-58.9824
-58.9859
-58.9893
-58.9927
-58.996
-58.9993
-59.0026
-59.0059
-59.0091
-59.0122
-59.0153
-59.0183
-59.0213
-59.0242
-59.0271
-59.0299
-59.0326
-59.0352
-59.0378
-59.0402
-59.0426
-59.0449
-59.0472
-59.0493
-59.0513
-59.0533
-59.0551
-59.0569
-59.0585
-59.0601
-59.0615
-59.0629
-59.0641
-59.0652
-59.0662
-59.0671
-59.0679
-59.0686
-59.0692
-59.0696
-59.07
-59.0702
-59.0703
-59.0703
-59.0702
-59.07
-59.0697
-59.0692
-59.0686
-59.068
-59.0672
-59.0663
-59.0653
-59.0641
-59.0629
-59.0616
-59.0601
-59.0586
-59.057
-59.0552
-59.0534
-59.0514
-59.0494
-59.0473
-59.045
-59.0427
-59.0403
-59.0379
-59.0353
-59.0327
-59.03
-59.0272
-59.0244
-59.0215
-59.0185
-59.0154
-59.0124
-59.0092
-59.006
-59.0028
-58.9995
-58.9962
-58.9928
-58.9895
-58.986
-58.9826
-58.9792
-58.9757
-58.9722
-58.9687
-58.9652
-58.9617
-58.9582
-58.9547
-58.9512
-58.9477
-58.9442
-58.9408
-58.9374
-58.934
-58.9306
-58.9273
-58.924
-58.9207
-58.9175
-58.9143
-58.9112
-58.9081
-58.9051
-58.9021
-58.8992
-58.8964
-58.8936
-58.8909
-58.8883
-58.8857
-58.8832
-58.8808
-58.8785
-58.8763
-58.8741
-58.872
-58.8701
-58.8682
-58.8664
-58.8647
-58.863
-58.8615
-58.8601
-58.8588
-58.8576
-58.8564
-58.8554
-58.8545
-58.8537
-58.853
-58.8524
-58.8519
-58.8515
-58.8512
-58.851
-58.851
-58.851
-62.7733
-62.7733
-62.7734
-62.7736
-62.7739
-62.7743
-62.7748
-62.7754
-62.7761
-62.7769
-62.7778
-62.7789
-62.78
-62.7812
-62.7826
-62.784
-62.7855
-62.7872
-62.7889
-62.7907
-62.7926
-62.7947
-62.7968
-62.7989
-62.8012
-62.8036
-62.806
-62.8085
-62.8111
-62.8138
-62.8165
-62.8193
-62.8222
-62.8251
-62.8281
-62.8312