/*--------------------------------*- C++ -*----------------------------------*\
| =========                 |                                                 |
| \\      /  F ield         | OpenFOAM: The Open Source CFD Toolbox           |
|  \\    /   O peration     | Version:  2412                                  |
|   \\  /    A nd           | Website:  www.openfoam.com                      |
|    \\/     M anipulation  |                                                 |
\*---------------------------------------------------------------------------*/
FoamFile
{
    version     2.0;
    format      ascii;
    arch        "LSB;label=32;scalar=64";
    class       volScalarField;
    location    "1.18";
    object      p_rgh;
}
// * * * * * * * * * * * * * * * * * * * * * * * * * * * * * * * * * * * * * //

dimensions      [1 -1 -2 0 0 0 0];

internalField   nonuniform List<scalar> 
40000
(
1.962
1.96203
1.96196
1.9618
1.96154
1.96118
1.96072
1.96017
1.95951
1.95877
1.95792
1.95698
1.95595
1.95482
1.95361
1.9523
1.9509
1.94942
1.94784
1.94619
1.94444
1.94262
1.94072
1.93874
1.93668
1.93454
1.93234
1.93006
1.92771
1.9253
1.92282
1.92029
1.91769
1.91504
1.91233
1.90957
1.90676
1.90391
1.90101
1.89808
1.8951
1.8921
1.88906
1.88599
1.8829
1.87978
1.87665
1.8735
1.87034
1.86717
1.864
1.86082
1.85764
1.85447
1.8513
1.84815
1.84501
1.84188
1.83878
1.8357
1.83265
1.82962
1.82663
1.82368
1.82077
1.8179
1.81507
1.81229
1.80957
1.8069
1.80428
1.80173
1.79924
1.79681
1.79445
1.79216
1.78994
1.7878
1.78574
1.78375
1.78184
1.78002
1.77828
1.77663
1.77507
1.7736
1.77221
1.77092
1.76973
1.76863
1.76763
1.76672
1.76591
1.7652
1.76459
1.76408
1.76367
1.76337
1.76316
1.76306
1.76305
1.76315
1.76335
1.76366
1.76406
1.76456
1.76517
1.76587
1.76668
1.76758
1.76858
1.76967
1.77086
1.77215
1.77352
1.77499
1.77655
1.7782
1.77993
1.78175
1.78365
1.78563
1.78769
1.78983
1.79204
1.79433
1.79668
1.79911
1.80159
1.80415
1.80676
1.80942
1.81214
1.81492
1.81774
1.82061
1.82352
1.82647
1.82945
1.83247
1.83552
1.8386
1.8417
1.84482
1.84796
1.85111
1.85428
1.85745
1.86062
1.8638
1.86697
1.87014
1.87329
1.87644
1.87957
1.88268
1.88577
1.88884
1.89187
1.89488
1.89785
1.90079
1.90368
1.90653
1.90934
1.91209
1.9148
1.91745
1.92005
1.92258
1.92506
1.92747
1.92981
1.93209
1.9343
1.93643
1.93849
1.94047
1.94237
1.94419
1.94593
1.94759
1.94916
1.95065
1.95204
1.95335
1.95457
1.95569
1.95673
1.95767
1.95851
1.95926
1.95991
1.96047
1.96093
1.96129
1.96156
1.96172
1.96179
1.96176
1.96197
1.962
1.96194
1.96178
1.96152
1.96116
1.9607
1.96014
1.95949
1.95874
1.9579
1.95696
1.95593
1.9548
1.95358
1.95228
1.95088
1.94939
1.94782
1.94616
1.94442
1.9426
1.94069
1.93871
1.93665
1.93452
1.93231
1.93004
1.92769
1.92528
1.9228
1.92026
1.91767
1.91501
1.91231
1.90955
1.90674
1.90389
1.90099
1.89806
1.89509
1.89208
1.88904
1.88597
1.88288
1.87977
1.87664
1.87349
1.87033
1.86716
1.86399
1.86081
1.85763
1.85446
1.85129
1.84814
1.845
1.84188
1.83877
1.8357
1.83264
1.82962
1.82663
1.82368
1.82077
1.8179
1.81508
1.8123
1.80958
1.80691
1.80429
1.80174
1.79925
1.79683
1.79447
1.79218
1.78996
1.78782
1.78576
1.78377
1.78187
1.78005
1.77831
1.77666
1.7751
1.77363
1.77225
1.77096
1.76977
1.76867
1.76766
1.76676
1.76595
1.76524
1.76463
1.76412
1.76371
1.76341
1.7632
1.7631
1.76309
1.76319
1.7634
1.7637
1.7641
1.7646
1.76521
1.76591
1.76672
1.76762
1.76861
1.76971
1.7709
1.77218
1.77356
1.77502
1.77658
1.77823
1.77996
1.78178
1.78368
1.78566
1.78772
1.78985
1.79206
1.79435
1.7967
1.79912
1.80161
1.80416
1.80677
1.80943
1.81215
1.81492
1.81774
1.82061
1.82352
1.82647
1.82945
1.83247
1.83552
1.8386
1.8417
1.84482
1.84795
1.8511
1.85427
1.85744
1.86061
1.86378
1.86696
1.87012
1.87328
1.87643
1.87956
1.88267
1.88576
1.88882
1.89186
1.89486
1.89783
1.90077
1.90366
1.90651
1.90932
1.91207
1.91478
1.91743
1.92003
1.92256
1.92504
1.92745
1.92979
1.93207
1.93427
1.93641
1.93846
1.94045
1.94235
1.94417
1.94591
1.94757
1.94914
1.95062
1.95202
1.95333
1.95455
1.95567
1.9567
1.95764
1.95849
1.95924
1.95989
1.96045
1.96091
1.96127
1.96153
1.9617
1.96176
1.96173
1.96203
1.96206
1.962
1.96184
1.96158
1.96122
1.96076
1.9602
1.95955
1.9588
1.95795
1.95701
1.95598
1.95486
1.95364
1.95233
1.95093
1.94944
1.94787
1.94621
1.94447
1.94264
1.94074
1.93875
1.93669
1.93456
1.93235
1.93007
1.92772
1.92531
1.92283
1.92029
1.91769
1.91504
1.91233
1.90957
1.90676
1.90391
1.90101
1.89807
1.8951
1.89209
1.88905
1.88598
1.88288
1.87977
1.87663
1.87348
1.87032
1.86715
1.86397
1.8608
1.85762
1.85444
1.85128
1.84812
1.84498
1.84185
1.83875
1.83567
1.83261
1.82959
1.8266
1.82365
1.82073
1.81786
1.81504
1.81226
1.80953
1.80686
1.80425
1.8017
1.7992
1.79678
1.79442
1.79213
1.78991
1.78777
1.78571
1.78372
1.78182
1.77999
1.77826
1.77661
1.77504
1.77357
1.77219
1.7709
1.76971
1.76861
1.76761
1.7667
1.76589
1.76518
1.76457
1.76406
1.76366
1.76335
1.76314
1.76304
1.76304
1.76314
1.76334
1.76364
1.76404
1.76455
1.76515
1.76585
1.76666
1.76756
1.76856
1.76965
1.77084
1.77212
1.7735
1.77497
1.77653
1.77817
1.7799
1.78172
1.78362
1.7856
1.78766
1.7898
1.79201
1.7943
1.79665
1.79908
1.80156
1.80411
1.80672
1.80939
1.81211
1.81488
1.81771
1.82057
1.82348
1.82643
1.82942
1.83244
1.83549
1.83857
1.84167
1.84479
1.84793
1.85108
1.85425
1.85742
1.8606
1.86377
1.86695
1.87012
1.87328
1.87642
1.87955
1.88267
1.88576
1.88883
1.89186
1.89487
1.89784
1.90078
1.90368
1.90653
1.90934
1.9121
1.9148
1.91746
1.92005
1.92259
1.92507
1.92748
1.92983
1.9321
1.93431
1.93645
1.93851
1.94049
1.94239
1.94422
1.94596
1.94762
1.94919
1.95068
1.95207
1.95338
1.9546
1.95573
1.95676
1.9577
1.95854
1.95929
1.95995
1.96051
1.96097
1.96133
1.96159
1.96176
1.96182
1.96179
1.96219
1.96222
1.96216
1.96199
1.96173
1.96137
1.96091
1.96035
1.9597
1.95895
1.9581
1.95716
1.95613
1.955
1.95378
1.95247
1.95107
1.94958
1.948
1.94634
1.94459
1.94277
1.94086
1.93887
1.93681
1.93467
1.93246
1.93017
1.92782
1.9254
1.92292
1.92038
1.91778
1.91512
1.9124
1.90964
1.90683
1.90397
1.90106
1.89812
1.89514
1.89213
1.88908
1.88601
1.88291
1.87979
1.87665
1.87349
1.87032
1.86715
1.86397
1.86078
1.8576
1.85442
1.85125
1.84808
1.84494
1.84181
1.8387
1.83561
1.83255
1.82952
1.82653
1.82357
1.82065
1.81777
1.81494
1.81216
1.80943
1.80676
1.80414
1.80158
1.79909
1.79665
1.79429
1.792
1.78978
1.78763
1.78557
1.78358
1.78167
1.77984
1.7781
1.77645
1.77489
1.77341
1.77203
1.77074
1.76954
1.76844
1.76744
1.76653
1.76572
1.76501
1.7644
1.76389
1.76348
1.76317
1.76297
1.76286
1.76286
1.76296
1.76316
1.76346
1.76387
1.76437
1.76498
1.76568
1.76649
1.76739
1.76839
1.76948
1.77068
1.77196
1.77334
1.77481
1.77637
1.77802
1.77975
1.78157
1.78348
1.78546
1.78753
1.78967
1.79188
1.79417
1.79653
1.79896
1.80145
1.804
1.80662
1.80929
1.81201
1.81479
1.81762
1.82049
1.82341
1.82636
1.82935
1.83238
1.83543
1.83852
1.84162
1.84475
1.8479
1.85105
1.85422
1.8574
1.86058
1.86376
1.86694
1.87012
1.87328
1.87644
1.87957
1.88269
1.88579
1.88886
1.8919
1.89492
1.89789
1.90084
1.90374
1.90659
1.90941
1.91217
1.91488
1.91754
1.92014
1.92268
1.92516
1.92758
1.92993
1.93221
1.93442
1.93656
1.93862
1.94061
1.94252
1.94434
1.94609
1.94775
1.94932
1.95081
1.95221
1.95352
1.95474
1.95587
1.95691
1.95785
1.95869
1.95944
1.9601
1.96066
1.96112
1.96148
1.96175
1.96191
1.96197
1.96195
1.96244
1.96247
1.96241
1.96224
1.96198
1.96161
1.96115
1.96059
1.95994
1.95919
1.95834
1.9574
1.95636
1.95523
1.954
1.95269
1.95129
1.94979
1.94821
1.94655
1.9448
1.94297
1.94105
1.93906
1.93699
1.93485
1.93263
1.93034
1.92798
1.92556
1.92307
1.92052
1.91791
1.91525
1.91253
1.90975
1.90693
1.90407
1.90116
1.89821
1.89522
1.8922
1.88914
1.88606
1.88295
1.87982
1.87668
1.87351
1.87034
1.86715
1.86396
1.86077
1.85757
1.85438
1.8512
1.84803
1.84488
1.84174
1.83862
1.83553
1.83246
1.82942
1.82642
1.82345
1.82052
1.81764
1.8148
1.81201
1.80927
1.80659
1.80397
1.8014
1.7989
1.79646
1.79409
1.79179
1.78956
1.78741
1.78534
1.78334
1.78143
1.7796
1.77786
1.7762
1.77463
1.77315
1.77176
1.77047
1.76927
1.76817
1.76716
1.76625
1.76544
1.76472
1.76411
1.7636
1.76319
1.76288
1.76268
1.76257
1.76257
1.76267
1.76287
1.76317
1.76358
1.76408
1.76469
1.7654
1.76621
1.76711
1.76811
1.76921
1.77041
1.7717
1.77308
1.77455
1.77612
1.77777
1.77951
1.78134
1.78325
1.78524
1.78731
1.78945
1.79167
1.79397
1.79633
1.79877
1.80127
1.80383
1.80645
1.80913
1.81186
1.81465
1.81748
1.82036
1.82329
1.82625
1.82925
1.83229
1.83535
1.83844
1.84156
1.84469
1.84785
1.85101
1.85419
1.85738
1.86057
1.86376
1.86695
1.87013
1.8733
1.87646
1.87961
1.88274
1.88584
1.88892
1.89197
1.89499
1.89798
1.90093
1.90384
1.9067
1.90952
1.91229
1.91501
1.91768
1.92028
1.92283
1.92532
1.92774
1.9301
1.93238
1.9346
1.93674
1.93881
1.9408
1.94272
1.94455
1.9463
1.94796
1.94954
1.95103
1.95244
1.95375
1.95497
1.9561
1.95714
1.95808
1.95893
1.95968
1.96034
1.9609
1.96136
1.96173
1.96199
1.96216
1.96222
1.96219
1.96278
1.96281
1.96275
1.96258
1.96231
1.96195
1.96149
1.96093
1.96027
1.95951
1.95866
1.95772
1.95668
1.95554
1.95431
1.953
1.95159
1.95009
1.9485
1.94683
1.94508
1.94324
1.94132
1.93932
1.93725
1.93509
1.93287
1.93057
1.92821
1.92578
1.92328
1.92072
1.9181
1.91543
1.9127
1.90992
1.90709
1.90421
1.90129
1.89833
1.89533
1.8923
1.88923
1.88614
1.88302
1.87988
1.87672
1.87354
1.87036
1.86716
1.86396
1.86075
1.85755
1.85434
1.85115
1.84797
1.8448
1.84165
1.83852
1.83541
1.83233
1.82928
1.82627
1.82329
1.82035
1.81746
1.81461
1.81181
1.80906
1.80636
1.80373
1.80115
1.79864
1.79619
1.79381
1.79151
1.78927
1.78711
1.78503
1.78302
1.7811
1.77927
1.77751
1.77585
1.77427
1.77279
1.7714
1.7701
1.76889
1.76778
1.76677
1.76586
1.76504
1.76433
1.76371
1.7632
1.76279
1.76248
1.76227
1.76217
1.76216
1.76226
1.76247
1.76277
1.76318
1.76369
1.7643
1.76501
1.76582
1.76672
1.76773
1.76884
1.77003
1.77133
1.77272
1.7742
1.77577
1.77743
1.77918
1.78101
1.78293
1.78492
1.787
1.78916
1.79139
1.79369
1.79607
1.79851
1.80102
1.80359
1.80622
1.80891
1.81166
1.81445
1.8173
1.82019
1.82313
1.8261
1.82911
1.83216
1.83524
1.83834
1.84147
1.84462
1.84778
1.85096
1.85415
1.85735
1.86055
1.86375
1.86695
1.87015
1.87333
1.87651
1.87966
1.8828
1.88592
1.88901
1.89207
1.8951
1.8981
1.90106
1.90398
1.90685
1.90968
1.91246
1.91519
1.91786
1.92048
1.92304
1.92553
1.92797
1.93033
1.93262
1.93485
1.937
1.93907
1.94107
1.94299
1.94483
1.94658
1.94825
1.94984
1.95133
1.95274
1.95406
1.95529
1.95642
1.95746
1.95841
1.95926
1.96001
1.96067
1.96123
1.9617
1.96206
1.96233
1.96249
1.96256
1.96253
1.96321
1.96324
1.96318
1.96301
1.96274
1.96238
1.96191
1.96135
1.96069
1.95993
1.95908
1.95813
1.95708
1.95594
1.95471
1.95339
1.95197
1.95047
1.94888
1.9472
1.94544
1.94359
1.94166
1.93966
1.93757
1.93541
1.93318
1.93087
1.9285
1.92605
1.92355
1.92098
1.91835
1.91566
1.91292
1.91012
1.90728
1.90439
1.90146
1.89848
1.89547
1.89242
1.88935
1.88624
1.88311
1.87995
1.87678
1.87359
1.87038
1.86717
1.86395
1.86073
1.85751
1.8543
1.85109
1.84789
1.84471
1.84154
1.83839
1.83527
1.83218
1.82911
1.82608
1.82309
1.82014
1.81723
1.81436
1.81155
1.80879
1.80608
1.80343
1.80084
1.79831
1.79585
1.79346
1.79114
1.7889
1.78672
1.78463
1.78262
1.78069
1.77884
1.77708
1.7754
1.77382
1.77233
1.77093
1.76962
1.76841
1.76729
1.76628
1.76536
1.76454
1.76382
1.7632
1.76269
1.76227
1.76196
1.76175
1.76165
1.76164
1.76174
1.76195
1.76226
1.76266
1.76318
1.76379
1.7645
1.76532
1.76623
1.76724
1.76835
1.76956
1.77086
1.77226
1.77374
1.77532
1.77699
1.77875
1.78059
1.78252
1.78453
1.78661
1.78878
1.79102
1.79334
1.79573
1.79818
1.80071
1.80329
1.80594
1.80864
1.8114
1.81421
1.81707
1.81998
1.82293
1.82592
1.82894
1.832
1.8351
1.83821
1.84136
1.84452
1.8477
1.8509
1.8541
1.85732
1.86053
1.86375
1.86697
1.87018
1.87338
1.87656
1.87974
1.88289
1.88602
1.88912
1.8922
1.89525
1.89826
1.90123
1.90416
1.90705
1.90989
1.91268
1.91542
1.91811
1.92074
1.9233
1.92581
1.92825
1.93063
1.93293
1.93516
1.93732
1.93941
1.94141
1.94334
1.94518
1.94695
1.94862
1.95021
1.95172
1.95313
1.95445
1.95569
1.95682
1.95787
1.95882
1.95967
1.96043
1.96109
1.96166
1.96212
1.96249
1.96275
1.96292
1.96299
1.96296
1.96374
1.96376
1.9637
1.96353
1.96326
1.96289
1.96243
1.96186
1.9612
1.96044
1.95958
1.95862
1.95757
1.95643
1.95519
1.95386
1.95244
1.95093
1.94933
1.94764
1.94587
1.94402
1.94208
1.94006
1.93797
1.9358
1.93355
1.93123
1.92885
1.92639
1.92387
1.92129
1.91864
1.91594
1.91319
1.91038
1.90752
1.90462
1.90167
1.89868
1.89565
1.89258
1.88949
1.88636
1.88321
1.88004
1.87685
1.87364
1.87042
1.86719
1.86395
1.86072
1.85748
1.85424
1.85101
1.8478
1.8446
1.84141
1.83825
1.8351
1.83199
1.82891
1.82586
1.82285
1.81988
1.81695
1.81407
1.81124
1.80846
1.80573
1.80306
1.80046
1.79792
1.79544
1.79304
1.7907
1.78844
1.78625
1.78415
1.78212
1.78018
1.77832
1.77654
1.77486
1.77327
1.77176
1.77035
1.76904
1.76782
1.7667
1.76567
1.76475
1.76392
1.7632
1.76258
1.76206
1.76164
1.76133
1.76112
1.76101
1.76101
1.76111
1.76132
1.76163
1.76204
1.76255
1.76317
1.76389
1.76471
1.76563
1.76665
1.76776
1.76898
1.77029
1.77169
1.77319
1.77478
1.77646
1.77823
1.78008
1.78202
1.78404
1.78614
1.78833
1.79058
1.79291
1.79532
1.79779
1.80032
1.80293
1.80559
1.80831
1.81109
1.81391
1.81679
1.81972
1.82268
1.82569
1.82874
1.83182
1.83493
1.83806
1.84123
1.84441
1.84761
1.85082
1.85405
1.85728
1.86051
1.86375
1.86698
1.87021
1.87343
1.87664
1.87983
1.883
1.88615
1.88927
1.89236
1.89542
1.89845
1.90144
1.90438
1.90729
1.91014
1.91295
1.91571
1.91841
1.92105
1.92363
1.92615
1.9286
1.93099
1.9333
1.93555
1.93772
1.93981
1.94183
1.94376
1.94562
1.94739
1.94907
1.95067
1.95218
1.9536
1.95493
1.95617
1.95732
1.95837
1.95932
1.96018
1.96094
1.96161
1.96217
1.96264
1.96301
1.96327
1.96344
1.96351
1.96348
1.96435
1.96438
1.96431
1.96414
1.96387
1.9635
1.96303
1.96246
1.9618
1.96103
1.96017
1.95921
1.95815
1.957
1.95576
1.95442
1.95299
1.95147
1.94986
1.94816
1.94638
1.94452
1.94257
1.94054
1.93843
1.93625
1.93399
1.93166
1.92926
1.92679
1.92425
1.92166
1.919
1.91628
1.91351
1.91068
1.90781
1.90488
1.90191
1.89891
1.89586
1.89277
1.88966
1.88651
1.88334
1.88015
1.87694
1.87371
1.87047
1.86721
1.86396
1.8607
1.85744
1.85418
1.85093
1.84769
1.84447
1.84126
1.83807
1.83491
1.83177
1.82867
1.8256
1.82257
1.81957
1.81662
1.81372
1.81087
1.80807
1.80532
1.80264
1.80001
1.79745
1.79496
1.79253
1.79018
1.7879
1.7857
1.78358
1.78153
1.77958
1.7777
1.77592
1.77422
1.77261
1.7711
1.76968
1.76835
1.76712
1.76599
1.76496
1.76403
1.7632
1.76247
1.76184
1.76132
1.7609
1.76058
1.76037
1.76026
1.76026
1.76036
1.76057
1.76088
1.7613
1.76181
1.76244
1.76316
1.76399
1.76491
1.76594
1.76707
1.76829
1.76961
1.77102
1.77253
1.77414
1.77583
1.77761
1.77948
1.78143
1.78347
1.78559
1.78779
1.79006
1.79241
1.79483
1.79732
1.79988
1.8025
1.80518
1.80792
1.81072
1.81357
1.81647
1.81941
1.8224
1.82543
1.8285
1.8316
1.83473
1.83789
1.84107
1.84428
1.8475
1.85074
1.85398
1.85724
1.86049
1.86375
1.86701
1.87026
1.8735
1.87672
1.87994
1.88313
1.88629
1.88944
1.89255
1.89563
1.89868
1.90168
1.90465
1.90757
1.91045
1.91327
1.91604
1.91876
1.92142
1.92401
1.92655
1.92901
1.93142
1.93375
1.936
1.93819
1.94029
1.94232
1.94427
1.94613
1.94791
1.94961
1.95121
1.95273
1.95416
1.9555
1.95674
1.95789
1.95895
1.95991
1.96077
1.96154
1.96221
1.96278
1.96325
1.96362
1.96389
1.96406
1.96412
1.96409
1.96506
1.96508
1.96502
1.96485
1.96458
1.9642
1.96373
1.96316
1.96249
1.96172
1.96085
1.95988
1.95882
1.95766
1.95641
1.95506
1.95362
1.95209
1.95047
1.94877
1.94697
1.9451
1.94314
1.94109
1.93897
1.93677
1.9345
1.93215
1.92974
1.92725
1.9247
1.92208
1.9194
1.91667
1.91388
1.91103
1.90813
1.90519
1.9022
1.89917
1.8961
1.893
1.88986
1.88669
1.8835
1.88028
1.87704
1.87379
1.87052
1.86724
1.86396
1.86068
1.85739
1.85411
1.85083
1.84757
1.84432
1.84108
1.83787
1.83468
1.83152
1.82839
1.8253
1.82224
1.81922
1.81625
1.81332
1.81044
1.80762
1.80485
1.80214
1.7995
1.79691
1.7944
1.79195
1.78958
1.78728
1.78506
1.78292
1.78086
1.77888
1.77699
1.77519
1.77348
1.77186
1.77033
1.7689
1.76756
1.76632
1.76518
1.76414
1.7632
1.76236
1.76162
1.76099
1.76046
1.76004
1.75972
1.7595
1.7594
1.75939
1.7595
1.75971
1.76002
1.76044
1.76096
1.76159
1.76232
1.76315
1.76409
1.76512
1.76626
1.76749
1.76883
1.77026
1.77178
1.77339
1.7751
1.7769
1.77879
1.78076
1.78281
1.78495
1.78717
1.78946
1.79183
1.79427
1.79678
1.79936
1.802
1.80471
1.80747
1.81029
1.81317
1.81609
1.81906
1.82207
1.82513
1.82822
1.83135
1.83451
1.83769
1.8409
1.84413
1.84738
1.85064
1.85391
1.85719
1.86047
1.86376
1.86704
1.87031
1.87358
1.87683
1.88006
1.88328
1.88647
1.88963
1.89277
1.89587
1.89894
1.90197
1.90496
1.9079
1.91079
1.91364
1.91643
1.91916
1.92184
1.92446
1.92701
1.92949
1.93191
1.93425
1.93653
1.93872
1.94084
1.94288
1.94484
1.94672
1.94851
1.95022
1.95184
1.95337
1.9548
1.95615
1.9574
1.95856
1.95962
1.96059
1.96146
1.96223
1.9629
1.96347
1.96395
1.96432
1.96459
1.96476
1.96483
1.9648
1.96586
1.96588
1.96582
1.96565
1.96537
1.965
1.96452
1.96395
1.96327
1.96249
1.96162
1.96064
1.95957
1.95841
1.95714
1.95579
1.95434
1.9528
1.95117
1.94945
1.94764
1.94575
1.94378
1.94172
1.93958
1.93737
1.93508
1.93271
1.93028
1.92777
1.9252
1.92256
1.91987
1.91711
1.91429
1.91143
1.90851
1.90554
1.90253
1.89947
1.89638
1.89325
1.89008
1.88689
1.88367
1.88042
1.87716
1.87388
1.87058
1.86728
1.86397
1.86065
1.85734
1.85403
1.85072
1.84743
1.84415
1.84089
1.83765
1.83443
1.83124
1.82808
1.82496
1.82187
1.81883
1.81582
1.81287
1.80996
1.80711
1.80432
1.80158
1.79891
1.7963
1.79376
1.79129
1.7889
1.78658
1.78433
1.78217
1.78009
1.77809
1.77619
1.77437
1.77264
1.771
1.76946
1.76801
1.76666
1.7654
1.76425
1.7632
1.76225
1.7614
1.76066
1.76002
1.75949
1.75906
1.75874
1.75852
1.75841
1.75841
1.75851
1.75872
1.75904
1.75946
1.75999
1.76063
1.76136
1.76221
1.76315
1.7642
1.76535
1.76659
1.76794
1.76938
1.77092
1.77255
1.77428
1.77609
1.778
1.77999
1.78206
1.78422
1.78646
1.78878
1.79117
1.79364
1.79617
1.79878
1.80144
1.80418
1.80697
1.80981
1.81271
1.81566
1.81866
1.82171
1.82479
1.82791
1.83107
1.83425
1.83747
1.8407
1.84396
1.84724
1.85053
1.85383
1.85714
1.86045
1.86376
1.86707
1.87037
1.87367
1.87695
1.88021
1.88345
1.88667
1.88986
1.89302
1.89615
1.89924
1.9023
1.90531
1.90827
1.91119
1.91406
1.91687
1.91963
1.92232
1.92496
1.92753
1.93003
1.93247
1.93483
1.93712
1.93933
1.94147
1.94353
1.9455
1.94739
1.9492
1.95091
1.95254
1.95408
1.95553
1.95689
1.95815
1.95932
1.96039
1.96136
1.96223
1.96301
1.96369
1.96426
1.96474
1.96512
1.96539
1.96556
1.96562
1.9656
1.96675
1.96678
1.96671
1.96654
1.96626
1.96589
1.96541
1.96483
1.96414
1.96336
1.96248
1.9615
1.96042
1.95924
1.95797
1.9566
1.95514
1.95359
1.95195
1.95021
1.94839
1.94649
1.9445
1.94242
1.94027
1.93803
1.93572
1.93334
1.93088
1.92836
1.92576
1.9231
1.92038
1.9176
1.91476
1.91187
1.90893
1.90593
1.90289
1.89981
1.89669
1.89353
1.89034
1.88711
1.88386
1.88059
1.87729
1.87398
1.87066
1.86732
1.86398
1.86063
1.85728
1.85394
1.8506
1.84728
1.84397
1.84067
1.8374
1.83415
1.83093
1.82774
1.82458
1.82146
1.81838
1.81535
1.81236
1.80943
1.80655
1.80372
1.80096
1.79826
1.79562
1.79305
1.79056
1.78813
1.78579
1.78352
1.78133
1.77923
1.77721
1.77528
1.77344
1.77169
1.77004
1.76848
1.76701
1.76565
1.76438
1.76321
1.76215
1.76119
1.76033
1.75958
1.75893
1.75839
1.75796
1.75764
1.75742
1.75731
1.7573
1.75741
1.75762
1.75794
1.75837
1.75891
1.75955
1.76029
1.76115
1.7621
1.76316
1.76432
1.76558
1.76694
1.7684
1.76996
1.77161
1.77335
1.77519
1.77711
1.77913
1.78123
1.78341
1.78567
1.78801
1.79043
1.79293
1.79549
1.79812
1.80082
1.80358
1.8064
1.80928
1.81221
1.81519
1.81822
1.82129
1.82441
1.82756
1.83075
1.83397
1.83721
1.84049
1.84378
1.84709
1.85041
1.85374
1.85708
1.86043
1.86377
1.86711
1.87045
1.87377
1.87708
1.88037
1.88364
1.88689
1.89011
1.8933
1.89646
1.89958
1.90266
1.9057
1.90869
1.91163
1.91453
1.91736
1.92014
1.92286
1.92552
1.92811
1.93064
1.93309
1.93548
1.93778
1.94002
1.94217
1.94424
1.94623
1.94814
1.94996
1.95169
1.95333
1.95489
1.95635
1.95771
1.95898
1.96016
1.96124
1.96222
1.9631
1.96388
1.96457
1.96515
1.96563
1.966
1.96628
1.96645
1.96652
1.96649
1.96774
1.96777
1.9677
1.96753
1.96725
1.96687
1.96638
1.9658
1.96511
1.96432
1.96343
1.96244
1.96135
1.96017
1.95888
1.9575
1.95603
1.95446
1.95281
1.95106
1.94922
1.9473
1.94529
1.9432
1.94102
1.93877
1.93644
1.93403
1.93155
1.92901
1.92639
1.9237
1.92096
1.91815
1.91528
1.91236
1.90939
1.90637
1.9033
1.90019
1.89703
1.89384
1.89062
1.88736
1.88408
1.88077
1.87744
1.8741
1.87074
1.86737
1.86399
1.86061
1.85723
1.85385
1.85047
1.84711
1.84376
1.84043
1.83712
1.83384
1.83058
1.82735
1.82416
1.82101
1.81789
1.81483
1.8118
1.80884
1.80592
1.80306
1.80027
1.79753
1.79487
1.79227
1.78974
1.78729
1.78491
1.78262
1.78041
1.77828
1.77623
1.77428
1.77242
1.77065
1.76897
1.76739
1.76591
1.76453
1.76324
1.76206
1.76099
1.76001
1.75914
1.75838
1.75773
1.75718
1.75674
1.75641
1.75619
1.75608
1.75608
1.75618
1.7564
1.75673
1.75716
1.7577
1.75835
1.75911
1.75997
1.76094
1.76201
1.76318
1.76446
1.76584
1.76732
1.76889
1.77056
1.77233
1.77419
1.77614
1.77817
1.7803
1.78251
1.7848
1.78717
1.78962
1.79214
1.79473
1.7974
1.80013
1.80292
1.80577
1.80868
1.81165
1.81466
1.81773
1.82084
1.82399
1.82718
1.8304
1.83366
1.83694
1.84025
1.84357
1.84692
1.85028
1.85365
1.85702
1.8604
1.86378
1.86716
1.87053
1.87388
1.87723
1.88055
1.88386
1.88714
1.89039
1.89362
1.8968
1.89996
1.90307
1.90613
1.90915
1.91213
1.91504
1.91791
1.92071
1.92346
1.92614
1.92876
1.93131
1.93379
1.93619
1.93852
1.94077
1.94295
1.94504
1.94704
1.94897
1.9508
1.95255
1.95421
1.95577
1.95725
1.95862
1.95991
1.96109
1.96218
1.96317
1.96406
1.96485
1.96554
1.96612
1.96661
1.96699
1.96727
1.96744
1.96751
1.96748
1.96883
1.96885
1.96879
1.96861
1.96833
1.96794
1.96746
1.96686
1.96617
1.96537
1.96447
1.96347
1.96238
1.96118
1.95988
1.95849
1.95701
1.95542
1.95375
1.95199
1.95013
1.94819
1.94616
1.94405
1.94185
1.93958
1.93722
1.93479
1.93229
1.92972
1.92707
1.92436
1.92159
1.91875
1.91586
1.9129
1.9099
1.90685
1.90375
1.9006
1.89741
1.89419
1.89093
1.88764
1.88432
1.88098
1.87761
1.87423
1.87083
1.86742
1.864
1.86058
1.85716
1.85374
1.85033
1.84693
1.84354
1.84017
1.83682
1.8335
1.8302
1.82693
1.8237
1.82051
1.81736
1.81425
1.81119
1.80819
1.80523
1.80234
1.79951
1.79674
1.79404
1.7914
1.78885
1.78636
1.78395
1.78163
1.77939
1.77723
1.77516
1.77318
1.77129
1.7695
1.7678
1.7662
1.76469
1.76329
1.76199
1.7608
1.7597
1.75872
1.75784
1.75707
1.7564
1.75585
1.7554
1.75507
1.75485
1.75473
1.75473
1.75484
1.75506
1.75539
1.75583
1.75637
1.75703
1.7578
1.75867
1.75965
1.76074
1.76193
1.76323
1.76462
1.76612
1.76772
1.76941
1.7712
1.77309
1.77506
1.77713
1.77928
1.78152
1.78384
1.78624
1.78872
1.79127
1.7939
1.7966
1.79936
1.80219
1.80508
1.80803
1.81103
1.81409
1.81719
1.82034
1.82353
1.82676
1.83002
1.83331
1.83664
1.83998
1.84335
1.84674
1.85013
1.85354
1.85696
1.86038
1.8638
1.86721
1.87062
1.87401
1.87739
1.88076
1.8841
1.88741
1.8907
1.89396
1.89718
1.90037
1.90351
1.90661
1.90966
1.91267
1.91562
1.91851
1.92134
1.92412
1.92683
1.92947
1.93204
1.93455
1.93697
1.93933
1.9416
1.9438
1.94591
1.94793
1.94988
1.95173
1.95349
1.95517
1.95675
1.95823
1.95963
1.96092
1.96212
1.96322
1.96421
1.96511
1.96591
1.9666
1.96719
1.96768
1.96807
1.96835
1.96852
1.96859
1.96856
1.97001
1.97003
1.96997
1.96979
1.9695
1.96912
1.96862
1.96802
1.96732
1.96652
1.96561
1.9646
1.96349
1.96228
1.96097
1.95957
1.95807
1.95647
1.95478
1.953
1.95112
1.94916
1.94711
1.94498
1.94276
1.94046
1.93808
1.93562
1.93309
1.93049
1.92782
1.92508
1.92227
1.91941
1.91648
1.9135
1.91046
1.90737
1.90423
1.90105
1.89783
1.89457
1.89127
1.88794
1.88458
1.8812
1.87779
1.87437
1.87093
1.86748
1.86402
1.86056
1.85709
1.85363
1.85018
1.84673
1.8433
1.83989
1.83649
1.83312
1.82978
1.82647
1.8232
1.81996
1.81677
1.81362
1.81052
1.80748
1.80448
1.80155
1.79868
1.79587
1.79313
1.79046
1.78787
1.78535
1.78291
1.78055
1.77827
1.77609
1.77399
1.77198
1.77006
1.76824
1.76652
1.76489
1.76337
1.76195
1.76063
1.75941
1.7583
1.7573
1.75641
1.75563
1.75495
1.75439
1.75394
1.7536
1.75337
1.75326
1.75326
1.75337
1.75359
1.75392
1.75437
1.75493
1.75559
1.75637
1.75726
1.75825
1.75936
1.76057
1.76188
1.7633
1.76482
1.76644
1.76816
1.76997
1.77188
1.77389
1.77598
1.77816
1.78043
1.78279
1.78523
1.78774
1.79033
1.793
1.79573
1.79853
1.8014
1.80433
1.80732
1.81036
1.81346
1.8166
1.81979
1.82303
1.8263
1.8296
1.83294
1.83631
1.8397
1.84311
1.84654
1.84998
1.85343
1.85689
1.86035
1.86381
1.86727
1.87071
1.87415
1.87757
1.88098
1.88436
1.88771
1.89104
1.89434
1.8976
1.90082
1.904
1.90713
1.91022
1.91326
1.91624
1.91916
1.92203
1.92483
1.92757
1.93024
1.93285
1.93538
1.93783
1.94021
1.94251
1.94472
1.94686
1.9489
1.95087
1.95274
1.95452
1.95621
1.95781
1.95931
1.96072
1.96202
1.96323
1.96434
1.96535
1.96626
1.96706
1.96776
1.96836
1.96885
1.96924
1.96952
1.9697
1.96977
1.96974
1.97128
1.97131
1.97124
1.97106
1.97078
1.97038
1.96988
1.96928
1.96857
1.96776
1.96684
1.96582
1.9647
1.96348
1.96215
1.96073
1.95922
1.9576
1.95589
1.95409
1.95219
1.95021
1.94814
1.94598
1.94374
1.94141
1.93901
1.93652
1.93396
1.93133
1.92863
1.92586
1.92302
1.92012
1.91716
1.91414
1.91106
1.90794
1.90476
1.90154
1.89828
1.89498
1.89164
1.88827
1.88487
1.88144
1.87799
1.87452
1.87104
1.86754
1.86404
1.86053
1.85702
1.85351
1.85001
1.84652
1.84304
1.83958
1.83614
1.83272
1.82933
1.82598
1.82266
1.81938
1.81614
1.81294
1.8098
1.80671
1.80367
1.80069
1.79778
1.79493
1.79215
1.78944
1.78681
1.78425
1.78177
1.77938
1.77707
1.77484
1.77271
1.77067
1.76873
1.76688
1.76513
1.76348
1.76193
1.76048
1.75914
1.75791
1.75678
1.75577
1.75486
1.75406
1.75338
1.75281
1.75235
1.75201
1.75177
1.75166
1.75166
1.75177
1.75199
1.75233
1.75279
1.75335
1.75403
1.75482
1.75572
1.75673
1.75785
1.75908
1.76042
1.76186
1.7634
1.76505
1.76679
1.76864
1.77058
1.77261
1.77474
1.77696
1.77926
1.78165
1.78412
1.78668
1.78931
1.79201
1.79479
1.79763
1.80054
1.80352
1.80655
1.80964
1.81278
1.81597
1.81921
1.82248
1.8258
1.82915
1.83254
1.83595
1.83939
1.84285
1.84632
1.84981
1.85331
1.85681
1.86032
1.86383
1.86733
1.87082
1.8743
1.87777
1.88122
1.88464
1.88804
1.89141
1.89475
1.89805
1.90131
1.90453
1.9077
1.91082
1.9139
1.91691
1.91987
1.92277
1.92561
1.92838
1.93108
1.93372
1.93627
1.93876
1.94116
1.94348
1.94573
1.94788
1.94996
1.95194
1.95383
1.95563
1.95734
1.95896
1.96047
1.96189
1.96322
1.96444
1.96556
1.96658
1.9675
1.96831
1.96902
1.96962
1.97012
1.97051
1.9708
1.97098
1.97105
1.97102
1.97266
1.97269
1.97262
1.97244
1.97215
1.97175
1.97124
1.97063
1.96992
1.96909
1.96817
1.96713
1.966
1.96476
1.96343
1.96199
1.96045
1.95882
1.95709
1.95527
1.95335
1.95134
1.94925
1.94706
1.94479
1.94244
1.94001
1.93749
1.9349
1.93224
1.9295
1.92669
1.92382
1.92088
1.91788
1.91483
1.91171
1.90855
1.90533
1.90207
1.89876
1.89542
1.89204
1.88862
1.88517
1.8817
1.8782
1.87469
1.87116
1.86761
1.86406
1.8605
1.85694
1.85338
1.84983
1.84629
1.84276
1.83925
1.83576
1.83229
1.82885
1.82544
1.82207
1.81874
1.81545
1.81221
1.80902
1.80588
1.80279
1.79977
1.79681
1.79391
1.79109
1.78834
1.78566
1.78306
1.78054
1.77811
1.77576
1.7735
1.77134
1.76926
1.76728
1.7654
1.76362
1.76195
1.76037
1.7589
1.75754
1.75629
1.75514
1.75411
1.75319
1.75238
1.75168
1.7511
1.75063
1.75028
1.75005
1.74993
1.74993
1.75004
1.75027
1.75061
1.75107
1.75165
1.75234
1.75314
1.75406
1.75509
1.75623
1.75748
1.75884
1.7603
1.76187
1.76354
1.76532
1.76719
1.76917
1.77123
1.7734
1.77565
1.77799
1.78042
1.78294
1.78553
1.7882
1.79095
1.79377
1.79666
1.79962
1.80264
1.80572
1.80886
1.81205
1.81528
1.81857
1.8219
1.82527
1.82867
1.8321
1.83557
1.83906
1.84256
1.84609
1.84963
1.85318
1.85673
1.86029
1.86385
1.8674
1.87094
1.87447
1.87798
1.88148
1.88495
1.88839
1.89181
1.89519
1.89853
1.90184
1.9051
1.90831
1.91147
1.91459
1.91764
1.92064
1.92358
1.92645
1.92925
1.93199
1.93465
1.93724
1.93975
1.94219
1.94454
1.94681
1.94899
1.95109
1.95309
1.95501
1.95683
1.95856
1.96019
1.96173
1.96317
1.9645
1.96574
1.96687
1.9679
1.96883
1.96965
1.97037
1.97098
1.97148
1.97188
1.97217
1.97235
1.97242
1.9724
1.97414
1.97416
1.97409
1.97391
1.97361
1.97321
1.9727
1.97208
1.97136
1.97052
1.96959
1.96854
1.96739
1.96614
1.96479
1.96333
1.96178
1.96013
1.95838
1.95653
1.95459
1.95256
1.95044
1.94822
1.94593
1.94354
1.94108
1.93853
1.93591
1.93321
1.93044
1.92759
1.92468
1.92171
1.91867
1.91557
1.91241
1.90921
1.90595
1.90264
1.89929
1.89589
1.89246
1.889
1.8855
1.88198
1.87844
1.87487
1.87128
1.86769
1.86408
1.86047
1.85686
1.85324
1.84964
1.84604
1.84246
1.83889
1.83535
1.83183
1.82833
1.82487
1.82145
1.81806
1.81472
1.81142
1.80818
1.80499
1.80185
1.79878
1.79577
1.79282
1.78995
1.78715
1.78443
1.78178
1.77922
1.77675
1.77436
1.77206
1.76986
1.76775
1.76573
1.76382
1.76201
1.7603
1.7587
1.7572
1.75582
1.75454
1.75337
1.75232
1.75138
1.75056
1.74985
1.74926
1.74878
1.74843
1.74819
1.74807
1.74806
1.74818
1.74841
1.74876
1.74923
1.74982
1.75052
1.75134
1.75227
1.75332
1.75448
1.75575
1.75713
1.75862
1.76022
1.76193
1.76373
1.76564
1.76765
1.76975
1.77195
1.77425
1.77663
1.7791
1.78166
1.7843
1.78702
1.78981
1.79268
1.79562
1.79863
1.8017
1.80483
1.80801
1.81126
1.81455
1.81789
1.82127
1.82469
1.82815
1.83164
1.83516
1.8387
1.84226
1.84584
1.84944
1.85304
1.85665
1.86026
1.86387
1.86747
1.87107
1.87465
1.87821
1.88176
1.88528
1.88877
1.89223
1.89566
1.89905
1.9024
1.90571
1.90897
1.91217
1.91533
1.91842
1.92146
1.92444
1.92735
1.93019
1.93296
1.93566
1.93828
1.94083
1.94329
1.94567
1.94797
1.95018
1.9523
1.95433
1.95627
1.95812
1.95987
1.96152
1.96307
1.96453
1.96588
1.96713
1.96828
1.96932
1.97026
1.97109
1.97182
1.97244
1.97295
1.97335
1.97364
1.97383
1.9739
1.97387
1.97571
1.97574
1.97567
1.97548
1.97518
1.97478
1.97426
1.97363
1.9729
1.97205
1.9711
1.97005
1.96888
1.96762
1.96625
1.96477
1.9632
1.96152
1.95975
1.95788
1.95592
1.95386
1.95171
1.94947
1.94714
1.94472
1.94222
1.93964
1.93699
1.93425
1.93144
1.92856
1.92561
1.92259
1.91951
1.91636
1.91316
1.90991
1.9066
1.90325
1.89985
1.8964
1.89292
1.88941
1.88586
1.88228
1.87868
1.87506
1.87142
1.86777
1.86411
1.86044
1.85677
1.8531
1.84943
1.84578
1.84214
1.83851
1.83491
1.83133
1.82778
1.82426
1.82078
1.81733
1.81393
1.81058
1.80728
1.80403
1.80084
1.79771
1.79465
1.79165
1.78873
1.78588
1.78311
1.78042
1.77781
1.77529
1.77286
1.77052
1.76827
1.76612
1.76407