/*--------------------------------*- C++ -*----------------------------------*\
| =========                 |                                                 |
| \\      /  F ield         | OpenFOAM: The Open Source CFD Toolbox           |
|  \\    /   O peration     | Version:  2412                                  |
|   \\  /    A nd           | Website:  www.openfoam.com                      |
|    \\/     M anipulation  |                                                 |
\*---------------------------------------------------------------------------*/
FoamFile
{
    version     2.0;
    format      ascii;
    arch        "LSB;label=32;scalar=64";
    class       volVectorField;
    location    "1.18";
    object      U;
}
// * * * * * * * * * * * * * * * * * * * * * * * * * * * * * * * * * * * * * //

dimensions      [0 1 -1 0 0 0 0];

internalField   nonuniform List<vector> 
40000
(
(7.22686e-06 -6.57262e-06 0)
(3.58664e-05 -9.63148e-06 0)
(7.13007e-05 -1.11075e-05 0)
(0.00010885 -1.17738e-05 0)
(0.000147476 -1.20101e-05 0)
(0.000186375 -1.20656e-05 0)
(0.000225245 -1.20208e-05 0)
(0.000263956 -1.19407e-05 0)
(0.000302442 -1.1848e-05 0)
(0.00034067 -1.17519e-05 0)
(0.000378615 -1.16531e-05 0)
(0.000416255 -1.15489e-05 0)
(0.000453569 -1.14385e-05 0)
(0.000490534 -1.13213e-05 0)
(0.000527124 -1.11967e-05 0)
(0.000563315 -1.10641e-05 0)
(0.000599079 -1.09229e-05 0)
(0.00063439 -1.07731e-05 0)
(0.000669219 -1.06147e-05 0)
(0.000703539 -1.04475e-05 0)
(0.000737321 -1.02715e-05 0)
(0.000770537 -1.00865e-05 0)
(0.000803158 -9.89258e-06 0)
(0.000835155 -9.68951e-06 0)
(0.000866499 -9.47734e-06 0)
(0.000897161 -9.25611e-06 0)
(0.000927112 -9.02592e-06 0)
(0.000956323 -8.78683e-06 0)
(0.000984764 -8.53888e-06 0)
(0.00101241 -8.28209e-06 0)
(0.00103922 -8.01649e-06 0)
(0.00106518 -7.74217e-06 0)
(0.00109026 -7.45925e-06 0)
(0.00111442 -7.16784e-06 0)
(0.00113764 -6.868e-06 0)
(0.00115989 -6.55978e-06 0)
(0.00118115 -6.2432e-06 0)
(0.00120138 -5.9184e-06 0)
(0.00122055 -5.58555e-06 0)
(0.00123865 -5.24487e-06 0)
(0.00125565 -4.89655e-06 0)
(0.00127151 -4.54072e-06 0)
(0.00128622 -4.17749e-06 0)
(0.00129974 -3.80704e-06 0)
(0.00131206 -3.42966e-06 0)
(0.00132316 -3.04574e-06 0)
(0.001333 -2.65572e-06 0)
(0.00134157 -2.25994e-06 0)
(0.00134884 -1.85864e-06 0)
(0.0013548 -1.45196e-06 0)
(0.00135944 -1.03997e-06 0)
(0.00136272 -6.22408e-07 0)
(0.00136464 -1.97872e-07 0)
(0.00136518 2.34254e-07 0)
(0.0013643 6.66022e-07 0)
(0.00136201 1.09988e-06 0)
(0.0013583 1.53398e-06 0)
(0.00135317 1.9682e-06 0)
(0.00134661 2.40307e-06 0)
(0.00133862 2.83847e-06 0)
(0.00132919 3.27398e-06 0)
(0.00131832 3.70905e-06 0)
(0.00130601 4.14312e-06 0)
(0.00129227 4.5756e-06 0)
(0.00127709 5.00592e-06 0)
(0.00126048 5.4335e-06 0)
(0.00124246 5.85778e-06 0)
(0.00122302 6.27817e-06 0)
(0.00120219 6.69407e-06 0)
(0.00117997 7.10484e-06 0)
(0.00115639 7.50985e-06 0)
(0.00113146 7.90845e-06 0)
(0.0011052 8.30009e-06 0)
(0.00107763 8.6842e-06 0)
(0.00104878 9.06024e-06 0)
(0.00101868 9.42766e-06 0)
(0.000987352 9.78585e-06 0)
(0.00095483 1.01342e-05 0)
(0.000921146 1.04722e-05 0)
(0.000886337 1.07992e-05 0)
(0.000850439 1.11147e-05 0)
(0.000813491 1.14181e-05 0)
(0.000775535 1.17088e-05 0)
(0.000736613 1.19865e-05 0)
(0.000696771 1.22506e-05 0)
(0.000656056 1.25007e-05 0)
(0.000614515 1.27363e-05 0)
(0.000572198 1.2957e-05 0)
(0.000529157 1.31623e-05 0)
(0.000485444 1.3352e-05 0)
(0.000441113 1.35257e-05 0)
(0.000396221 1.36833e-05 0)
(0.000350822 1.38245e-05 0)
(0.000304974 1.39488e-05 0)
(0.000258735 1.4056e-05 0)
(0.000212164 1.4146e-05 0)
(0.000165321 1.42186e-05 0)
(0.000118265 1.42736e-05 0)
(7.10572e-05 1.43109e-05 0)
(2.37605e-05 1.43296e-05 0)
(-2.35663e-05 1.43296e-05 0)
(-7.08626e-05 1.43109e-05 0)
(-0.00011807 1.42738e-05 0)
(-0.000165125 1.42188e-05 0)
(-0.000211969 1.41461e-05 0)
(-0.000258541 1.4056e-05 0)
(-0.000304781 1.39487e-05 0)
(-0.00035063 1.38245e-05 0)
(-0.00039603 1.36835e-05 0)
(-0.000440925 1.3526e-05 0)
(-0.000485257 1.33523e-05 0)
(-0.000528971 1.31627e-05 0)
(-0.000572015 1.29576e-05 0)
(-0.000614334 1.27373e-05 0)
(-0.000655878 1.25018e-05 0)
(-0.000696596 1.22518e-05 0)
(-0.000736441 1.1988e-05 0)
(-0.000775366 1.17106e-05 0)
(-0.000813326 1.14198e-05 0)
(-0.000850278 1.11164e-05 0)
(-0.000886181 1.0801e-05 0)
(-0.000920996 1.0474e-05 0)
(-0.000954684 1.01362e-05 0)
(-0.000987212 9.78791e-06 0)
(-0.00101855 9.42972e-06 0)
(-0.00104865 9.06239e-06 0)
(-0.00107751 8.6865e-06 0)
(-0.00110508 8.30232e-06 0)
(-0.00113135 7.91052e-06 0)
(-0.00115629 7.51189e-06 0)
(-0.00117988 7.10685e-06 0)
(-0.0012021 6.69609e-06 0)
(-0.00122294 6.28044e-06 0)
(-0.00124239 5.86036e-06 0)
(-0.00126042 5.43617e-06 0)
(-0.00127704 5.00873e-06 0)
(-0.00129223 4.579e-06 0)
(-0.00130598 4.14701e-06 0)
(-0.0013183 3.71302e-06 0)
(-0.00132918 3.27823e-06 0)
(-0.00133863 2.84315e-06 0)
(-0.00134663 2.40784e-06 0)
(-0.0013532 1.97269e-06 0)
(-0.00135835 1.5379e-06 0)
(-0.00136206 1.10336e-06 0)
(-0.00136436 6.69144e-07 0)
(-0.00136525 2.36613e-07 0)
(-0.00136471 -1.95883e-07 0)
(-0.0013628 -6.20143e-07 0)
(-0.00135953 -1.03722e-06 0)
(-0.00135491 -1.44902e-06 0)
(-0.00134895 -1.85532e-06 0)
(-0.00134169 -2.25583e-06 0)
(-0.00133314 -2.65066e-06 0)
(-0.00132331 -3.03979e-06 0)
(-0.00131224 -3.42307e-06 0)
(-0.00129994 -3.79991e-06 0)
(-0.00128643 -4.17018e-06 0)
(-0.00127175 -4.53372e-06 0)
(-0.0012559 -4.89005e-06 0)
(-0.00123893 -5.23887e-06 0)
(-0.00122085 -5.57981e-06 0)
(-0.00120169 -5.91266e-06 0)
(-0.00118148 -6.23731e-06 0)
(-0.00116024 -6.55381e-06 0)
(-0.00113801 -6.86199e-06 0)
(-0.00111481 -7.16173e-06 0)
(-0.00109067 -7.45293e-06 0)
(-0.00106562 -7.7355e-06 0)
(-0.00103968 -8.00959e-06 0)
(-0.00101289 -8.27505e-06 0)
(-0.000985271 -8.53183e-06 0)
(-0.000956855 -8.77985e-06 0)
(-0.000927673 -9.0186e-06 0)
(-0.000897753 -9.24749e-06 0)
(-0.000867126 -9.46669e-06 0)
(-0.000835821 -9.67671e-06 0)
(-0.000803868 -9.87793e-06 0)
(-0.000771295 -1.00711e-05 0)
(-0.000738131 -1.02564e-05 0)
(-0.000704402 -1.04325e-05 0)
(-0.000670137 -1.05992e-05 0)
(-0.000635367 -1.07564e-05 0)
(-0.000600121 -1.09036e-05 0)
(-0.000564431 -1.10412e-05 0)
(-0.000528325 -1.11697e-05 0)
(-0.000491833 -1.12894e-05 0)
(-0.00045498 -1.14001e-05 0)
(-0.000417796 -1.15027e-05 0)
(-0.000380308 -1.15968e-05 0)
(-0.000342543 -1.16812e-05 0)
(-0.00030453 -1.17567e-05 0)
(-0.0002663 -1.18216e-05 0)
(-0.000227882 -1.18752e-05 0)
(-0.000189313 -1.19161e-05 0)
(-0.000150629 -1.19335e-05 0)
(-0.00011187 -1.18999e-05 0)
(-7.32585e-05 -1.16929e-05 0)
(-3.62411e-05 -1.06806e-05 0)
(-6.84105e-06 -6.88056e-06 0)
(1.16189e-05 -3.66249e-05 0)
(6.29037e-05 -5.9332e-05 0)
(0.000121793 -6.54735e-05 0)
(0.000182341 -6.76209e-05 0)
(0.000243511 -6.85248e-05 0)
(0.000304867 -6.87447e-05 0)
(0.000366223 -6.8591e-05 0)
(0.000427443 -6.8262e-05 0)
(0.000488423 -6.7844e-05 0)
(0.000549089 -6.73745e-05 0)
(0.000609379 -6.68641e-05 0)
(0.000669242 -6.63125e-05 0)
(0.000728629 -6.57191e-05 0)
(0.000787497 -6.50826e-05 0)
(0.000845798 -6.44015e-05 0)
(0.00090349 -6.36741e-05 0)
(0.000960528 -6.28993e-05 0)
(0.00101687 -6.20762e-05 0)
(0.00107246 -6.12044e-05 0)
(0.00112727 -6.02832e-05 0)
(0.00118124 -5.93122e-05 0)
(0.00123433 -5.82908e-05 0)
(0.0012865 -5.72186e-05 0)
(0.00133769 -5.60952e-05 0)
(0.00138787 -5.49205e-05 0)
(0.00143698 -5.36946e-05 0)
(0.00148499 -5.24174e-05 0)
(0.00153184 -5.1089e-05 0)
(0.00157748 -4.97097e-05 0)
(0.00162188 -4.82794e-05 0)
(0.00166498 -4.67982e-05 0)
(0.00170674 -4.52663e-05 0)
(0.00174711 -4.36841e-05 0)
(0.00178604 -4.20516e-05 0)
(0.0018235 -4.03691e-05 0)
(0.00185943 -3.8637e-05 0)
(0.00189379 -3.68556e-05 0)
(0.00192653 -3.50254e-05 0)
(0.00195762 -3.31472e-05 0)
(0.001987 -3.12217e-05 0)
(0.00201463 -2.92496e-05 0)
(0.00204048 -2.72317e-05 0)
(0.00206449 -2.51687e-05 0)
(0.00208664 -2.3062e-05 0)
(0.00210687 -2.09128e-05 0)
(0.00212515 -1.87228e-05 0)
(0.00214144 -1.64937e-05 0)
(0.00215571 -1.42272e-05 0)
(0.00216792 -1.19248e-05 0)
(0.00217803 -9.58783e-06 0)
(0.00218603 -7.21792e-06 0)
(0.00219187 -4.81628e-06 0)
(0.00219553 -2.38315e-06 0)
(0.00219698 8.23543e-08 0)
(0.00219621 2.57011e-06 0)
(0.0021932 5.07456e-06 0)
(0.00218791 7.59216e-06 0)
(0.00218034 1.0122e-05 0)
(0.00217046 1.26629e-05 0)
(0.00215827 1.52124e-05 0)
(0.00214375 1.77678e-05 0)
(0.00212691 2.03259e-05 0)
(0.00210773 2.28833e-05 0)
(0.00208622 2.54369e-05 0)
(0.00206238 2.79831e-05 0)
(0.00203622 3.05184e-05 0)
(0.00200774 3.30393e-05 0)
(0.00197696 3.55419e-05 0)
(0.00194389 3.80224e-05 0)
(0.00190856 4.04768e-05 0)
(0.00187099 4.29014e-05 0)
(0.00183121 4.52924e-05 0)
(0.00178924 4.76461e-05 0)
(0.00174512 4.99589e-05 0)
(0.0016989 5.22269e-05 0)
(0.0016506 5.44463e-05 0)
(0.00160027 5.66132e-05 0)
(0.00154798 5.87237e-05 0)
(0.00149376 6.07739e-05 0)
(0.00143767 6.27601e-05 0)
(0.00137978 6.46788e-05 0)
(0.00132015 6.65263e-05 0)
(0.00125884 6.8299e-05 0)
(0.00119592 6.99937e-05 0)
(0.00113147 7.1607e-05 0)
(0.00106556 7.31358e-05 0)
(0.000998277 7.4577e-05 0)
(0.000929696 7.59278e-05 0)
(0.000859904 7.71856e-05 0)
(0.000788989 7.8348e-05 0)
(0.00071704 7.94129e-05 0)
(0.000644148 8.03781e-05 0)
(0.000570408 8.12416e-05 0)
(0.000495915 8.20014e-05 0)
(0.000420765 8.26559e-05 0)
(0.000345058 8.32038e-05 0)
(0.000268893 8.36442e-05 0)
(0.00019237 8.39761e-05 0)
(0.000115593 8.41984e-05 0)
(3.86637e-05 8.43098e-05 0)
(-3.83191e-05 8.431e-05 0)
(-0.000115248 8.41991e-05 0)
(-0.000192025 8.39772e-05 0)
(-0.000268547 8.36454e-05 0)
(-0.000344713 8.32048e-05 0)
(-0.000420421 8.26566e-05 0)
(-0.000495572 8.20021e-05 0)
(-0.000570067 8.12427e-05 0)
(-0.000643809 8.03798e-05 0)
(-0.000716703 7.94153e-05 0)
(-0.000788654 7.83512e-05 0)
(-0.000859571 7.71895e-05 0)
(-0.000929365 7.59324e-05 0)
(-0.000997949 7.45822e-05 0)
(-0.00106524 7.31415e-05 0)
(-0.00113115 7.1613e-05 0)
(-0.0011956 7.00003e-05 0)
(-0.00125852 6.83062e-05 0)
(-0.00131984 6.65336e-05 0)
(-0.00137948 6.46861e-05 0)
(-0.00143737 6.27677e-05 0)
(-0.00149346 6.07819e-05 0)
(-0.00154769 5.87323e-05 0)
(-0.00159999 5.66226e-05 0)
(-0.00165032 5.44563e-05 0)
(-0.00169863 5.22377e-05 0)
(-0.00174486 4.99706e-05 0)
(-0.00178898 4.76581e-05 0)
(-0.00183096 4.5304e-05 0)
(-0.00187075 4.2913e-05 0)
(-0.00190833 4.04889e-05 0)
(-0.00194367 3.8035e-05 0)
(-0.00197674 3.55555e-05 0)
(-0.00200753 3.30543e-05 0)
(-0.00203602 3.0535e-05 0)
(-0.00206219 2.80009e-05 0)
(-0.00208605 2.54563e-05 0)
(-0.00210757 2.29043e-05 0)
(-0.00212676 2.03476e-05 0)
(-0.00214361 1.77904e-05 0)
(-0.00215814 1.52358e-05 0)
(-0.00217034 1.26861e-05 0)
(-0.00218023 1.01444e-05 0)
(-0.00218782 7.6129e-06 0)
(-0.00219311 5.09332e-06 0)
(-0.00219614 2.58703e-06 0)
(-0.00219691 9.73264e-08 0)
(-0.00219547 -2.36921e-06 0)
(-0.00219182 -4.80159e-06 0)
(-0.00218599 -7.20119e-06 0)
(-0.00217801 -9.56883e-06 0)
(-0.0021679 -1.19029e-05 0)
(-0.00215571 -1.42018e-05 0)
(-0.00214145 -1.64649e-05 0)
(-0.00212518 -1.8691e-05 0)
(-0.00210691 -2.08788e-05 0)
(-0.0020867 -2.30264e-05 0)
(-0.00206457 -2.51326e-05 0)
(-0.00204058 -2.71959e-05 0)
(-0.00201475 -2.92146e-05 0)
(-0.00198713 -3.11876e-05 0)
(-0.00195777 -3.31137e-05 0)
(-0.0019267 -3.49917e-05 0)
(-0.00189397 -3.68208e-05 0)
(-0.00185963 -3.86009e-05 0)
(-0.00182372 -4.03316e-05 0)
(-0.00178629 -4.20122e-05 0)
(-0.00174737 -4.36429e-05 0)
(-0.00170702 -4.52234e-05 0)
(-0.00166528 -4.67541e-05 0)
(-0.0016222 -4.82345e-05 0)
(-0.00157783 -4.96642e-05 0)
(-0.00153221 -5.10419e-05 0)
(-0.00148539 -5.23661e-05 0)
(-0.00143741 -5.36365e-05 0)
(-0.00138833 -5.48539e-05 0)
(-0.00133818 -5.60196e-05 0)
(-0.00128702 -5.71356e-05 0)
(-0.00123489 -5.8203e-05 0)
(-0.00118184 -5.92216e-05 0)
(-0.0011279 -6.01891e-05 0)
(-0.00107314 -6.11047e-05 0)
(-0.00101759 -6.19679e-05 0)
(-0.0009613 -6.2778e-05 0)
(-0.000904313 -6.35361e-05 0)
(-0.000846677 -6.42431e-05 0)
(-0.000788435 -6.49001e-05 0)
(-0.00072963 -6.55087e-05 0)
(-0.000670309 -6.607e-05 0)
(-0.000610515 -6.6583e-05 0)
(-0.000550292 -6.70456e-05 0)
(-0.000489683 -6.74574e-05 0)
(-0.000428731 -6.78163e-05 0)
(-0.000367483 -6.81212e-05 0)
(-0.000305982 -6.83688e-05 0)
(-0.000244265 -6.85344e-05 0)
(-0.000182338 -6.84814e-05 0)
(-0.000120465 -6.73915e-05 0)
(-6.08467e-05 -6.12474e-05 0)
(-1.04932e-05 -3.6121e-05 0)
(1.20276e-05 -7.47703e-05 0)
(6.86602e-05 -0.000119637 0)
(0.000133734 -0.000129125 0)
(0.000200103 -0.0001315 0)
(0.000266386 -0.000132462 0)
(0.00033255 -0.000132738 0)
(0.000398619 -0.000132561 0)
(0.000464532 -0.000132102 0)
(0.000530212 -0.000131458 0)
(0.000595583 -0.000130678 0)
(0.00066058 -0.000129787 0)
(0.000725143 -0.000128794 0)
(0.000789215 -0.000127704 0)
(0.000852744 -0.000126517 0)
(0.000915679 -0.000125236 0)
(0.00097797 -0.000123859 0)
(0.00103957 -0.000122386 0)
(0.00110042 -0.000120817 0)
(0.00116048 -0.000119152 0)
(0.0012197 -0.000117388 0)
(0.00127803 -0.000115527 0)
(0.00133542 -0.000113567 0)
(0.00139181 -0.000111508 0)
(0.00144717 -0.000109349 0)
(0.00150144 -0.00010709 0)
(0.00155457 -0.000104731 0)
(0.00160651 -0.000102272 0)
(0.00165721 -9.97133e-05 0)
(0.00170662 -9.70543e-05 0)
(0.00175469 -9.42955e-05 0)
(0.00180137 -9.1437e-05 0)
(0.00184661 -8.84792e-05 0)
(0.00189036 -8.54223e-05 0)
(0.00193256 -8.22665e-05 0)
(0.00197318 -7.90123e-05 0)
(0.00201215 -7.56603e-05 0)
(0.00204944 -7.22113e-05 0)
(0.00208499 -6.86665e-05 0)
(0.00211875 -6.50271e-05 0)
(0.00215068 -6.12944e-05 0)
(0.00218072 -5.74695e-05 0)
(0.00220884 -5.35542e-05 0)
(0.00223498 -4.95501e-05 0)
(0.00225911 -4.54596e-05 0)
(0.00228118 -4.12852e-05 0)
(0.00230114 -3.70298e-05 0)
(0.00231896 -3.26963e-05 0)
(0.00233459 -2.82874e-05 0)
(0.002348 -2.38062e-05 0)
(0.00235915 -1.92561e-05 0)
(0.002368 -1.46408e-05 0)
(0.00237454 -9.96411e-06 0)
(0.00237871 -5.23034e-06 0)
(0.0023805 -4.43564e-07 0)
(0.00237989 4.39259e-06 0)
(0.00237685 9.26988e-06 0)
(0.00237135 1.41835e-05 0)
(0.00236337 1.9129e-05 0)
(0.0023529 2.41009e-05 0)
(0.00233992 2.90935e-05 0)
(0.00232442 3.41006e-05 0)
(0.00230639 3.9116e-05 0)
(0.00228583 4.41334e-05 0)
(0.00226273 4.91462e-05 0)
(0.00223709 5.41478e-05 0)
(0.00220894 5.91311e-05 0)
(0.00217826 6.40888e-05 0)
(0.00214508 6.90133e-05 0)
(0.00210941 7.38969e-05 0)
(0.00207128 7.87321e-05 0)
(0.0020307 8.35114e-05 0)
(0.00198771 8.82271e-05 0)
(0.00194234 9.2872e-05 0)
(0.00189462 9.74383e-05 0)
(0.0018446 0.000101918 0)
(0.00179232 0.000106304 0)
(0.00173783 0.000110587 0)
(0.00168118 0.000114761 0)
(0.00162243 0.000118817 0)
(0.00156164 0.000122749 0)
(0.00149887 0.000126548 0)
(0.0014342 0.000130207 0)
(0.00136769 0.000133719 0)
(0.00129943 0.000137078 0)
(0.00122948 0.000140276 0)
(0.00115794 0.000143308 0)
(0.00108489 0.000146166 0)
(0.00101042 0.000148846 0)
(0.000934621 0.000151341 0)
(0.00085759 0.000153648 0)
(0.000779425 0.000155761 0)
(0.000700226 0.000157676 0)
(0.000620095 0.000159388 0)
(0.000539136 0.000160894 0)
(0.000457457 0.00016219 0)
(0.000375166 0.000163275 0)
(0.000292372 0.000164146 0)
(0.000209186 0.000164801 0)
(0.000125718 0.000165238 0)
(4.20837e-05 0.000165457 0)
(-4.16116e-05 0.000165458 0)
(-0.000125246 0.000165239 0)
(-0.000208713 0.000164802 0)
(-0.0002919 0.000164147 0)
(-0.000374695 0.000163276 0)
(-0.000456987 0.000162191 0)
(-0.000538667 0.000160894 0)
(-0.000619627 0.000159389 0)
(-0.00069976 0.000157677 0)
(-0.000778961 0.000155764 0)
(-0.000857128 0.000153652 0)
(-0.000934161 0.000151347 0)
(-0.00100996 0.000148852 0)
(-0.00108444 0.000146173 0)
(-0.00115749 0.000143315 0)
(-0.00122903 0.000140285 0)
(-0.00129898 0.000137087 0)
(-0.00136725 0.00013373 0)
(-0.00143376 0.000130218 0)
(-0.00149844 0.000126559 0)
(-0.00156121 0.00012276 0)
(-0.001622 0.00011883 0)
(-0.00168076 0.000114775 0)
(-0.00173741 0.000110602 0)
(-0.00179191 0.000106319 0)
(-0.00184419 0.000101934 0)
(-0.00189422 9.74552e-05 0)
(-0.00194194 9.28893e-05 0)
(-0.00198732 8.8244e-05 0)
(-0.00203032 8.35279e-05 0)
(-0.0020709 7.87492e-05 0)
(-0.00210904 7.39147e-05 0)
(-0.00214472 6.90317e-05 0)
(-0.0021779 6.41088e-05 0)
(-0.00220859 5.91534e-05 0)
(-0.00223675 5.41721e-05 0)
(-0.00226239 4.91719e-05 0)
(-0.00228549 4.41605e-05 0)
(-0.00230607 3.91443e-05 0)
(-0.0023241 3.41298e-05 0)
(-0.00233961 2.91234e-05 0)
(-0.0023526 2.41309e-05 0)
(-0.00236308 1.91588e-05 0)
(-0.00237106 1.42127e-05 0)
(-0.00237656 9.29736e-06 0)
(-0.00237961 4.41803e-06 0)
(-0.00238023 -4.19699e-07 0)
(-0.00237845 -5.20756e-06 0)
(-0.00237428 -9.94119e-06 0)
(-0.00236776 -1.46161e-05 0)
(-0.00235892 -1.92286e-05 0)
(-0.00234777 -2.37752e-05 0)
(-0.00233437 -2.82526e-05 0)
(-0.00231875 -3.26582e-05 0)
(-0.00230094 -3.69888e-05 0)
(-0.00228098 -4.12416e-05 0)
(-0.00225892 -4.54142e-05 0)
(-0.00223481 -4.95036e-05 0)
(-0.00220867 -5.35073e-05 0)
(-0.00218056 -5.74223e-05 0)
(-0.00215053 -6.12474e-05 0)
(-0.00211861 -6.49808e-05 0)
(-0.00208486 -6.86204e-05 0)
(-0.00204932 -7.21645e-05 0)
(-0.00201205 -7.56122e-05 0)
(-0.00197308 -7.89629e-05 0)
(-0.00193248 -8.22154e-05 0)
(-0.00189028 -8.53696e-05 0)
(-0.00184654 -8.84252e-05 0)
(-0.00180131 -9.13819e-05 0)
(-0.00175464 -9.42398e-05 0)
(-0.00170658 -9.69982e-05 0)
(-0.00165718 -9.96551e-05 0)
(-0.0016065 -0.00010221 0)
(-0.00155457 -0.000104662 0)
(-0.00150145 -0.000107013 0)
(-0.00144719 -0.000109264 0)
(-0.00139184 -0.000111417 0)
(-0.00133545 -0.000113472 0)
(-0.00127807 -0.000115429 0)
(-0.00121975 -0.000117287 0)
(-0.00116054 -0.000119046 0)
(-0.00110048 -0.000120705 0)
(-0.00103964 -0.000122264 0)
(-0.000978043 -0.000123723 0)
(-0.00091575 -0.000125084 0)
(-0.000852806 -0.000126348 0)
(-0.00078926 -0.000127518 0)
(-0.00072516 -0.000128594 0)
(-0.000660554 -0.000129576 0)
(-0.000595489 -0.000130463 0)
(-0.000530009 -0.000131252 0)
(-0.000464162 -0.000131945 0)
(-0.000397996 -0.00013254 0)
(-0.000331557 -0.000133035 0)
(-0.000264881 -0.000133404 0)
(-0.00019798 -0.000133434 0)
(-0.000131146 -0.000131697 0)
(-6.6817e-05 -0.00012074 0)
(-1.14649e-05 -7.26781e-05 0)
(1.1767e-05 -0.000114019 0)
(6.87608e-05 -0.000182866 0)
(0.000135033 -0.000196633 0)
(0.000202965 -0.000199105 0)
(0.00027059 -0.000199731 0)
(0.000337889 -0.000199761 0)
(0.000404961 -0.000199377 0)
(0.000471808 -0.000198687 0)
(0.000538386 -0.000197759 0)
(0.000604642 -0.000196636 0)
(0.000670517 -0.000195342 0)
(0.000735955 -0.000193887 0)
(0.000800901 -0.000192281 0)
(0.000865302 -0.000190525 0)
(0.000929106 -0.000188623 0)
(0.000992263 -0.000186573 0)
(0.00105472 -0.000184378 0)
(0.00111643 -0.000182036 0)
(0.00117734 -0.000179547 0)
(0.0012374 -0.000176911 0)
(0.00129657 -0.000174127 0)
(0.00135478 -0.000171193 0)
(0.001412 -0.00016811 0)
(0.00146816 -0.000164877 0)
(0.00152323 -0.000161493 0)
(0.00157715 -0.000157958 0)
(0.00162986 -0.000154273 0)
(0.00168133 -0.000150436 0)
(0.00173149 -0.000146449 0)
(0.00178029 -0.000142311 0)
(0.00182769 -0.000138022 0)
(0.00187363 -0.000133582 0)
(0.00191807 -0.000128993 0)
(0.00196094 -0.000124254 0)
(0.00200221 -0.000119366 0)
(0.00204181 -0.00011433 0)
(0.00207971 -0.000109147 0)
(0.00211585 -0.000103819 0)
(0.00215018 -9.8348e-05 0)
(0.00218265 -9.2735e-05 0)
(0.00221322 -8.69825e-05 0)
(0.00224184 -8.10929e-05 0)
(0.00226845 -7.50689e-05 0)
(0.00229303 -6.89139e-05 0)
(0.00231551 -6.26314e-05 0)
(0.00233586 -5.62254e-05 0)
(0.00235404 -4.97e-05 0)
(0.00237001 -4.30594e-05 0)
(0.00238372 -3.63084e-05 0)
(0.00239514 -2.94521e-05 0)
(0.00240423 -2.24964e-05 0)
(0.00241097 -1.54474e-05 0)
(0.00241531 -8.31188e-06 0)
(0.00241723 -1.09724e-06 0)
(0.0024167 6.19107e-06 0)
(0.00241371 1.35469e-05 0)
(0.00240821 2.09628e-05 0)
(0.0024002 2.84301e-05 0)
(0.00238965 3.594e-05 0)
(0.00237656 4.34832e-05 0)
(0.0023609 5.10506e-05 0)
(0.00234267 5.86328e-05 0)
(0.00232187 6.62203e-05 0)
(0.00229849 7.3803e-05 0)
(0.00227253 8.13705e-05 0)
(0.00224401 8.89122e-05 0)
(0.00221292 9.64169e-05 0)
(0.00217929 0.000103873 0)
(0.00214313 0.00011127 0)
(0.00210446 0.000118596 0)
(0.0020633 0.000125839 0)
(0.00201969 0.000132988 0)
(0.00197365 0.000140031 0)
(0.00192522 0.000146956 0)
(0.00187445 0.000153751 0)
(0.00182138 0.000160405 0)
(0.00176606 0.000166905 0)
(0.00170854 0.00017324 0)
(0.00164888 0.000179398 0)
(0.00158714 0.000185368 0)
(0.00152339 0.000191137 0)
(0.0014577 0.000196695 0)
(0.00139014 0.000202031 0)
(0.00132078 0.000207133 0)
(0.00124971 0.000211993 0)
(0.00117702 0.0002166 0)
(0.00110279 0.000220945 0)
(0.00102711 0.000225019 0)
(0.00095008 0.000228814 0)
(0.000871791 0.000232321 0)
(0.000792345 0.000235534 0)
(0.000711844 0.000238445 0)
(0.000630393 0.000241049 0)
(0.000548099 0.000243338 0)
(0.00046507 0.00024531 0)
(0.000381416 0.00024696 0)
(0.000297249 0.000248284 0)
(0.000212682 0.000249279 0)
(0.000127828 0.000249943 0)
(4.28048e-05 0.000250275 0)
(-4.22805e-05 0.000250276 0)
(-0.000127304 0.000249944 0)
(-0.000212158 0.000249281 0)
(-0.000296726 0.000248286 0)
(-0.000380893 0.000246962 0)
(-0.000464548 0.000245313 0)
(-0.000547578 0.000243342 0)
(-0.000629874 0.000241052 0)
(-0.000711326 0.000238449 0)
(-0.000791829 0.000235539 0)
(-0.000871276 0.000232328 0)
(-0.000949567 0.000228822 0)
(-0.0010266 0.000225029 0)
(-0.00110228 0.000220955 0)
(-0.00117652 0.000216611 0)
(-0.00124921 0.000212005 0)
(-0.00132028 0.000207146 0)
(-0.00138964 0.000202044 0)
(-0.0014572 0.000196709 0)
(-0.0015229 0.000191152 0)
(-0.00158666 0.000185383 0)
(-0.0016484 0.000179415 0)
(-0.00170806 0.000173258 0)
(-0.00176559 0.000166924 0)
(-0.00182091 0.000160425 0)
(-0.00187399 0.000153772 0)
(-0.00192476 0.000146977 0)
(-0.00197319 0.000140053 0)
(-0.00201924 0.00013301 0)
(-0.00206286 0.000125861 0)
(-0.00210402 0.000118618 0)
(-0.0021427 0.000111293 0)
(-0.00217886 0.000103897 0)
(-0.0022125 9.64413e-05 0)
(-0.00224359 8.89389e-05 0)
(-0.00227212 8.13995e-05 0)
(-0.00229808 7.38334e-05 0)
(-0.00232146 6.6252e-05 0)
(-0.00234227 5.86659e-05 0)
(-0.00236051 5.10843e-05 0)
(-0.00237617 4.35172e-05 0)
(-0.00238927 3.59741e-05 0)
(-0.00239982 2.84647e-05 0)
(-0.00240784 2.09978e-05 0)
(-0.00241334 1.35814e-05 0)
(-0.00241634 6.22438e-06 0)
(-0.00241688 -1.06473e-06 0)
(-0.00241496 -8.27995e-06 0)
(-0.00241063 -1.54157e-05 0)
(-0.0024039 -2.24636e-05 0)
(-0.00239482 -2.94165e-05 0)
(-0.0023834 -3.62693e-05 0)
(-0.0023697 -4.30168e-05 0)
(-0.00235374 -4.96543e-05 0)
(-0.00233556 -5.61771e-05 0)
(-0.00231521 -6.25808e-05 0)
(-0.00229273 -6.88618e-05 0)
(-0.00226816 -7.50158e-05 0)
(-0.00224155 -8.1039e-05 0)
(-0.00221294 -8.69281e-05 0)
(-0.00218238 -9.26805e-05 0)
(-0.00214992 -9.82939e-05 0)
(-0.00211559 -0.000103766 0)
(-0.00207946 -0.000109093 0)
(-0.00204157 -0.000114275 0)
(-0.00200197 -0.00011931 0)
(-0.00196071 -0.000124197 0)
(-0.00191784 -0.000128935 0)
(-0.00187341 -0.000133523 0)
(-0.00182747 -0.000137962 0)
(-0.00178007 -0.00014225 0)
(-0.00173127 -0.000146388 0)
(-0.00168112 -0.000150373 0)
(-0.00162966 -0.000154206 0)
(-0.00157695 -0.000157886 0)
(-0.00152304 -0.000161414 0)
(-0.00146797 -0.000164792 0)
(-0.0014118 -0.000168021 0)
(-0.00135458 -0.000171101 0)
(-0.00129636 -0.000174031 0)
(-0.00123719 -0.000176814 0)
(-0.00117712 -0.000179448 0)
(-0.0011162 -0.000181932 0)
(-0.00105448 -0.000184269 0)
(-0.000992002 -0.000186457 0)
(-0.000928819 -0.000188498 0)
(-0.000864979 -0.000190395 0)
(-0.000800532 -0.000192149 0)
(-0.000735526 -0.000193762 0)
(-0.000670009 -0.000195231 0)
(-0.000604025 -0.000196558 0)
(-0.000537624 -0.000197739 0)
(-0.000470851 -0.000198777 0)
(-0.000403757 -0.000199672 0)
(-0.000336387 -0.000200421 0)
(-0.000268778 -0.000200989 0)
(-0.000200944 -0.000201074 0)
(-0.000133193 -0.000198593 0)
(-6.80517e-05 -0.000182558 0)
(-1.16935e-05 -0.000110843 0)
(1.17033e-05 -0.000152546 0)
(6.83525e-05 -0.000245651 0)
(0.000134648 -0.000264442 0)
(0.00020307 -0.000267294 0)
(0.000271253 -0.00026759 0)
(0.000339054 -0.000267301 0)
(0.000406551 -0.000266642 0)
(0.000473762 -0.000265669 0)
(0.000540666 -0.000264424 0)
(0.000607225 -0.000262936 0)
(0.000673388 -0.000261225 0)
(0.000739107 -0.000259301 0)
(0.00080433 -0.000257173 0)
(0.000869005 -0.000254845 0)
(0.000933083 -0.000252319 0)
(0.000996511 -0.000249596 0)
(0.00105924 -0.000246676 0)
(0.00112122 -0.000243559 0)
(0.00118241 -0.000240246 0)
(0.00124274 -0.000236734 0)
(0.00130217 -0.000233025 0)
(0.00136066 -0.000229116 0)
(0.00141815 -0.000225007 0)
(0.00147458 -0.000220697 0)
(0.00152992 -0.000216186 0)
(0.00158411 -0.000211474 0)
(0.00163709 -0.000206559 0)
(0.00168882 -0.000201442 0)
(0.00173924 -0.000196123 0)
(0.0017883 -0.000190602 0)
(0.00183596 -0.000184879 0)
(0.00188216 -0.000178954 0)
(0.00192685 -0.000172828 0)
(0.00196998 -0.000166501 0)
(0.00201149 -0.000159975 0)
(0.00205135 -0.00015325 0)
(0.00208948 -0.000146329 0)
(0.00212586 -0.000139212 0)
(0.00216042 -0.000131903 0)
(0.00219312 -0.000124404 0)
(0.00222391 -0.000116717 0)
(0.00225274 -0.000108846 0)
(0.00227956 -0.000100795 0)
(0.00230434 -9.25681e-05 0)
(0.00232702 -8.41693e-05 0)
(0.00234756 -7.5604e-05 0)
(0.00236591 -6.68775e-05 0)
(0.00238205 -5.79956e-05 0)
(0.00239592 -4.89647e-05 0)
(0.00240749 -3.97918e-05 0)
(0.00241672 -3.04846e-05 0)
(0.00242358 -2.10508e-05 0)
(0.00242804 -1.14993e-05 0)
(0.00243006 -1.83932e-06 0)
(0.00242962 7.92082e-06 0)
(0.00242669 1.77729e-05 0)
(0.00242125 2.77067e-05 0)
(0.00241328 3.7711e-05 0)
(0.00240276 4.77738e-05 0)
(0.00238967 5.78833e-05 0)
(0.002374 6.80272e-05 0)
(0.00235575 7.8193e-05 0)
(0.00233491 8.83676e-05 0)
(0.00231147 9.85374e-05 0)
(0.00228545 0.000108688 0)
(0.00225683 0.000118806 0)
(0.00222564 0.000128876 0)
(0.00219189 0.000138883 0)
(0.00215558 0.000148812 0)
(0.00211675 0.000158648 0)
(0.00207541 0.000168374 0)
(0.0020316 0.000177976 0)
(0.00198535 0.000187437 0)
(0.0019367 0.000196741 0)
(0.00188568 0.000205871 0)
(0.00183234 0.000214813 0)
(0.00177673 0.000223549 0)
(0.0017189 0.000232065 0)
(0.00165892 0.000240344 0)
(0.00159684 0.00024837 0)
(0.00153274 0.000256128 0)
(0.00146667 0.000263602 0)
(0.00139872 0.000270778 0)
(0.00132897 0.000277642 0)
(0.00125748 0.00028418 0)
(0.00118436 0.000290379 0)
(0.00110969 0.000296227 0)
(0.00103355 0.00030171 0)
(0.00095605 0.000306818 0)
(0.000877281 0.000311539 0)
(0.000797345 0.000315865 0)
(0.000716344 0.000319784 0)
(0.000634385 0.00032329 0)
(0.000551575 0.000326375 0)
(0.000468023 0.000329031 0)
(0.000383841 0.000331254 0)
(0.000299142 0.000333037 0)
(0.000214038 0.000334379 0)
(0.000128646 0.000335274 0)
(4.30824e-05 0.000335722 0)
(-4.25436e-05 0.000335723 0)
(-0.000128107 0.000335276 0)
(-0.0002135 0.000334381 0)
(-0.000298605 0.000333041 0)
(-0.000383305 0.000331258 0)
(-0.000467488 0.000329037 0)
(-0.00055104 0.000326381 0)
(-0.000633852 0.000323298 0)
(-0.000715812 0.000319793 0)
(-0.000796814 0.000315874 0)
(-0.000876751 0.00031155 0)
(-0.000955522 0.00030683 0)
(-0.00103303 0.000301723 0)
(-0.00110916 0.000296241 0)
(-0.00118384 0.000290395 0)
(-0.00125697 0.000284197 0)
(-0.00132845 0.000277659 0)
(-0.00139821 0.000270795 0)
(-0.00146617 0.000263619 0)
(-0.00153224 0.000256145 0)
(-0.00159634 0.000248388 0)
(-0.00165842 0.000240363 0)
(-0.00171841 0.000232086 0)
(-0.00177624 0.000223571 0)
(-0.00183185 0.000214836 0)
(-0.0018852 0.000205896 0)
(-0.00193622 0.000196766 0)
(-0.00198488 0.000187463 0)
(-0.00203114 0.000178003 0)
(-0.00207496 0.000168402 0)
(-0.0021163 0.000158676 0)
(-0.00215513 0.000148841 0)
(-0.00219144 0.000138913 0)
(-0.0022252 0.000128907 0)
(-0.0022564 0.000118839 0)
(-0.00228502 0.000108723 0)
(-0.00231105 9.85731e-05 0)
(-0.00233449 8.84043e-05 0)
(-0.00235534 7.82308e-05 0)
(-0.00237359 6.80654e-05 0)
(-0.00238926 5.79217e-05 0)
(-0.00240235 4.78127e-05 0)
(-0.00241288 3.77506e-05 0)
(-0.00242086 2.77472e-05 0)
(-0.0024263 1.78138e-05 0)
(-0.00242924 7.96152e-06 0)
(-0.00242969 -1.79885e-06 0)
(-0.00242767 -1.1459e-05 0)
(-0.00242322 -2.10106e-05 0)
(-0.00241636 -3.04433e-05 0)
(-0.00240714 -3.97482e-05 0)
(-0.00239557 -4.8918e-05 0)
(-0.00238171 -5.7946e-05 0)
(-0.00236558 -6.68253e-05 0)
(-0.00234723 -7.55497e-05 0)
(-0.00232669 -8.41135e-05 0)
(-0.00230402 -9.25115e-05 0)
(-0.00227925 -0.000100738 0)
(-0.00225242 -0.000108788 0)
(-0.0022236 -0.000116658 0)
(-0.00219282 -0.000124345 0)
(-0.00216012 -0.000131844 0)
(-0.00212557 -0.000139154 0)
(-0.0020892 -0.000146271 0)
(-0.00205106 -0.000153191 0)
(-0.00201122 -0.000159915 0)
(-0.00196971 -0.00016644 0)
(-0.00192658 -0.000172766 0)
(-0.0018819 -0.000178892 0)
(-0.0018357 -0.000184816 0)
(-0.00178804 -0.000190539 0)
(-0.00173898 -0.000196059 0)
(-0.00168856 -0.000201376 0)
(-0.00163684 -0.00020649 0)
(-0.00158385 -0.000211401 0)
(-0.00152967 -0.000216109 0)
(-0.00147433 -0.000220616 0)
(-0.00141789 -0.000224922 0)
(-0.0013604 -0.000229028 0)
(-0.0013019 -0.000232936 0)
(-0.00124246 -0.000236645 0)
(-0.00118211 -0.000240156 0)
(-0.00112092 -0.00024347 0)
(-0.00105892 -0.000246587 0)
(-0.000996163 -0.000249505 0)
(-0.000932704 -0.000252231 0)
(-0.000868589 -0.000254763 0)
(-0.000803867 -0.000257102 0)
(-0.000738585 -0.000259252 0)
(-0.000672789 -0.00026121 0)
(-0.000606528 -0.000262977 0)
(-0.000539848 -0.000264552 0)
(-0.000472798 -0.000265937 0)
(-0.000405426 -0.000267134 0)
(-0.00033778 -0.000268139 0)
(-0.000269898 -0.000268905 0)
(-0.000201793 -0.000269037 0)
(-0.00013378 -0.000265798 0)
(-6.8418e-05 -0.000244653 0)
(-1.17822e-05 -0.000149288 0)
(1.17021e-05 -0.000190871 0)
(6.82733e-05 -0.00030819 0)
(0.000134488 -0.000332293 0)
(0.000203134 -0.00033573 0)
(0.000271652 -0.000335764 0)
(0.000339809 -0.000335146 0)
(0.000407642 -0.000334177 0)
(0.000475162 -0.000332889 0)
(0.000542351 -0.000331301 0)
(0.000609174 -0.000329431 0)
(0.000675591 -0.000327292 0)
(0.000741554 -0.000324893 0)
(0.000807015 -0.000322241 0)
(0.000871926 -0.000319338 0)
(0.000936238 -0.000316188 0)
(0.0009999 -0.000312791 0)
(0.00106286 -0.000309148 0)
(0.00112508 -0.000305258 0)
(0.0011865 -0.000301121 0)
(0.00124706 -0.000296736 0)
(0.00130673 -0.000292103 0)
(0.00136546 -0.00028722 0)
(0.00142318 -0.000282086 0)
(0.00147985 -0.000276701 0)
(0.00153543 -0.000271064 0)
(0.00158985 -0.000265174 0)
(0.00164307 -0.000259031 0)
(0.00169504 -0.000252635 0)
(0.0017457 -0.000245985 0)
(0.001795 -0.000239082 0)
(0.0018429 -0.000231925 0)
(0.00188934 -0.000224514 0)
(0.00193426 -0.000216851 0)