/*--------------------------------*- C++ -*----------------------------------*\
| =========                 |                                                 |
| \\      /  F ield         | OpenFOAM: The Open Source CFD Toolbox           |
|  \\    /   O peration     | Version:  2412                                  |
|   \\  /    A nd           | Website:  www.openfoam.com                      |
|    \\/     M anipulation  |                                                 |
\*---------------------------------------------------------------------------*/
FoamFile
{
    version     2.0;
    format      ascii;
    arch        "LSB;label=32;scalar=64";
    class       volScalarField;
    location    "1.13";
    object      alpha.water;
}
// * * * * * * * * * * * * * * * * * * * * * * * * * * * * * * * * * * * * * //

dimensions      [0 0 0 0 0 0 0];

internalField   nonuniform List<scalar> 
40000
(
9.46071e-192
1.17398e-182
7.09592e-182
8.58726e-182
8.62334e-182
8.15623e-182
7.43759e-182
6.59845e-182
5.7138e-182
4.83655e-182
4.00147e-182
3.23307e-182
2.54879e-182
1.95828e-182
1.46451e-182
1.06458e-182
7.51082e-183
5.13571e-183
3.39858e-183
2.17331e-183
1.34094e-183
7.9704e-184
4.55559e-184
2.49777e-184
1.30906e-184
6.52373e-185
3.07129e-185
1.35418e-185
5.54377e-186
2.09275e-186
7.25628e-187
2.31015e-187
6.77445e-188
1.83462e-188
4.55619e-189
1.01437e-189
1.97265e-190
3.30771e-191
4.80074e-192
6.08266e-193
6.66465e-194
6.18097e-195
4.79261e-196
3.10202e-197
1.67651e-198
7.56891e-200
2.8593e-201
9.06685e-203
2.42265e-204
5.4722e-206
1.0458e-207
1.68362e-209
2.24698e-211
2.374e-213
2.27464e-215
2.15711e-217
2.02321e-219
1.87561e-221
1.71744e-223
1.55221e-225
1.38363e-227
1.21547e-229
1.05138e-231
8.94715e-234
7.48358e-236
6.14623e-238
4.95144e-240
3.90843e-242
3.01937e-244
2.28003e-246
1.68077e-248
1.20788e-250
8.4498e-253
5.74513e-255
3.79018e-257
2.42188e-259
1.49607e-261
8.91582e-264
5.11471e-266
2.81767e-268
1.48675e-270
7.49251e-273
3.59505e-275
1.63673e-277
7.04338e-280
2.85276e-282
1.08227e-284
3.82479e-287
1.25126e-289
3.7615e-292
1.03011e-294
2.54323e-297
5.58858e-300
1.07553e-302
1.77511e-305
2.44172e-308
2.68611e-311
2.21444e-314
0
0
0
2.46925e-317
3.91539e-314
4.67127e-311
4.17978e-308
2.99293e-305
1.78707e-302
9.15539e-300
4.10969e-297
1.64261e-294
5.92112e-292
1.94508e-289
5.87342e-287
1.64229e-284
4.279e-282
1.04458e-279
2.40069e-277
5.21642e-275
1.07574e-272
2.11265e-270
3.96356e-268
7.12383e-266
1.22982e-263
2.04412e-261
3.27846e-259
5.08421e-257
7.63833e-255
1.1137e-252
1.57856e-250
2.17849e-248
2.93154e-246
3.85198e-244
4.94869e-242
6.22376e-240
7.6715e-238
9.27798e-236
1.10212e-233
1.28717e-231
1.47938e-229
1.67475e-227
1.869e-225
2.05779e-223
2.2369e-221
2.40245e-219
2.55098e-217
2.67962e-215
2.78613e-213
2.62918e-211
1.96019e-209
1.20974e-207
6.28128e-206
2.75611e-204
1.02119e-202
3.18548e-201
8.33623e-200
1.82518e-198
3.33922e-197
5.10445e-196
6.51846e-195
6.96623e-194
6.31072e-193
4.95006e-192
3.39141e-191
2.01175e-190
1.02966e-189
4.60788e-189
1.85e-188
6.81546e-188
2.31936e-187
7.27178e-187
2.09392e-186
5.53964e-186
1.35166e-185
3.06244e-185
6.49842e-185
1.30267e-184
2.48333e-184
4.52649e-184
7.91672e-184
1.33176e-183
2.15845e-183
3.37547e-183
5.10078e-183
7.45913e-183
1.05708e-182
1.45391e-182
1.94393e-182
2.53039e-182
3.21079e-182
3.97633e-182
4.81083e-182
5.69152e-182
6.59068e-182
7.47667e-182
8.31537e-182
9.06124e-182
9.54255e-182
8.39309e-182
1.31592e-182
5.9643e-192
4.07352e-188
3.85813e-179
2.11913e-178
2.44456e-178
2.40234e-178
2.26114e-178
2.0686e-178
1.84647e-178
1.61094e-178
1.37449e-178
1.14668e-178
9.34731e-179
7.43886e-179
5.77332e-179
4.36447e-179
3.20965e-179
2.29295e-179
1.5891e-179
1.06695e-179
6.93031e-180
4.34866e-180
2.63217e-180
1.5342e-180
8.59093e-181
4.60521e-181
2.3508e-181
1.1352e-181
5.14048e-182
2.16393e-182
8.41095e-183
3.00769e-183
9.89585e-184
3.00728e-184
8.46743e-185
2.19304e-185
5.10225e-186
1.03825e-186
1.8247e-187
2.78439e-188
3.72553e-189
4.32597e-190
4.26013e-191
3.51447e-192
2.4274e-193
1.40474e-194
6.81605e-196
2.77988e-197
9.57493e-199
2.80329e-200
7.02807e-202
1.52035e-203
2.85831e-205
4.69863e-207
6.78147e-209
9.27056e-211
1.25106e-212
1.66582e-214
2.18752e-216
2.83148e-218
3.61044e-220
4.53223e-222
5.5972e-224
6.79537e-226
8.1039e-228
9.48515e-230
1.0886e-231
1.22391e-233
1.34659e-235
1.44828e-237
1.52086e-239
1.55742e-241
1.5532e-243
1.50639e-245
1.41866e-247
1.29523e-249
1.14442e-251
9.76756e-254
8.03663e-256
6.36069e-258
4.83116e-260
3.51237e-262
2.43743e-264
1.60956e-266
1.00796e-268
5.96338e-271
3.31907e-273
1.72954e-275
8.39209e-278
3.76793e-280
1.55401e-282
5.83664e-285
1.97565e-287
5.9504e-290
1.56917e-292
3.54787e-295
6.68413e-298
1.00696e-300
1.13679e-303
8.5457e-307
3.20743e-310
4.99015e-310
1.31959e-306
1.74176e-303
1.5308e-300
1.00824e-297
5.31039e-295
2.33075e-292
8.77148e-290
2.89049e-287
8.47599e-285
2.24018e-282
5.39225e-280
1.19236e-277
2.43992e-275
4.64945e-273
8.2957e-271
1.39255e-268
2.20859e-266
3.32212e-264
4.75542e-262
6.49799e-260
8.4997e-258
1.06704e-255
1.28864e-253
1.5004e-251
1.68763e-249
1.83721e-247
1.93913e-245
1.98758e-243
1.98142e-241
1.92388e-239
1.82183e-237
1.68467e-235
1.52302e-233
1.3476e-231
1.16825e-229
9.9323e-228
8.28902e-226
6.79623e-224
5.47888e-222
4.34609e-220
3.3946e-218
2.6124e-216
1.982e-214
1.48324e-212
1.09539e-210
7.98641e-209
5.51525e-207
3.33937e-205
1.76544e-203
8.10022e-202
3.20259e-200
1.08293e-198
3.10939e-197
7.53472e-196
1.53432e-194
2.62048e-193
3.75256e-192
4.50267e-191
4.53029e-190
3.87156e-189
2.87533e-188
1.87357e-187
1.06029e-186
5.18615e-186
2.22095e-185
8.55058e-185
3.02996e-184
9.95053e-184
3.0188e-183
8.42861e-183
2.16557e-182
5.13864e-182
1.13375e-181
2.34591e-181
4.59233e-181
8.56168e-181
1.52834e-180
2.6215e-180
4.33076e-180
6.90225e-180
1.06278e-179
1.58321e-179
2.28498e-179
3.19936e-179
4.35211e-179
5.76027e-179
7.42825e-179
9.34508e-179
1.14827e-178
1.37951e-178
1.62203e-178
1.86825e-178
2.10978e-178
2.33779e-178
2.54078e-178
2.67374e-178
2.36425e-178
3.87838e-179
2.60968e-188
6.67135e-185
4.70611e-176
2.4886e-175
2.80463e-175
2.71852e-175
2.54685e-175
2.33157e-175
2.08867e-175
1.83185e-175
1.57293e-175
1.32171e-175
1.08606e-175
8.71935e-176
6.83216e-176
5.21887e-176
3.88144e-176
2.80686e-176
1.97104e-176
1.34235e-176
8.85417e-177
5.6488e-177
3.48093e-177
2.06851e-177
1.18262e-177
6.48214e-178
3.38803e-178
1.67737e-178
7.79619e-179
3.37227e-179
1.34849e-179
4.96837e-180
1.68766e-180
5.30945e-181
1.55272e-181
4.18887e-182
1.01656e-182
2.15858e-183
3.96216e-184
6.33167e-185
8.90935e-186
1.09054e-186
1.13164e-187
9.83123e-189
7.15344e-190
4.36122e-191
2.22727e-192
9.54548e-194
3.44869e-195
1.05736e-196
2.77302e-198
6.27415e-200
1.23538e-201
2.13484e-203
3.26366e-205
4.72734e-207
6.75172e-209
9.50456e-211
1.31825e-212
1.80055e-214
2.42067e-216
3.20134e-218
4.16217e-220
5.31618e-222
6.66566e-224
8.19787e-226
9.88086e-228
1.16606e-229
1.34598e-231
1.51807e-233
1.67102e-235
1.79297e-237
1.87286e-239
1.90182e-241
1.87463e-243
1.79081e-245
1.6551e-247
1.47718e-249
1.27061e-251
1.05104e-253
8.3414e-256
6.33518e-258
4.59162e-260
3.1661e-262
2.06995e-264
1.27829e-266
7.42496e-269
4.03719e-271
2.04371e-273
9.57169e-276
4.11732e-278
1.61266e-280
5.69188e-283
1.78734e-285
4.91362e-288
1.15806e-290
2.27408e-293
3.57064e-296
4.20127e-299
3.29187e-302
1.28833e-305
1.95585e-305
4.97496e-302
6.31236e-299
5.33148e-296
3.37385e-293
1.70702e-290
7.19588e-288
2.60055e-285
8.22804e-283
2.31621e-280
5.87571e-278
1.35726e-275
2.87967e-273
5.65291e-271
1.03319e-268
1.76778e-266
2.8451e-264
4.32537e-262
6.23518e-260
8.55168e-258
1.11935e-255
1.40219e-253
1.68533e-251
1.94814e-249
2.17045e-247
2.33531e-245
2.43114e-243
2.45298e-241
2.40267e-239
2.28803e-237
2.12131e-235
1.91731e-233
1.69144e-231
1.45814e-229
1.22966e-227
1.01544e-225
8.21882e-224
6.52584e-222
5.08732e-220
3.89667e-218
2.93464e-216
2.17444e-214
1.58608e-212
1.13949e-210
8.06681e-209
5.62952e-207
3.87401e-205
2.52558e-203
1.45451e-201
7.34068e-200
3.21907e-198
1.21604e-196
3.924e-195
1.07334e-193
2.4732e-192
4.78134e-191
7.74597e-190
1.05235e-188
1.19852e-187
1.14391e-186
9.27105e-186
6.54645e-185
4.07295e-184
2.20674e-183
1.0343e-182
4.24626e-182
1.56947e-181
5.35485e-181
1.69876e-180
4.99201e-180
1.35272e-179
3.37825e-179
7.80131e-179
1.67699e-178
3.38492e-178
6.47242e-178
1.1803e-177
2.06381e-177
3.47244e-177
5.63485e-177
8.83301e-177
1.3394e-176
1.96728e-176
2.80256e-176
3.87734e-176
5.21659e-176
6.83491e-176
8.73258e-176
1.08929e-175
1.32818e-175
1.58464e-175
1.85182e-175
2.12158e-175
2.38489e-175
2.6325e-175
2.85243e-175
2.9963e-175
2.65684e-175
4.53278e-176
4.58323e-185
6.60193e-182
3.32849e-173
1.71966e-172
1.91856e-172
1.84656e-172
1.72571e-172
1.58107e-172
1.42071e-172
1.2518e-172
1.0811e-172
9.14585e-173
7.57291e-173
6.13184e-173
4.84992e-173
3.74287e-173
2.81494e-173
2.06043e-173
1.466e-173
1.01269e-173
6.78323e-174
4.40013e-174
2.76063e-174
1.67261e-174
9.76445e-175
5.47292e-175
2.92915e-175
1.48687e-175
7.09366e-176
3.15302e-176
1.29716e-176
4.92455e-177
1.72718e-177
5.62644e-178
1.70951e-178
4.80534e-179
1.21663e-179
2.69586e-180
5.1681e-181
8.65056e-182
1.28072e-182
1.65315e-183
1.80743e-184
1.65301e-185
1.26671e-186
8.13152e-188
4.3656e-189
1.96185e-190
7.40937e-192
2.36681e-193
6.44506e-195
1.50909e-196
3.06541e-198
5.44962e-200
8.55134e-202
1.26699e-203
1.84936e-205
2.65856e-207
3.7627e-209
5.2409e-211
7.1806e-213
9.67234e-215
1.28015e-216
1.66367e-218
2.12146e-220
2.65234e-222
3.24851e-224
3.89408e-226
4.56424e-228
5.2254e-230
5.83672e-232
6.35325e-234
6.73037e-236
6.92948e-238
6.92366e-240
6.70279e-242
6.27651e-244
5.67445e-246
4.94321e-248
4.14038e-250
3.32662e-252
2.55735e-254
1.87582e-256
1.30881e-258
8.65704e-261
5.40797e-263
3.17713e-265
1.74701e-267
8.94247e-270
4.23444e-272
1.84137e-274
7.29019e-277
2.60061e-279
8.2529e-282
2.29266e-284
5.4597e-287
1.08319e-289
1.71821e-292
2.04226e-295
1.61642e-298
6.39061e-302
9.74821e-302
2.45603e-298
3.08599e-295
2.58079e-292
1.6169e-289
8.09849e-287
3.3792e-284
1.20869e-281
3.7846e-279
1.05422e-276
2.64601e-274
6.0468e-272
1.26906e-269
2.464e-267
4.45366e-265
7.53494e-263
1.19895e-260
1.80184e-258
2.56725e-256
3.47957e-254
4.50012e-252
5.56894e-250
6.61117e-248
7.54671e-246
8.30127e-244
8.81664e-242
9.05803e-240
9.01735e-238
8.71227e-236
8.18152e-234
7.47807e-232
6.66129e-230
5.78983e-228
4.91588e-226
4.08152e-224
3.31708e-222
2.64118e-220
2.06214e-218
1.58e-216
1.18884e-214
8.79044e-213
6.39103e-211
4.57128e-209
3.21821e-207
2.23088e-205
1.52323e-203
1.0247e-201
6.50716e-200
3.64171e-198
1.78076e-196
7.54135e-195
2.74158e-193
8.48373e-192
2.21782e-190
4.86904e-189
8.94628e-188
1.37542e-186
1.77328e-185
1.91758e-184
1.73634e-183
1.33412e-182
8.95253e-182
5.3174e-181
2.75823e-180
1.23875e-179
4.87449e-179
1.72912e-178
5.67851e-178
1.7398e-177
4.9516e-177
1.30217e-176
3.16083e-176
7.10329e-176
1.4876e-175
2.92871e-175
5.46925e-175
9.75398e-175
1.67038e-174
2.75658e-174
4.39358e-174
6.77373e-174
1.01148e-173
1.4647e-173
2.05949e-173
2.81518e-173
3.74578e-173
4.8581e-173
6.14928e-173
7.60554e-173
9.20228e-173
1.09034e-172
1.26638e-172
1.44306e-172
1.61466e-172
1.77536e-172
1.91762e-172
2.01019e-172
1.78623e-172
3.16439e-173
4.8355e-182
4.64358e-179
1.61911e-170
8.18038e-170
9.09176e-170
8.72673e-170
8.15134e-170
7.47972e-170
6.74298e-170
5.96844e-170
5.18375e-170
4.41448e-170
3.68293e-170
3.00735e-170
2.40092e-170
1.87194e-170
1.42366e-170
1.0548e-170
7.60443e-171
5.32863e-171
3.62487e-171
2.39106e-171
1.52755e-171
9.43783e-172
5.62679e-172
3.22555e-172
1.76806e-172
9.20351e-173
4.50785e-173
2.05933e-173
8.71831e-174
3.41136e-174
1.2358e-174
4.1703e-175
1.31717e-175
3.86004e-176
1.02011e-176
2.35995e-177
4.72779e-178
8.29621e-179
1.29396e-179
1.76357e-180
2.03377e-181
1.96058e-182
1.58513e-183
1.07365e-184
6.07229e-186
2.8672e-187
1.13419e-188
3.78151e-190
1.07086e-191
2.59778e-193
5.44677e-195
9.95867e-197
1.60154e-198
2.42196e-200
3.60517e-202
5.28099e-204
7.61054e-206
1.07863e-207
1.50283e-209
2.05738e-211
2.76595e-213
3.6495e-215
4.72268e-217
5.98939e-219
7.43813e-221
9.03753e-223
1.07331e-224
1.24465e-226
1.40778e-228
1.55122e-230
1.66306e-232
1.73241e-234
1.7509e-236
1.71418e-238
1.62293e-240
1.48319e-242
1.30583e-244
1.1052e-246
8.97114e-249
6.96637e-251
5.1607e-253
3.63601e-255
2.42822e-257
1.5313e-259
9.08046e-262
5.03919e-264
2.60291e-266
1.2436e-268
5.45582e-271
2.17893e-273
7.84009e-276
2.50927e-278
7.02963e-281
1.688e-283
3.3766e-286
5.39984e-289
6.47009e-292
5.16197e-295
2.05702e-298
3.17629e-298
7.93936e-295
9.89597e-292
8.20896e-289
5.10099e-286
2.53379e-283
1.04842e-280
3.71836e-278
1.15433e-275
3.18766e-273
7.93087e-271
1.79636e-268
3.73631e-266
7.18853e-264
1.28738e-261
2.15776e-259
3.40097e-257
5.06217e-255
7.14239e-253
9.585e-251
1.22719e-248
1.50318e-246
1.766e-244
1.99465e-242
2.17052e-240
2.28005e-238
2.31634e-236
2.27969e-234
2.17696e-232
2.02006e-230
1.82394e-228
1.60452e-226
1.37683e-224
1.15372e-222
9.45048e-221
7.57448e-219
5.94544e-217
4.57407e-215
3.45172e-213
2.5567e-211
1.85996e-209
1.32968e-207
9.34592e-206
6.46113e-204
4.39497e-202
2.94226e-200
1.93894e-198
1.20113e-196
6.53346e-195
3.09336e-193
1.26348e-191
4.41287e-190
1.30697e-188
3.25859e-187
6.80158e-186
1.18516e-184
1.72551e-183
2.10732e-182
2.16099e-181
1.85436e-180
1.34905e-179
8.5924e-179
4.86794e-178
2.41611e-177
1.03924e-176
3.91758e-176
1.33293e-175
4.21105e-175
1.24548e-174
3.43193e-174
8.75661e-174
2.06549e-173
4.51626e-173
9.21276e-173
1.76873e-172
3.2252e-172
5.62404e-172
9.43089e-172
1.52624e-171
2.38895e-171
3.62196e-171
5.32538e-171
7.60209e-171
1.05492e-170
1.4246e-170
1.87446e-170
2.40626e-170
3.01733e-170
3.70009e-170
4.44237e-170
5.22713e-170
6.03366e-170
6.83827e-170
7.61568e-170
8.34054e-170
8.98005e-170
9.39328e-170
8.36207e-170
1.53708e-170
3.57435e-179
2.50285e-176
5.88821e-168
2.90346e-167
3.22241e-167
3.09213e-167
2.89096e-167
2.65895e-167
2.40567e-167
2.13937e-167
1.86873e-167
1.60202e-167
1.34668e-167
1.10899e-167
8.93691e-168
7.0399e-168
5.41451e-168
4.06098e-168
2.96683e-168
2.1091e-168
1.4573e-168
9.7765e-169
6.36094e-169
4.00834e-169
2.44101e-169
1.43143e-169
8.0374e-170
4.29128e-170
2.15831e-170
1.01362e-170
4.41719e-171
1.78204e-171
6.67066e-172
2.33314e-172
7.66507e-173
2.34336e-173
6.46792e-174
1.56307e-174
3.27461e-175
6.03019e-176
9.92218e-177
1.42986e-177
1.74139e-178
1.77216e-179
1.51494e-180
1.08534e-181
6.48289e-183
3.22472e-184
1.3397e-185
4.67512e-187
1.38063e-188
3.47952e-190
7.55039e-192
1.42333e-193
2.35133e-195
3.63623e-197
5.52977e-199
8.26832e-201
1.21533e-202
1.75554e-204
2.49122e-206
3.47147e-208
4.74781e-210
6.36946e-212
8.37651e-214
1.07911e-215
1.36073e-217
1.67807e-219
2.02199e-221
2.37817e-223
2.72729e-225
3.04607e-227
3.30919e-229
3.49215e-231
3.57456e-233
3.5435e-235
3.39618e-237
3.1413e-239
2.79856e-241
2.39629e-243
1.96751e-245
1.54515e-247
1.15743e-249
8.24454e-252
5.56566e-254
3.54743e-256
2.12582e-258
1.19203e-260
6.22064e-263
3.00232e-265
1.3304e-267
5.3662e-270
1.94982e-272
6.30125e-275
1.78227e-277
4.32047e-280
8.72401e-283
1.40817e-285
1.70287e-288
1.37103e-291
5.51308e-295
8.64462e-295
2.14102e-291
2.64405e-288
2.17289e-285
1.33753e-282
6.58082e-280
2.69692e-277
9.47246e-275
2.91192e-272
7.96184e-270
1.96115e-267
4.39729e-265
9.05288e-263
1.7238e-260
3.05493e-258
5.06631e-256
7.89998e-254
1.16315e-251
1.62313e-249
2.15401e-247
2.72674e-245
3.30175e-243
3.83398e-241
4.27924e-239
4.60066e-237
4.77381e-235
4.78952e-233
4.65404e-231
4.38692e-229
4.01709e-227
3.57827e-225
3.10447e-223
2.62642e-221
2.16906e-219
1.75045e-217
1.38166e-215
1.06757e-213
8.08123e-212
5.9973e-210
4.36627e-208
3.12028e-206
2.18989e-204
1.51003e-202
1.02338e-200
6.8187e-199
4.46748e-197
2.87851e-195
1.73536e-193
9.15088e-192
4.18348e-190
1.64331e-188
5.49788e-187
1.55392e-185
3.6846e-184
7.29229e-183
1.20193e-181
1.65301e-180
1.90821e-179
1.85289e-178
1.50493e-177
1.03519e-176
6.24947e-176
3.37379e-175
1.60113e-174
6.59211e-174
2.37923e-173
7.75966e-173
2.35686e-172
6.72567e-172
1.79352e-171
4.43838e-171
1.01706e-170
2.16316e-170
4.29724e-170
8.04358e-170
1.43183e-169
2.4408e-169
4.007e-169
6.35798e-169
9.77163e-169
1.45666e-168
2.10852e-168
2.96685e-168
4.06261e-168
5.41944e-168
7.0508e-168
8.95791e-168
1.11268e-167
1.35275e-167
1.6115e-167
1.88295e-167
2.16e-167
2.43471e-167
2.69871e-167
2.9438e-167
3.15926e-167
3.29734e-167
2.9401e-167
5.60387e-168
2.00046e-176
1.07851e-173
1.67688e-165
8.05544e-165
8.93632e-165
8.58383e-165
8.04066e-165
7.41696e-165
6.73689e-165
6.02062e-165
5.28976e-165
4.56548e-165
3.86724e-165
3.21198e-165
2.61297e-165
2.0798e-165
1.61786e-165
1.2285e-165
9.09626e-166
6.56129e-166
4.60565e-166
3.14294e-166
2.08298e-166
1.33899e-166
8.33078e-167
4.99835e-167
2.87548e-167
1.57502e-167
8.13626e-168
3.92929e-168
1.76321e-168
7.33738e-169
2.8395e-169
1.02996e-169
3.52187e-170
1.12394e-170
3.24184e-171
8.18901e-172
1.79545e-172
3.47351e-173
6.03819e-174
9.2132e-175
1.18643e-175
1.27659e-176
1.15647e-177
8.78587e-179
5.55681e-180
2.91973e-181
1.27759e-182
4.68035e-184
1.44578e-185
3.797e-187
8.55289e-189
1.66724e-190
2.83737e-192
4.49762e-194
7.00346e-196
1.07123e-197
1.60931e-199
2.37406e-201
3.43804e-203
4.88581e-205
6.81037e-207
9.30649e-209
1.24601e-210
1.63338e-212
2.09488e-214
2.6265e-216
3.21629e-218
3.84298e-220
4.47565e-222
5.07484e-224
5.59542e-226
5.99112e-228
6.22051e-230
6.25338e-232
6.07645e-234
5.697e-236
5.14348e-238
4.46233e-240
3.71156e-242
2.95222e-244
2.23943e-246
1.6151e-248
1.10376e-250
7.12085e-253
4.3186e-255
2.45043e-257
1.29383e-259
6.31724e-262
2.8316e-264
1.15516e-266
4.24473e-269
1.38712e-271
3.96688e-274
9.72186e-277
1.98443e-279
3.23767e-282
3.95711e-285
3.21977e-288
1.30832e-291
2.08887e-291
5.1187e-288
6.25382e-285
5.0841e-282
3.09558e-279
1.5064e-276
6.10531e-274
2.12051e-271
6.44543e-269
1.74235e-266
4.24263e-264
9.40294e-262
1.91324e-259
3.60016e-257
6.30428e-255
1.03292e-252
1.59105e-250
2.31372e-248
3.18848e-246
4.17796e-244
5.22123e-242
6.24039e-240
7.15113e-238
7.87524e-236
8.35219e-234
8.54737e-232
8.45558e-230
8.09952e-228
7.52404e-226
6.78801e-224
5.95541e-222
5.08738e-220
4.23631e-218
3.44233e-216
2.7322e-214
2.12012e-212
1.60972e-210
1.19677e-208
8.71836e-207
6.22705e-205
4.36297e-203
3.00007e-201
2.02532e-199
1.34274e-197
8.74415e-196
5.59399e-194
3.5157e-192
2.0567e-190
1.0482e-188
4.61259e-187
1.73692e-185
5.54865e-184
1.49192e-182
3.35433e-181
6.27715e-180
9.76051e-179
1.26474e-177
1.3769e-176
1.26403e-175
9.70537e-175
6.30344e-174
3.60176e-173
1.85083e-172
8.39232e-172
3.3053e-171
1.1415e-170
3.56635e-170
1.04074e-169
2.86383e-169
7.38706e-169
1.77224e-168
3.94382e-168
8.15698e-168
1.57765e-167
2.8785e-167
5.00115e-167
8.33232e-167
1.33891e-166
2.08255e-166
3.14211e-166
4.60458e-166
6.56065e-166
9.09762e-166
1.22913e-165
1.61942e-165
2.08299e-165
2.61882e-165
3.22188e-165
3.88304e-165
4.58948e-165
5.32479e-165
6.07002e-165
6.80434e-165
7.50629e-165
8.1551e-165
8.72343e-165
9.08416e-165
8.11103e-165
1.60181e-165
8.87173e-174
3.81482e-171
3.84599e-163
1.79816e-162
1.99479e-162
1.91942e-162
1.80245e-162
1.6682e-162
1.52167e-162
1.36686e-162
1.20816e-162
1.04994e-162
8.96302e-163
7.50915e-163
6.16759e-163
4.96106e-163
3.90382e-163
3.00167e-163
2.25296e-163
1.64925e-163
1.17631e-163
8.16702e-164
5.51456e-164
3.61689e-164
2.29945e-164
1.41184e-164
8.32313e-165
4.67794e-165
2.48267e-165
1.23335e-165
5.70153e-166
2.44866e-166
9.80259e-167
3.6898e-167
1.31408e-167
4.38037e-168
1.32109e-168
3.49052e-169
8.01627e-170
1.63119e-170
3.00019e-171
4.85361e-172
6.61697e-173
7.54007e-174
7.25574e-175
5.86052e-176
3.93498e-177
2.19002e-178
1.01232e-179
3.90539e-181
1.26596e-182
3.4758e-184
8.15334e-186
1.64867e-187
2.89923e-189
4.72225e-191
7.54703e-193
1.18355e-194
1.82125e-196
2.74958e-198
4.07175e-200
5.91267e-202
8.4159e-204
1.17362e-205
1.60262e-207
2.14155e-209
2.79846e-211
3.57321e-213
4.45425e-215
5.41568e-217
6.41575e-219
7.39727e-221
8.29085e-223
9.02114e-225
9.51577e-227
9.71587e-229
9.58643e-231
9.12415e-233
8.36076e-235
7.36041e-237
6.21102e-239
5.01118e-241
3.8551e-243
2.81925e-245
1.95332e-247
1.27741e-249
7.85194e-252
4.51494e-254
2.41548e-256
1.19486e-258
5.4254e-261
2.24182e-263
8.34292e-266
2.76086e-268
7.99454e-271
1.98365e-273
4.09899e-276
6.76954e-279
8.37432e-282
6.896e-285
2.8356e-288
4.62316e-288
1.11924e-284
1.35086e-281
1.08478e-278
6.52369e-276
3.13526e-273
1.25481e-270
4.30336e-268
1.29143e-265
3.44633e-263
8.28347e-261
1.81196e-258
3.63839e-256
6.75558e-254
1.16714e-251
1.88642e-249
2.86603e-247
4.11028e-245
5.58519e-243
7.21508e-241
8.88789e-239
1.0469e-236
1.1821e-234
1.28245e-232
1.33962e-230
1.34994e-228
1.31469e-226
1.23943e-224
1.13286e-222
1.0053e-220
8.67278e-219
7.28256e-217
5.95882e-215
4.75593e-213
3.70614e-211
2.82224e-209
2.10181e-207
1.5319e-205
1.09339e-203
7.64666e-202
5.2423e-200
3.52449e-198
2.3245e-196
1.50423e-194
9.55224e-193
5.95266e-191
3.63996e-189
2.05985e-187
1.01134e-185
4.2695e-184
1.536e-182
4.66944e-181
1.19048e-179
2.53007e-178
4.46412e-177
6.53118e-176
7.95241e-175
8.14555e-174
7.05842e-173
5.11694e-172
3.13356e-171
1.69218e-170
8.26746e-170
3.57862e-169
1.34736e-168
4.44992e-168
1.33095e-167
3.72928e-167
9.88901e-167
2.46586e-166
5.73213e-166
1.2382e-165
2.48954e-165
4.68676e-165
8.33355e-165
1.41291e-164
2.3003e-164
3.61729e-164
5.5143e-164
8.16593e-164
1.17616e-163
1.6492e-163
2.25336e-163
3.00315e-163
3.90732e-163
4.96793e-163
6.17986e-163
7.52943e-163
8.99472e-163
1.05466e-162
1.21491e-162
1.37616e-162
1.53405e-162
1.68415e-162
1.8223e-162
1.94286e-162
2.01852e-162
1.80423e-162
3.68812e-163
3.20957e-171
1.12704e-168
7.22908e-161
3.28891e-160
3.64968e-160
3.51929e-160
3.31433e-160
3.07871e-160
2.8209e-160
2.54745e-160
2.26566e-160
1.9829e-160
1.70624e-160
1.44218e-160
1.19617e-160
9.72551e-161
7.74316e-161
6.03015e-161
4.58909e-161
3.41011e-161
2.47195e-161
1.74652e-161
1.20172e-161
8.04334e-162
5.22609e-162
3.28414e-162
1.98431e-162
1.14461e-162
6.24269e-163
3.19158e-163
1.52083e-163
6.74563e-164
2.79556e-164
1.09277e-164
4.05598e-165
1.41305e-165
4.45869e-166
1.23316e-166
2.96953e-167
6.3638e-168
1.24028e-168
2.13028e-169
3.07852e-170
3.72138e-171
3.8134e-172
3.28333e-173
2.34646e-174
1.38716e-175
6.79449e-177
2.76936e-178
9.45204e-180
2.72225e-181
6.67238e-183
1.40419e-184
2.55984e-186
4.29538e-188
7.0631e-190
1.13833e-191
1.79826e-193
2.78441e-195
4.22523e-197
6.28209e-199
9.14857e-201
1.30442e-202
1.82005e-204
2.48369e-206
3.31263e-208
4.31503e-210
5.48493e-212
6.79733e-214
8.20445e-216
9.63455e-218
1.09943e-219
1.21759e-221
1.30685e-223
1.35731e-225
1.36195e-227
1.31793e-229
1.22756e-231
1.09825e-233
9.41623e-236
7.7176e-238
6.03015e-240
4.47816e-242
3.15023e-244
2.09137e-246
1.30481e-248
7.61431e-251
4.13361e-253
2.07461e-255
9.55623e-258
4.00535e-260
1.51179e-262
5.07346e-265
1.48968e-267
3.74762e-270
7.85084e-273
1.31432e-275
1.64798e-278
1.37536e-281
5.73109e-285
9.57175e-285
2.28605e-281
2.72172e-278
2.1558e-275
1.27864e-272
6.06002e-270
2.39157e-267
8.08668e-265
2.39246e-262
6.29354e-260
1.49096e-257
3.21413e-255
6.35968e-253
1.16344e-250
1.98015e-248
3.15249e-246
4.71703e-244
6.66141e-242
8.91189e-240
1.13328e-237
1.37398e-235
1.59254e-233
1.76911e-231
1.88783e-229
1.93921e-227
1.92123e-225
1.83904e-223
1.70363e-221
1.52963e-219
1.33299e-217
1.12891e-215
9.30249e-214
7.4665e-212
5.84317e-210
4.46264e-208
3.32894e-206
2.42725e-204
1.73104e-202
1.20819e-200
8.25679e-199
5.52737e-197
3.62573e-195
2.331e-193
1.46898e-191
9.07468e-190
5.49478e-188
3.26051e-186
1.77894e-184
8.38535e-183
3.38409e-181
1.159e-179
3.34099e-178
8.04882e-177
1.61174e-175
2.67351e-174
3.67057e-173
4.18842e-172
4.02629e-171
3.28773e-170
2.24748e-169
1.29597e-168
6.60421e-168
3.06383e-167
1.26472e-166
4.5485e-166
1.43576e-165
4.10867e-165
1.10464e-164
2.82073e-164
6.79434e-164
1.52928e-163
3.20472e-163
6.26101e-163
1.14694e-162
1.98707e-162
3.28703e-162
5.22862e-162
8.04502e-162
1.20175e-161
1.74637e-161
2.47166e-161
3.40995e-161
4.58965e-161
6.03251e-161
7.74884e-161
9.73666e-161
1.19815e-160
1.44542e-160
1.71125e-160
1.99026e-160
2.27603e-160
2.56149e-160
2.83921e-160
3.10177e-160
3.34235e-160
3.55154e-160
3.681e-160
3.29264e-160
6.95788e-161
9.65649e-169
2.81355e-166
1.12519e-158
4.98405e-158
5.53406e-158
5.34918e-158
5.05351e-158
4.71262e-158
4.33841e-158
3.93969e-158
3.52641e-158
3.10885e-158
2.69706e-158
2.3005e-158
1.92733e-158
1.58438e-158
1.27669e-158
1.00731e-158
7.77504e-159
5.86656e-159
4.32324e-159
3.10911e-159
2.18039e-159
1.4895e-159
9.89196e-160
6.36286e-160
3.94074e-160
2.33343e-160
1.30831e-160
6.88744e-161
3.38567e-161
1.55239e-161
6.66631e-162
2.70829e-162
1.04828e-162
3.81886e-163
1.26146e-163
3.65551e-164
9.24158e-165
2.0888e-165
4.32029e-166
7.88872e-167
1.21004e-167
1.55455e-168
1.70078e-169
1.56513e-170
1.19361e-171
7.51694e-173
3.91401e-174
1.69124e-175
6.0992e-177
1.84923e-178
4.75287e-180
1.04465e-181
1.98096e-183
3.43383e-185
5.82458e-187
9.67097e-189
1.57209e-190
2.50219e-192
3.89923e-194
5.94823e-196
8.88056e-198
1.29714e-199
1.85284e-201
2.58682e-203
3.52779e-205
4.69618e-207
6.09745e-209
7.71496e-211
9.50341e-213
1.13848e-214
1.32485e-216
1.49574e-218
1.63605e-220
1.73118e-222
1.76926e-224
1.74334e-226
1.65304e-228
1.5052e-230
1.31319e-232
1.09497e-234
8.70236e-237
6.57232e-239
4.70108e-241
3.17287e-243
2.01218e-245
1.1934e-247
6.58353e-250
3.35723e-252
1.57106e-254
6.68888e-257
2.56425e-259
8.7393e-262
2.60568e-264
6.65569e-267
1.41552e-269
2.40557e-272
3.06155e-275
2.59319e-278
1.09657e-281
1.88255e-281
4.42922e-278
5.1944e-275
4.05233e-272
2.36705e-269
1.10472e-266
4.29276e-264
1.42906e-261
4.162e-259
1.07766e-256
2.51264e-254
5.33031e-252
1.03775e-249
1.86773e-247
3.12695e-245
4.89627e-243
7.2045e-241
1.00036e-238
1.31565e-236
1.64442e-234
1.9592e-232
2.23113e-230
2.43464e-228
2.55147e-226
2.57334e-224
2.50254e-222
2.35076e-220
2.13637e-218
1.8812e-216
1.60723e-214
1.334e-212
1.07688e-210
8.46397e-209
6.48331e-207
4.84413e-205
3.53324e-203
2.51751e-201
1.75339e-199
1.19432e-197
7.9595e-196
5.19189e-194
3.31547e-192
2.07303e-190
1.26919e-188
7.60803e-187
4.4643e-185
2.56345e-183
1.34371e-181
6.05865e-180
2.3287e-178
7.56382e-177
2.05978e-175
4.67202e-174
8.78518e-173
1.36592e-171
1.75521e-170
1.87188e-169
1.68431e-168
1.2937e-167
8.32818e-167
4.51581e-166
2.16833e-165
9.53823e-165
3.75011e-164
1.28712e-163
3.88076e-163
1.06199e-162
2.73799e-162
6.72715e-162
1.5638e-161
3.40493e-161
6.91664e-161
1.31229e-160
2.33841e-160
3.94656e-160
6.36889e-160
9.89723e-160
1.48986e-159
2.18047e-159
3.10879e-159
4.32252e-159
5.86578e-159
7.77504e-159
1.00754e-158
1.27734e-158
1.58573e-158
1.92977e-158
2.30454e-158
2.70331e-158
3.11801e-158
3.5392e-158
3.9568e-158
4.36037e-158
4.73978e-158
5.0859e-158
5.3857e-158
5.5681e-158
4.98232e-158
1.08664e-158
2.44735e-166
5.97865e-164
1.45752e-156
6.29277e-156
6.99346e-156
6.77747e-156
6.42443e-156
6.01594e-156
5.56581e-156
5.08374e-156
4.58093e-156
4.0692e-156
3.56032e-156
3.06563e-156
2.59522e-156
2.15789e-156
1.76055e-156
1.40791e-156
1.10262e-156
8.45097e-157
6.33326e-157
4.63727e-157
3.31516e-157
2.31169e-157
1.56925e-157
1.03324e-157
6.55988e-158
3.98815e-158
2.29976e-158
1.24763e-158
6.33385e-159
3.00603e-159
1.33918e-159
5.65966e-160
2.28573e-160
8.71069e-161
3.01407e-161
9.16248e-162
2.4358e-162
5.81589e-163
1.27844e-163
2.48494e-164
4.05174e-165
5.54328e-166
6.49284e-167
6.40324e-168
5.22462e-169
3.51558e-170
1.95249e-171
8.97607e-173
3.43302e-174
1.09985e-175
2.97532e-177
6.85532e-179
1.35717e-180
2.43734e-182
4.27652e-184
7.3343e-186
1.22989e-187
2.01694e-189
3.23497e-191
5.07427e-193
7.78276e-195
1.1669e-196
1.70968e-198
2.44665e-200
3.41796e-202
4.65815e-204
6.18858e-206
8.0082e-208
1.00842e-209
1.23442e-211
1.46727e-213
1.69141e-215
1.88838e-217
2.03892e-219
2.12562e-221
2.13596e-223
2.06491e-225
1.91652e-227
1.70392e-229
1.44757e-231
1.17192e-233
9.01414e-236
6.56553e-238
4.51149e-240
2.91247e-242
1.75808e-244
9.86982e-247
5.12116e-249
2.43814e-251
1.05595e-253
4.11739e-256
1.42711e-258
4.32684e-261
1.12373e-263
2.42973e-266
4.19747e-269
5.42989e-272
4.67432e-275
2.00866e-278
3.55809e-278
8.23518e-275
9.49978e-272
7.28906e-269
4.18713e-266
1.92158e-263
7.34159e-261
2.40272e-258
6.87869e-256
1.75058e-253
4.01121e-251
8.36158e-249
1.59942e-246
2.82783e-244
4.6502e-242
7.1509e-240
1.03318e-237
1.40841e-235
1.81821e-233
2.23028e-231
2.60728e-229
2.91276e-227
3.11736e-225
3.20341e-223
3.16721e-221
3.01859e-219
2.77808e-217
2.47282e-215
2.13199e-213
1.7828e-211
1.44772e-209
1.14293e-207
8.78115e-206
6.57179e-204
4.79489e-202
3.41318e-200
2.37195e-198
1.61012e-196
1.06812e-194
6.92705e-193
4.39296e-191
2.72468e-189
1.65289e-187
9.80644e-186
5.68892e-184
3.2259e-182
1.78716e-180
8.96634e-179
3.85216e-177
1.40454e-175
4.30936e-174
1.10425e-172
2.3492e-171
4.13343e-170
6.00519e-169
7.2034e-168
7.16023e-167
6.01394e-166
4.33637e-165
2.62491e-164
1.33666e-163
6.03853e-163
2.51462e-162
9.40157e-162
3.0758e-161
8.85262e-161
2.31569e-160
5.72193e-160
1.35148e-159
3.02835e-159
6.37035e-159
1.25301e-158
2.3069e-158
3.99687e-158
6.56979e-158
1.03423e-157
1.57007e-157
2.31217e-157
3.3151e-157
4.63643e-157
6.33153e-157
8.44868e-157
1.10242e-156
1.40791e-156
1.76096e-156
2.15899e-156
2.59743e-156
3.06946e-156
3.56639e-156
4.07819e-156
4.59352e-156
5.10047e-156
5.58707e-156
6.04192e-156
6.45498e-156
6.81131e-156
7.0236e-156
6.28424e-156
1.41193e-156
5.26775e-164
1.08559e-161
1.57178e-154
6.62313e-154
7.36919e-154
7.16163e-154
6.81302e-154
6.40799e-154
5.95978e-154
5.47709e-154
4.97023e-154
4.45031e-154
3.92868e-154
3.4165e-154
2.92399e-154
2.46045e-154
2.0336e-154
1.6492e-154
1.31119e-154
1.0213e-154
7.78642e-155
5.80634e-155
4.23211e-155
3.01245e-155
2.09021e-155
1.40869e-155
9.16854e-156
5.72464e-156
3.39725e-156
1.90146e-156
9.98508e-157
4.91384e-157
2.27461e-157
1.00102e-157
4.21998e-158
1.68276e-158
6.10379e-159
1.94965e-159
5.4619e-160
1.38021e-160
3.22889e-161
6.68943e-162
1.16149e-162
1.69614e-163
2.13303e-164
2.26047e-165
1.97854e-166
1.42697e-167
8.4831e-169
4.16478e-170
1.69582e-171
5.76336e-173
1.64751e-174
3.99492e-176
8.289e-178
1.54712e-179
2.81618e-181
5.00258e-183
8.67631e-185
1.46969e-186