/*--------------------------------*- C++ -*----------------------------------*\
| =========                 |                                                 |
| \\      /  F ield         | OpenFOAM: The Open Source CFD Toolbox           |
|  \\    /   O peration     | Version:  2412                                  |
|   \\  /    A nd           | Website:  www.openfoam.com                      |
|    \\/     M anipulation  |                                                 |
\*---------------------------------------------------------------------------*/
FoamFile
{
    version     2.0;
    format      ascii;
    arch        "LSB;label=32;scalar=64";
    class       surfaceScalarField;
    location    "1.13";
    object      alphaPhi0.water;
}
// * * * * * * * * * * * * * * * * * * * * * * * * * * * * * * * * * * * * * //

dimensions      [0 3 -1 0 0 0 0];

oriented        oriented;

internalField   nonuniform List<scalar> 
79600
(
2.11221e-202
-9.08416e-199
6.05483e-193
-1.12846e-189
5.96157e-192
-6.87422e-189
1.01351e-191
-8.31378e-189
1.31709e-191
-8.33845e-189
1.53012e-191
-7.88331e-189
1.65375e-191
-7.18824e-189
1.69508e-191
-6.37791e-189
1.66374e-191
-5.52402e-189
1.57288e-191
-4.67713e-189
1.43638e-191
-3.87072e-189
1.26876e-191
-3.12845e-189
1.08476e-191
-2.46721e-189
8.97767e-192
-1.89635e-189
7.19006e-192
-1.41881e-189
5.56886e-192
-1.03187e-189
4.16754e-192
-7.2841e-190
3.01074e-192
-4.98391e-190
2.09751e-192
-3.30069e-190
1.40757e-192
-2.1127e-190
9.08717e-193
-1.30503e-190
5.63651e-193
-7.76762e-191
3.35367e-193
-4.44702e-191
1.9098e-193
-2.44292e-191
1.03738e-193
-1.28303e-191
5.34765e-194
-6.4081e-192
2.59941e-194
-3.0233e-192
1.1813e-194
-1.3355e-192
4.97631e-195
-5.47527e-193
1.93001e-195
-2.06903e-193
6.86522e-196
-7.1795e-194
2.23905e-196
-2.2875e-194
6.71726e-197
-6.71677e-195
1.85863e-197
-1.8229e-195
4.71011e-198
-4.53873e-196
1.06876e-198
-1.0122e-196
2.11582e-199
-1.96805e-197
3.60746e-200
-3.29306e-198
5.31794e-201
-4.76511e-199
6.83624e-202
-6.01853e-200
7.59144e-203
-6.56296e-201
7.12804e-204
-6.03356e-202
5.58988e-205
-4.61477e-203
3.65551e-206
-2.93115e-204
1.99408e-207
-1.54478e-205
9.07754e-209
-6.74525e-207
3.4543e-210
-2.439e-208
1.10228e-211
-7.30628e-210
2.96094e-213
-1.81306e-211
6.71701e-215
-3.71474e-213
1.28797e-216
-6.21104e-215
2.07831e-218
-8.19556e-217
2.77741e-220
-7.66608e-219
2.93531e-222
-2.56014e-221
2.81042e-224
2.03453e-227
2.66052e-226
4.68824e-229
2.48837e-228
7.00066e-231
2.29792e-230
8.91826e-233
2.09374e-232
1.04028e-234
1.88087e-234
1.14332e-236
1.66459e-236
1.20088e-238
1.45014e-238
1.21497e-240
1.24247e-240
1.18956e-242
1.04603e-242
1.13025e-244
8.64478e-245
1.0439e-246
7.00612e-247
9.38063e-249
5.56214e-249
8.20454e-251
4.32064e-251
6.98427e-253
3.27997e-253
5.78495e-255
2.43022e-255
4.6597e-257
1.75501e-257
3.64735e-259
1.23351e-259
2.77182e-261
8.42481e-262
2.04295e-263
5.58227e-264
1.45854e-265
3.58202e-266
1.00726e-267
2.22169e-268
6.71812e-270
1.3292e-270
4.32012e-272
7.65403e-273
2.67343e-274
4.23199e-275
1.5888e-276
2.24091e-277
9.04725e-279
1.13318e-279
4.9241e-281
5.45522e-282
2.55451e-283
2.49159e-284
1.25934e-285
1.07555e-286
5.8799e-288
4.36943e-289
2.59036e-290
1.66251e-291
1.07222e-292
5.89214e-294
4.15025e-295
1.93291e-296
1.49405e-297
5.82628e-299
4.97096e-300
1.59973e-301
1.5175e-302
3.95959e-304
4.21381e-305
8.72245e-307
1.05333e-307
1.68269e-309
2.34013e-310
2.78369e-312
4.54679e-313
3.83777e-315
7.56558e-316
4.23124e-318
1.04773e-318
3.49798e-321
1.16105e-321
0
0
0
0
0
0
0
0
-4.94066e-324
0
-6.08689e-321
0
-7.2504e-318
2.01579e-321
-6.47591e-315
1.79354e-318
-4.62841e-312
1.27561e-315
-2.75824e-309
7.55483e-313
-1.41022e-306
3.83368e-310
-6.31686e-304
1.70211e-307
-2.51926e-301
6.71931e-305
-9.06045e-299
2.38875e-302
-2.96928e-296
7.72748e-300
-8.94405e-294
2.29436e-297
-2.49448e-291
6.29803e-295
-6.4821e-289
1.60836e-292
-1.57803e-286
3.84191e-290
-3.61628e-284
8.62499e-288
-7.83441e-282
1.82743e-285
-1.61064e-279
3.66789e-283
-3.15303e-277
6.99758e-281
-5.89579e-275
1.27277e-278
-1.05602e-272
2.21314e-276
-1.81655e-270
3.68811e-274
-3.00815e-268
5.90355e-272
-4.80607e-266
9.09567e-270
-7.42349e-264
1.35141e-267
-1.11066e-261
1.9396e-265
-1.61242e-259
2.69329e-263
-2.27523e-257
3.62337e-261
-3.12534e-255
4.72864e-259
-4.18538e-253
5.99288e-257
-5.47185e-251
7.38281e-255
-6.99297e-249
8.84706e-253
-8.74682e-247
1.03182e-250
-1.07202e-244
1.17162e-248
-1.28882e-242
1.29525e-246
-1.52149e-240
1.3936e-244
-1.76545e-238
1.45798e-242
-2.01537e-236
1.48078e-240
-2.26537e-234
1.45593e-238
-2.50937e-232
1.3794e-236
-2.74138e-230
1.24945e-234
-2.95571e-228
1.06663e-232
-3.1473e-226
8.34121e-231
-3.31186e-224
5.56986e-229
-3.44602e-222
2.41813e-227
-3.25092e-220
-2.96511e-221
-2.42054e-218
-8.96834e-219
-1.49039e-216
-9.55431e-217
-7.71288e-215
-7.19797e-215
-3.36973e-213
-4.27302e-213
-1.24195e-211
-2.06707e-211
-3.84988e-210
-8.24536e-210
-1.00019e-208
-2.72193e-208
-2.17185e-207
-7.43936e-207
-3.93683e-206
-1.68352e-205
-5.95647e-205
-3.15767e-204
-7.52107e-204
-4.91763e-203
-7.93922e-203
-6.36521e-202
-7.09657e-202
-6.86122e-201
-5.48662e-201
-6.24488e-200
-3.70106e-200
-4.91388e-199
-2.15918e-199
-3.37682e-198
-1.08562e-198
-2.00727e-197
-4.76701e-198
-1.02755e-196
-1.87566e-197
-4.59058e-196
-6.76343e-197
-1.83833e-195
-2.24992e-196
-6.75807e-195
-6.88621e-196
-2.29687e-194
-1.93298e-195
-7.19569e-194
-4.97778e-195
-2.07045e-193
-1.18041e-194
-5.4719e-193
-2.59499e-194
-1.33319e-192
-5.33369e-194
-3.015e-192
-1.03374e-193
-6.38421e-192
-1.9016e-193
-1.27699e-191
-3.3377e-193
-2.42925e-191
-5.60864e-193
-4.4195e-191
-9.04283e-193
-7.71698e-191
-1.40101e-192
-1.29636e-190
-2.08832e-192
-2.09868e-190
-2.99835e-192
-3.27891e-190
-4.15138e-192
-4.95103e-190
-5.54847e-192
-7.23554e-190
-7.16565e-192
-1.02483e-189
-8.95146e-192
-1.40886e-189
-1.08248e-191
-1.88289e-189
-1.26765e-191
-2.44998e-189
-1.43766e-191
-3.10769e-189
-1.5782e-191
-3.84738e-189
-1.67513e-191
-4.65337e-189
-1.71613e-191
-5.50372e-189
-1.69182e-191
-6.3717e-189
-1.59678e-191
-7.22668e-189
-1.42854e-191
-8.03567e-189
-1.17562e-191
-8.75458e-189
-7.44724e-192
-9.21557e-189
-7.17592e-193
-8.08506e-189
-1.32551e-202
-1.25297e-189
-5.7995e-199
1.43785e-198
-3.84255e-195
3.18004e-189
-3.59424e-186
2.76e-188
-1.99725e-185
4.36189e-188
-2.30537e-185
5.45331e-188
-2.26389e-185
6.23549e-188
-2.12997e-185
6.71422e-188
-1.94827e-185
6.89283e-188
-1.73906e-185
6.79554e-188
-1.51738e-185
6.46193e-188
-1.29488e-185
5.94125e-188
-1.08049e-185
5.28849e-188
-8.81002e-186
4.56036e-188
-7.01331e-186
3.80977e-188
-5.44484e-186
3.08256e-188
-4.11768e-186
2.41426e-188
-3.02943e-186
1.82877e-188
-2.16525e-186
1.33862e-188
-1.50146e-186
9.45953e-189
-1.00881e-186
6.44645e-189
-6.55826e-187
4.23168e-189
-4.11952e-187
2.67247e-189
-2.49667e-187
1.62132e-189
-1.45747e-187
9.42841e-190
-8.17586e-188
5.23783e-190
-4.39132e-188
2.7655e-190
-2.24607e-188
1.37876e-190
-1.08661e-188
6.43477e-191
-4.92763e-189
2.78725e-191
-2.07622e-189
1.11303e-191
-8.07294e-190
4.08306e-192
-2.88674e-190
1.37622e-192
-9.49727e-191
4.27861e-193
-2.88748e-191
1.23087e-193
-8.14086e-192
3.25309e-194
-2.11175e-192
7.71391e-195
-4.91345e-193
1.59797e-195
-9.9711e-194
2.85572e-196
-1.74293e-194
4.42621e-197
-2.64185e-195
6.00889e-198
-3.51011e-196
7.07182e-199
-4.03624e-197
7.05109e-200
-3.91153e-198
5.88345e-201
-3.15192e-199
4.10592e-202
-2.11012e-200
2.39841e-203
-1.17228e-201
1.17351e-204
-5.39151e-203
4.82139e-206
-2.05048e-204
1.67127e-207
-6.45066e-206
4.91942e-209
-1.67901e-207
1.23876e-210
-3.60681e-209
2.68889e-212
-6.3303e-211
5.06738e-214
-8.80776e-213
8.34176e-216
-8.81567e-215
1.20444e-217
-3.56307e-217
1.64551e-219
1.83676e-222
2.21697e-221
6.36006e-224
2.94405e-223
1.36815e-225
3.8516e-225
2.48632e-227
4.96143e-227
4.11676e-229
6.28893e-229
6.40107e-231
7.83904e-231
9.48712e-233
9.60182e-233
1.35145e-234
1.15482e-234
1.85941e-236
1.36265e-236
2.47833e-238
1.57608e-238
3.20575e-240
1.78518e-240
4.02838e-242
1.97815e-242
4.92006e-244
2.14209e-244
5.84096e-246
2.26421e-246
6.7387e-248
2.33324e-248
7.5517e-250
2.34099e-250
8.21486e-252
2.28361e-252
8.66704e-254
2.16261e-254
8.85953e-256
1.98504e-256
8.76402e-258
1.76296e-258
8.37844e-260
1.51215e-260
7.72923e-262
1.25012e-262
6.86911e-264
9.9398e-265
5.87028e-266
7.58313e-267
4.81428e-268
5.53671e-269
3.78053e-270
3.85809e-271
2.83566e-272
2.55784e-273
2.0261e-274
1.60796e-275
1.37489e-276
9.54854e-278
8.83147e-279
5.33355e-280
5.3498e-281
2.78892e-282
3.04345e-283
1.35778e-284
1.61831e-285
6.11604e-287
7.99978e-288
2.53036e-289
3.65346e-290
9.5326e-292
1.53031e-292
3.23621e-294
5.82851e-295
9.77484e-297
1.99772e-297
2.58484e-299
6.08371e-300
5.85995e-302
1.61984e-302
1.10687e-304
3.69265e-305
1.6717e-307
7.00456e-308
1.89185e-310
1.061e-310
1.42554e-313
1.20269e-313
5.36264e-317
9.06552e-317
4.94066e-324
3.40708e-320
-8.27567e-317
5.30083e-320
-2.1835e-313
1.39984e-316
-2.87546e-310
1.84268e-313
-2.52124e-307
1.61292e-310
-1.65656e-304
1.05657e-307
-8.70318e-302
5.52707e-305
-3.80999e-299
2.40601e-302
-1.43001e-296
8.96795e-300
-4.69937e-294
2.92276e-297
-1.3741e-291
8.46418e-295
-3.62102e-289
2.20603e-292
-8.68944e-287
5.22852e-290
-1.9154e-284
1.13666e-287
-3.90669e-282
2.28309e-285
-7.41933e-280
4.26351e-283
-1.31915e-277
7.44242e-281
-2.20636e-275
1.22016e-278
-3.48617e-273
1.88667e-276
-5.22342e-271
2.76161e-274
-7.44688e-269
3.83944e-272
-1.01331e-266
5.08526e-270
-1.31972e-264
6.43387e-268
-1.64929e-262
7.79489e-266
-1.9825e-260
9.06347e-264
-2.29707e-258
1.01346e-261
-2.57069e-256
1.09182e-259
-2.78387e-254
1.13514e-257
-2.92228e-252
1.14065e-255
-2.97832e-250
1.10932e-253
-2.95157e-248
1.04538e-251
-2.84825e-246
9.55543e-250
-2.67993e-244
8.47938e-248
-2.46163e-242
7.30989e-246
-2.20996e-240
6.12484e-244
-1.94124e-238
4.98907e-242
-1.67014e-236
3.95053e-240
-1.4087e-234
3.03947e-238
-1.16592e-232
2.26991e-236
-9.47676e-231
1.64253e-234
-7.57067e-229
1.14818e-232
-5.94844e-227
7.71561e-231
-4.59995e-225
4.94323e-229
-3.50305e-223
2.9747e-227
-2.62859e-221
1.63143e-225
-1.94443e-219
7.56377e-224
-1.41855e-217
2.18519e-222
-9.79227e-216
-4.18027e-217
-5.9207e-214
-1.03976e-214
-3.12261e-212
-1.03502e-212
-1.42786e-210
-7.39434e-211
-5.62066e-209
-4.18058e-209
-1.8904e-207
-1.92813e-207
-5.39345e-206
-7.32892e-206
-1.29738e-204
-2.30225e-204
-2.61997e-203
-5.978e-203
-4.43308e-202
-1.28334e-201
-6.2829e-201
-2.28175e-200
-7.45363e-200
-3.36948e-199
-7.40698e-199
-4.13768e-198
-6.24547e-198
-4.22903e-197
-4.57159e-197
-3.64886e-196
-2.93277e-196
-2.72888e-195
-1.63223e-195
-1.79007e-194
-7.84246e-195
-1.01848e-193
-3.29526e-194
-4.99486e-193
-1.24326e-193
-2.13881e-192
-4.31202e-193
-8.22139e-192
-1.38421e-192
-2.9095e-191
-4.09939e-192
-9.55065e-191
-1.11573e-191
-2.8977e-190
-2.79032e-191
-8.09072e-190
-6.43486e-191
-2.078e-189
-1.37755e-190
-4.92634e-189
-2.76095e-190
-1.08533e-188
-5.22564e-190
-2.24162e-188
-9.40116e-190
-4.37952e-188
-1.61604e-189
-8.14897e-188
-2.66329e-189
-1.45208e-187
-4.21711e-189
-2.48684e-187
-6.42513e-189
-4.10303e-187
-9.43034e-189
-6.53242e-187
-1.33488e-188
-1.00498e-186
-1.82427e-188
-1.49605e-186
-2.40925e-188
-2.15793e-186
-3.07774e-188
-3.01996e-186
-3.80661e-188
-4.1063e-186
-4.56124e-188
-5.43284e-186
-5.29701e-188
-7.0036e-186
-5.96206e-188
-8.80802e-186
-6.50112e-188
-1.08196e-185
-6.86099e-188
-1.29948e-185
-6.99533e-188
-1.52755e-185
-6.86994e-188
-1.75905e-185
-6.46634e-188
-1.98605e-185
-5.77752e-188
-2.20027e-185
-4.76002e-188
-2.39088e-185
-3.03945e-188
-2.51508e-185
-3.07357e-189
-2.21873e-185
-8.39534e-199
-3.59844e-186
-2.49283e-195
2.38505e-195
-6.16278e-192
4.07878e-186
-4.23689e-183
3.44286e-185
-2.26873e-182
5.31788e-185
-2.56057e-182
6.54354e-185
-2.48117e-182
7.43008e-185
-2.32395e-182
7.99088e-185
-2.12734e-182
8.2211e-185
-1.90578e-182
8.13913e-185
-1.67166e-182
7.7826e-185
-1.43564e-182
7.20285e-185
-1.20663e-182
6.45998e-185
-9.91774e-183
5.61763e-185
-7.96499e-183
4.7368e-185
-6.24338e-183
3.8718e-185
-4.77113e-183
3.06616e-185
-3.55015e-183
2.35069e-185
-2.56871e-183
1.74325e-185
-1.80498e-183
1.24941e-185
-1.23024e-183
8.64551e-186
-8.12246e-184
5.76976e-186
-5.18806e-184
3.70949e-186
-3.20155e-184
2.29427e-186
-1.90573e-184
1.36215e-186
-1.09169e-184
7.73729e-187
-5.9965e-185
4.18276e-187
-3.14095e-185
2.13794e-187
-1.55814e-185
1.02413e-187
-7.25357e-186
4.55822e-188
-3.14083e-186
1.87262e-188
-1.25656e-186
7.07794e-189
-4.63026e-187
2.46298e-189
-1.57304e-187
7.92723e-190
-4.95263e-188
2.36864e-190
-1.45088e-188
6.52074e-191
-3.92189e-189
1.61288e-191
-9.52113e-190
3.48656e-192
-2.01651e-190
6.5077e-193
-3.68182e-191
1.05633e-193
-5.84624e-192
1.50813e-194
-8.17411e-193
1.87105e-195
-9.91369e-194
1.96584e-196
-1.01246e-194
1.72741e-197
-8.59056e-196
1.27002e-198
-6.05858e-197
7.8158e-200
-3.5452e-198
4.02509e-201
-1.71476e-199
1.73783e-202
-6.84177e-201
6.3189e-204
-2.25143e-202
1.94788e-205
-6.11079e-204
5.13111e-207
-1.36471e-205
1.16494e-208
-2.48356e-207
2.29939e-210
-3.57768e-209
3.97927e-212
-3.71685e-211
6.08602e-214
-1.63343e-213
8.81039e-216
1.44454e-218
1.25631e-217
5.4507e-220
1.76386e-219
1.24859e-221
2.43734e-221
2.40457e-223
3.31318e-223
4.20952e-225
4.42806e-225
6.90995e-227
5.81513e-227
1.07996e-228
7.49888e-229
1.62072e-230
9.48875e-231
2.34728e-232
1.17722e-232
3.29084e-234
1.43079e-234
4.47453e-236
1.70202e-236
5.90683e-238
1.97971e-238
7.57456e-240
2.24921e-240
9.43651e-242
2.49321e-242
1.14192e-243
2.69321e-244
1.34168e-245
2.83138e-246
1.52955e-247
2.89299e-248
1.69052e-249
2.86861e-250
1.80961e-251
2.75602e-252
1.8739e-253
2.56116e-254
1.8747e-255
2.29793e-256
1.80923e-257
1.98663e-258
1.68159e-259
1.65137e-260
1.50251e-261
1.31676e-262
1.28799e-263
1.00461e-264
1.05693e-265
7.31307e-267
8.28242e-268
5.06393e-269
6.18122e-270
3.3242e-271
4.38027e-272
2.06092e-273
2.93763e-274
1.20163e-275
1.85759e-276
6.55758e-278
1.10293e-278
3.33133e-280
6.11988e-281
1.56557e-282
3.15635e-283
6.75666e-285
1.50374e-285
2.6549e-287
6.56968e-288
9.3995e-290
2.60954e-290
2.96043e-292
9.32664e-293
8.16223e-295
2.96138e-295
1.92911e-297
8.22023e-298
3.79851e-300
1.95342e-300
5.97995e-303
3.8623e-303
7.05408e-306
6.09761e-306
5.54082e-309
7.20392e-309
2.17365e-312
5.65991e-312
1.12314e-318
2.2181e-315
-3.27634e-312
3.36737e-315
-8.31401e-309
8.5537e-312
-1.05235e-305
1.08237e-308
-8.86604e-303
9.10448e-306
-5.59616e-300
5.73008e-303
-2.82389e-297
2.87938e-300
-1.18714e-294
1.20383e-297
-4.27812e-292
4.30874e-295
-1.34963e-289
1.34824e-292
-3.78774e-287
3.74801e-290
-9.57864e-285
9.37552e-288
-2.20547e-282
2.13233e-285
-4.66363e-280
4.44752e-283
-9.1232e-278
8.56932e-281
-1.66147e-275
1.53478e-278
-2.83221e-273
2.56899e-276
-4.54065e-271
4.03782e-274
-6.87555e-269
5.98431e-272
-9.87034e-267
8.39409e-270
-1.34792e-264
1.11807e-267
-1.75647e-262
1.4184e-265
-2.19011e-260
1.71842e-263
-2.61971e-258
1.99306e-261
-3.01311e-256
2.21789e-259
-3.33953e-254
2.37279e-257
-3.57382e-252
2.44495e-255
-3.69959e-250
2.43048e-253
-3.71103e-248
2.33437e-251
-3.61281e-246
2.1691e-249
-3.41864e-244
1.95225e-247
-3.14862e-242
1.70359e-245
-2.82624e-240
1.44257e-243
-2.4754e-238
1.18615e-241
-2.11797e-236
9.4746e-240
-1.77212e-234
7.35337e-238
-1.45141e-232
5.54456e-236
-1.1647e-230
4.05953e-234
-9.16503e-229
2.88302e-232
-7.07768e-227
1.98231e-230
-5.36787e-225
1.31557e-228
-4.00089e-223
8.38468e-227
-2.93234e-221
5.08893e-225
-2.11452e-219
2.89675e-223
-1.50091e-217
1.49931e-221
-1.04912e-215
6.5281e-220
-7.22377e-214
1.73061e-218
-4.70733e-212
-1.93884e-213
-2.70711e-210
-4.42609e-211
-1.3629e-208
-4.24325e-209
-5.95618e-207
-2.92684e-207
-2.24009e-205
-1.595e-205
-7.18947e-204
-7.0708e-204
-1.95401e-202
-2.57524e-202
-4.46935e-201
-7.72668e-201
-8.56836e-200
-1.91064e-199
-1.37516e-198
-3.89671e-198
-1.84897e-197
-6.57253e-197
-2.08194e-196
-9.20767e-196
-1.96254e-195
-1.0733e-194
-1.5693e-194
-1.04048e-193
-1.09212e-193
-8.50893e-193
-6.68945e-193
-6.04635e-192
-3.56424e-192
-3.78583e-191
-1.64097e-191
-2.06192e-190
-6.6099e-191
-9.68842e-190
-2.39414e-190
-3.97591e-189
-7.99483e-190
-1.46661e-188
-2.47912e-189
-4.99533e-188
-7.11147e-189
-1.58351e-187
-1.87846e-188
-4.65271e-187
-4.56622e-188
-1.26062e-186
-1.02479e-187
-3.14665e-186
-2.13744e-187
-7.25889e-186
-4.1789e-187
-1.5579e-185
-7.72566e-187
-3.13829e-185
-1.35948e-186
-5.98796e-185
-2.28905e-186
-1.08963e-184
-3.70044e-186
-1.90154e-184
-5.75548e-186
-3.19396e-184
-8.62477e-186
-5.17559e-184
-1.24664e-185
-8.10354e-184
-1.73989e-185
-1.2276e-183
-2.34703e-185
-1.80163e-183
-3.06277e-185
-2.56485e-183
-3.86981e-185
-3.54644e-183
-4.73815e-185
-4.76902e-183
-5.6251e-185
-6.24573e-183
-6.47737e-185
-7.97663e-183
-7.2349e-185
-9.94631e-183
-7.83505e-185
-1.21235e-182
-8.21884e-185
-1.446e-182
-8.33597e-185
-1.68935e-182
-8.15018e-185
-1.93494e-182
-7.64325e-185
-2.1746e-182
-6.80996e-185
-2.39988e-182
-5.60253e-185
-2.59987e-182
-3.58966e-185
-2.73e-182
-3.78128e-186
-2.41496e-182
-1.56155e-195
-4.07386e-183
-4.2775e-192
2.29376e-192
-5.94805e-189
2.85347e-183
-2.88648e-180
2.38079e-182
-1.51046e-179
3.65878e-182
-1.68854e-179
4.47904e-182
-1.62512e-179
5.07703e-182
-1.51864e-179
5.46529e-182
-1.39139e-179
5.6397e-182
-1.25039e-179
5.60869e-182
-1.10193e-179
5.39342e-182
-9.51884e-180
5.02491e-182
-8.05503e-180
4.54084e-182
-6.67197e-180
3.98219e-182
-5.40445e-180
3.38921e-182
-4.27651e-180
2.7987e-182
-3.30202e-180
2.24115e-182
-2.48482e-180
1.73909e-182
-1.82e-180
1.3067e-182
-1.29594e-180
9.49919e-183
-8.96054e-181
6.67492e-183
-6.00868e-181
4.52929e-183
-3.90294e-181
2.96476e-183
-2.45265e-181
1.86958e-183
-1.48885e-181
1.13342e-183
-8.71065e-182
6.58349e-184
-4.89385e-182
3.64442e-184
-2.62549e-182
1.90993e-184
-1.33571e-182
9.39126e-185
-6.38416e-183
4.29523e-185
-2.84135e-183
1.81547e-185
-1.16986e-183
7.07066e-186
-4.44333e-184
2.54051e-186
-1.55928e-184
8.46685e-187
-5.08603e-185
2.62848e-187
-1.54897e-185
7.53977e-188
-4.36562e-186
1.94567e-188
-1.10637e-186
4.38915e-189
-2.44662e-187
8.5564e-190
-4.66868e-188
1.45479e-190
-7.7726e-189
2.18541e-191
-1.14502e-189
2.85925e-192
-1.46651e-190
3.16527e-193
-1.57999e-191
2.92809e-194
-1.41335e-192
2.26728e-195
-1.0519e-193
1.46921e-196
-6.49621e-195
7.95436e-198
-3.31113e-196
3.6012e-199
-1.38866e-197
1.36884e-200
-4.78864e-199
4.39642e-202
-1.3575e-200
1.20253e-203
-3.15572e-202
2.82548e-205
-5.95884e-204
5.75359e-207
-8.88436e-206
1.02437e-208
-9.55442e-208
1.60816e-210
-4.47374e-210
2.38139e-212
5.17645e-215
3.47051e-214
2.04107e-216
4.97599e-216
4.79926e-218
7.0167e-218
9.45353e-220
9.7268e-220
1.68993e-221
1.32488e-221
2.82959e-223
1.77218e-223
4.5072e-225
2.32647e-225
6.88907e-227
2.99535e-227
1.01556e-228
3.77948e-229
1.44845e-230
4.66978e-231
2.00258e-232
5.64492e-233
2.68689e-234
6.66964e-235
3.5005e-236
7.69456e-237
4.42893e-238
8.6581e-239
5.44113e-240
9.49084e-241
6.48816e-242
1.01223e-242
7.50455e-244
1.04893e-244
8.41287e-246
1.05458e-246
9.13167e-248
1.02704e-248
9.58613e-250
9.6725e-251
9.7197e-252
8.79296e-253
9.50475e-254
7.70053e-255
8.94945e-256
6.48284e-257
8.09903e-258
5.2343e-259
7.03043e-260
4.04295e-261
5.84097e-262
2.97905e-263
4.63327e-264
2.0877e-265
3.49963e-266
1.38676e-267
2.50955e-268
8.69838e-270
1.70283e-270
5.13039e-272
1.08928e-272
2.83182e-274
6.54176e-275
1.45487e-276
3.67098e-277
6.91361e-279
1.91453e-279
3.01676e-281
9.22219e-282
1.19834e-283
4.07323e-284
4.28856e-286
1.63547e-286
1.36519e-288
5.908e-289
3.80392e-291
1.89583e-291
9.08497e-294
5.31788e-294
1.80753e-296
1.2769e-296
2.87502e-299
2.55079e-299
3.42628e-302
4.06838e-302
2.71879e-305
4.8555e-305
1.07754e-308
3.85355e-308
6.78329e-315
1.5256e-311
-1.63202e-308
2.32714e-311
-4.10173e-305
5.85518e-308
-5.14086e-302
7.33697e-305
-4.28814e-299
6.11076e-302
-2.67942e-296
3.80757e-299
-1.33834e-293
1.89404e-296
-5.56851e-291
7.83808e-294
-1.98592e-288
2.77655e-291
-6.19938e-286
8.59774e-289
-1.72144e-283
2.36502e-286
-4.30668e-281
5.85322e-284
-9.80877e-279
1.31695e-281
-2.05144e-276
2.71703e-279
-3.9687e-274
5.17766e-277
-7.14664e-272
9.17037e-275
-1.20443e-269
1.51774e-272
-1.90879e-267
2.35839e-270
-2.8567e-265
3.45503e-268
-4.05264e-263
4.78975e-266
-5.46824e-261
6.30433e-264
-7.03918e-259
7.90175e-262
-8.669e-257
9.45656e-260
-1.02398e-254
1.08324e-257
-1.16279e-252
1.19031e-255
-1.27212e-250
1.25719e-253
-1.34347e-248
1.27861e-251
-1.37215e-246
1.25426e-249
-1.35764e-244
1.18845e-247
-1.30336e-242
1.08917e-245
-1.21583e-240
9.66567e-244
-1.1036e-238
8.31415e-242
-9.75958e-237
6.93761e-240
-8.4188e-235
5.61933e-238
-7.09168e-233
4.42003e-236
-5.83951e-231
3.37677e-234
-4.70489e-229
2.50524e-232
-3.7124e-227
1.80395e-230
-2.8711e-225
1.25934e-228
-2.178e-223
8.50691e-227
-1.62174e-221
5.5431e-225
-1.18602e-219
3.46628e-223
-8.5237e-218
2.0624e-221
-6.0229e-216
1.14961e-219
-4.18606e-214
5.81713e-218
-2.86273e-212
2.46725e-216
-1.92686e-210
6.25787e-215
-1.22305e-208
-5.37269e-210
-6.83465e-207
-1.14963e-207
-3.33382e-205
-1.06416e-205
-1.40696e-203
-7.08796e-204
-5.09212e-202
-3.71992e-202
-1.56719e-200
-1.58281e-200
-4.07071e-199
-5.51382e-199
-8.87089e-198
-1.57704e-197
-1.61628e-196
-3.70619e-196
-2.46165e-195
-7.16607e-195
-3.14084e-194
-1.14431e-193
-3.35785e-193
-1.51821e-192
-3.00285e-192
-1.67786e-191
-2.27631e-191
-1.54117e-190
-1.50542e-190
-1.19316e-189
-8.80273e-190
-8.04619e-189
-4.49026e-189
-4.80485e-188
-1.98086e-188
-2.5037e-187
-7.64751e-188
-1.1266e-186
-2.65835e-187
-4.42868e-186
-8.5443e-187
-1.56679e-185
-2.55879e-186
-5.13336e-185
-7.1087e-186
-1.57078e-184
-1.82227e-185
-4.46809e-184
-4.30536e-185
-1.17446e-183
-9.40285e-185
-2.84857e-183
-1.91062e-184
-6.3932e-183
-3.64339e-184
-1.33643e-182
-6.57817e-184
-2.62523e-182
-1.13204e-183
-4.89083e-182
-1.86679e-183
-8.70173e-182
-2.95989e-183
-1.48693e-181
-4.52166e-183
-2.44914e-181
-6.66409e-183
-3.89725e-181
-9.48543e-183
-6.00042e-181
-1.30517e-182
-8.94996e-181
-1.73772e-182
-1.2948e-180
-2.24048e-182
-1.81915e-180
-2.7996e-182
-2.48496e-180
-3.39305e-182
-3.30443e-180
-3.99079e-182
-4.28341e-180
-4.55647e-182
-5.41924e-180
-5.05028e-182
-6.69969e-180
-5.43152e-182
-8.10306e-180
-5.66269e-182
-9.5976e-180
-5.7126e-182
-1.11436e-179
-5.55949e-182
-1.26946e-179
-5.19341e-182
-1.42004e-179
-4.61275e-182
-1.56101e-179
-3.78729e-182
-1.68573e-179
-2.43213e-182
-1.76642e-179
-2.66184e-183
-1.56572e-179
-1.66562e-192
-2.74236e-180
-4.39306e-189
1.59374e-189
-4.06493e-186
1.37408e-180
-1.34735e-177
1.1268e-179
-6.89635e-177
1.73149e-179
-7.68296e-177
2.11845e-179
-7.37569e-177
2.40273e-179
-6.88967e-177
2.59196e-179
-6.32268e-177
2.6842e-179
-5.70092e-177
2.68205e-179
-5.0473e-177
2.59393e-179
-4.38504e-177
2.43287e-179
-3.73564e-177
2.2152e-179
-3.11789e-177
1.95915e-179
-2.54718e-177
1.68306e-179
-2.03465e-177
1.40412e-179
-1.58735e-177
1.13704e-179
-1.20807e-177
8.93106e-180
-8.95781e-178
6.7996e-180
-6.464e-178
5.01424e-180
-4.53448e-178
3.5784e-180
-3.08866e-178
2.46917e-180
-2.04051e-178
1.64581e-180
-1.30598e-178
1.05836e-180
-8.08612e-179
6.55277e-181
-4.8326e-179
3.89287e-181
-2.77754e-179
2.20709e-181
-1.52651e-179
1.18616e-181
-7.96594e-180
5.98801e-182
-3.9099e-180
2.81485e-182
-1.78903e-180
1.22436e-182
-7.58261e-181
4.9149e-183
-2.96962e-181
1.82405e-183
-1.0769e-181
6.29759e-184
-3.64097e-182
2.03238e-184
-1.1535e-182
6.07815e-185
-3.39177e-183
1.63727e-185
-8.97816e-184
3.8562e-186
-2.07422e-184
7.85608e-187
-4.13955e-185
1.40035e-187
-7.23308e-186
2.21624e-188
-1.12424e-186
3.06172e-189
-1.52267e-187
3.57518e-190
-1.73276e-188
3.48624e-191
-1.63658e-189
2.84823e-192
-1.28814e-190
1.94748e-193
-8.41649e-192
1.11078e-194
-4.53204e-193
5.28408e-196
-2.00304e-194
2.1038e-197
-7.25779e-196
7.05285e-199
-2.15483e-197
2.00625e-200
-5.22861e-199
4.88401e-202
-1.02716e-200
1.02661e-203
-1.58901e-202
1.87986e-205
-1.77262e-204
3.02471e-207
-8.82819e-207
4.57184e-209
1.22227e-211
6.79488e-211
5.02566e-213
9.92771e-213
1.21022e-214
1.42549e-214
2.43279e-216
2.01081e-216
4.43091e-218
2.78532e-218
7.55087e-220
3.78666e-220
1.22313e-221
5.04967e-222
1.89987e-223
6.60107e-224
2.84452e-225
8.45279e-226
4.11829e-227
1.05945e-227
5.77705e-229
1.29863e-229
7.86105e-231
1.55528e-231
1.03825e-232
1.8181e-233
1.33123e-234
2.07226e-235
1.65683e-236
2.30026e-237
2.00079e-238
2.48357e-239
2.34297e-240
2.60468e-241
2.65843e-242
2.64961e-243
2.91981e-244
2.61024e-245
3.10071e-246
2.4861e-247
3.17968e-248
2.28512e-249
3.14402e-250
2.02301e-251
2.99269e-252
1.72131e-253
2.73736e-254
1.40439e-255
2.40121e-256
1.09593e-257
2.01559e-258
8.15727e-260
1.6151e-260
5.77359e-262
1.23213e-262
3.87277e-264
8.92249e-265
2.45267e-266
6.11295e-267
1.46038e-268
3.94771e-269
8.1365e-271
2.39311e-271
4.21885e-273
1.35537e-273
2.02311e-275
7.13329e-276
8.90731e-278
3.46704e-278
3.56966e-280
1.54494e-280
1.2887e-282
6.25768e-283
4.13787e-285
2.28014e-285
1.16283e-287
7.37947e-288
2.80069e-290
2.08748e-290
5.61876e-293
5.05425e-293
9.01091e-296
1.01801e-295
1.08264e-298
1.63694e-298
8.66041e-302
1.96945e-301
3.45992e-305
1.57556e-304
2.25873e-311
6.28714e-308
-5.30411e-305
9.70809e-308
-1.32244e-301
2.4233e-304
-1.64406e-298
3.01226e-301
-1.36015e-295
2.48852e-298
-8.42852e-293
1.53788e-295
-4.17473e-290
7.58671e-293
-1.72233e-287
3.11332e-290
-6.08987e-285
1.09352e-287
-1.8846e-282
3.35715e-285
-5.18733e-280
9.15462e-283
-1.28626e-277
2.24581e-280
-2.90325e-275
5.00811e-278
-6.01676e-273
1.02395e-275
-1.15328e-270
1.9335e-273
-2.05737e-268
3.3929e-271
-3.43448e-266
5.56287e-269
-5.39072e-264
8.56201e-267
-7.98912e-262
1.24225e-264
-1.12215e-259
1.70532e-262
-1.4989e-257
2.22228e-260
-1.9098e-255
2.75729e-258
-2.32754e-253
3.26601e-256
-2.72021e-251
3.70218e-254
-3.05569e-249
4.02492e-252
-3.30631e-247
4.20513e-250
-3.45271e-245
4.22966e-248
-3.48617e-243
4.10245e-246
-3.4091e-241
3.84262e-244
-3.23381e-239
3.48032e-242
-2.9799e-237
3.05153e-240
-2.67109e-235
2.59264e-238
-2.33197e-233
2.13621e-236
-1.98523e-231
1.70799e-234
-1.64978e-229
1.32569e-232
-1.33968e-227
9.99005e-231
-1.06402e-225
7.3078e-229
-8.27248e-224
5.1861e-227
-6.30097e-222
3.56636e-225
-4.70517e-220
2.37184e-223
-3.44684e-218
1.52068e-221
-2.47855e-216
9.35026e-220
-1.75036e-214
5.46571e-218
-1.2145e-212
2.98997e-216
-8.2826e-211
1.48233e-214
-5.55342e-209
6.13786e-213
-3.66156e-207
1.49237e-211
-2.26709e-205
-1.07334e-206
-1.23131e-203
-2.15677e-204
-5.81517e-202
-1.92341e-202
-2.36689e-200
-1.23381e-200
-8.2296e-199
-6.21852e-199
-2.42406e-197
-2.53228e-197
-6.00481e-196
-8.41295e-196
-1.24407e-194
-2.28734e-194
-2.14954e-193
-5.09503e-193
-3.10016e-192
-9.31566e-192
-3.74679e-191
-1.40483e-190
-3.79844e-190
-1.76138e-189
-3.21901e-189
-1.84288e-188
-2.31035e-188
-1.60194e-187
-1.45019e-187
-1.17246e-186
-8.08809e-187
-7.49322e-186
-3.94753e-186
-4.26334e-185
-1.66778e-185
-2.12396e-184
-6.16805e-185
-9.1473e-184
-2.05646e-184
-3.44246e-183
-6.35836e-184
-1.16732e-182
-1.83811e-183
-3.67668e-182
-4.9439e-183
-1.08541e-181
-1.22957e-182
-2.98771e-181
-2.82289e-182
-7.61638e-181
-5.99831e-182
-1.79448e-180
-1.18718e-181
-3.91736e-180
-2.20759e-181
-7.97424e-180
-3.8918e-181
-1.52715e-179
-6.5484e-181
-2.77733e-179
-1.05738e-180
-4.83037e-179
-1.64405e-180
-8.08034e-179
-2.46641e-180
-1.30488e-178
-3.5746e-180
-2.03872e-178
-5.00971e-180
-3.08618e-178
-6.79524e-180
-4.53167e-178
-8.92868e-180
-6.46186e-178
-1.13728e-179
-8.95852e-178
-1.40528e-179
-1.2088e-177
-1.68576e-179
-1.58936e-177
-1.96417e-179
-2.03896e-177
-2.22346e-179
-2.55527e-177
-2.44538e-179
-3.13185e-177
-2.61174e-179
-3.75837e-177
-2.7061e-179
-4.42044e-177
-2.71516e-179
-5.10056e-177
-2.63e-179
-5.77877e-177
-2.44709e-179
-6.43379e-177
-2.16653e-179
-7.04431e-177
-1.77504e-179
-7.58262e-177
-1.14209e-179
-7.92812e-177
-1.29733e-180
-7.03917e-177
-1.23673e-189
-1.27889e-177
-3.15081e-186
8.57148e-187
-2.12097e-183
4.98066e-178
-4.68119e-175
3.9919e-177
-2.33948e-174
6.13569e-177
-2.60353e-174
7.51416e-177
-2.49904e-174
8.53736e-177
-2.33678e-174
9.23593e-177
-2.14965e-174
9.60197e-177
-1.94538e-174
9.64131e-177
-1.7306e-174
9.37899e-177
-1.51225e-174
8.85595e-177
-1.297e-174
8.12519e-177
-1.09085e-174
7.24733e-177
-8.98844e-175
6.28474e-177
-7.24827e-175
5.29749e-177
-5.71402e-175
4.33838e-177
-4.39851e-175
3.44965e-177
-3.30215e-175
2.66153e-177
-2.41513e-175
1.99122e-177
-1.71912e-175
1.44341e-177
-1.18964e-175
1.01297e-177
-7.99495e-176
6.87655e-178
-5.21251e-176
4.51026e-178
-3.29247e-176
2.85249e-178
-2.01042e-176
1.73356e-178
-1.18231e-176
1.00683e-178
-6.65778e-177
5.55019e-179
-3.56448e-177
2.8772e-179
-1.79707e-177
1.39047e-179
-8.45614e-178
6.22582e-180
-3.69081e-178
2.57688e-180
-1.49107e-178
9.88241e-181
-5.59058e-179
3.53647e-181
-1.96036e-179
1.18718e-181
-6.46474e-180
3.70403e-182
-1.98448e-180
1.0421e-182
-5.48998e-181
2.56406e-183
-1.3259e-181
5.46284e-184
-2.7696e-182
1.02192e-184
-5.08468e-183
1.70629e-185
-8.35068e-184
2.4925e-186
-1.1977e-184
3.07384e-187
-1.4414e-185
3.16435e-188
-1.4397e-186
2.73359e-189
-1.20112e-187
1.97707e-190
-8.32437e-189
1.191e-191
-4.7478e-190
5.96889e-193
-2.21745e-191
2.49596e-194
-8.46685e-193
8.75841e-196
-2.64075e-194
2.59827e-197
-6.70903e-196
6.57159e-199
-1.3755e-197
1.42967e-200
-2.21483e-199
2.69929e-202
-2.57125e-201
4.46171e-204
-1.36628e-203
6.89668e-206
2.15131e-208
1.04725e-207
9.26866e-210
1.56192e-209
2.29101e-211
2.28757e-211
4.70887e-213
3.28897e-213
8.75335e-215
4.64037e-215
1.5207e-216
6.42174e-217
2.509e-218
8.71224e-219
3.96654e-220
1.15804e-220
6.04062e-222
1.50708e-222
8.8906e-224
1.91887e-224
1.26719e-225
2.38834e-226
1.75121e-227
2.90331e-228
2.348e-229
3.44363e-230
3.05503e-231
3.9811e-232
3.85698e-233
4.48083e-234
4.72317e-235
4.90396e-236
5.60689e-237
5.21183e-238
6.44725e-239
5.37112e-240
7.17428e-241
5.3592e-242
7.71694e-243
5.16858e-244
8.01345e-245
4.80944e-246
8.02181e-247
4.30946e-248
7.72867e-249
3.71053e-250
7.15384e-251
3.06288e-252
6.34916e-253
2.41776e-254
5.39122e-255
1.82005e-256
4.36923e-257
1.30263e-258
3.37062e-259
8.83413e-261
2.46783e-261
5.65563e-263
1.70918e-263
3.40366e-265
1.11565e-265
1.91643e-267
6.83482e-268
1.00408e-269
3.91152e-270
4.86468e-272
2.07991e-272
2.16366e-274
1.02124e-274
8.75843e-277
4.59666e-277
3.19342e-279
1.88042e-279