/*--------------------------------*- C++ -*----------------------------------*\
| =========                 |                                                 |
| \\      /  F ield         | OpenFOAM: The Open Source CFD Toolbox           |
|  \\    /   O peration     | Version:  2412                                  |
|   \\  /    A nd           | Website:  www.openfoam.com                      |
|    \\/     M anipulation  |                                                 |
\*---------------------------------------------------------------------------*/
FoamFile
{
    version     2.0;
    format      ascii;
    arch        "LSB;label=32;scalar=64";
    class       volScalarField;
    location    "1.13";
    object      p;
}
// * * * * * * * * * * * * * * * * * * * * * * * * * * * * * * * * * * * * * //

dimensions      [1 -1 -2 0 0 0 0];

internalField   nonuniform List<scalar> 
40000
(
0
-4.14867e-05
-0.000207976
-0.000516952
-0.000970113
-0.00156752
-0.00230851
-0.00319208
-0.0042171
-0.00538261
-0.00668772
-0.00813148
-0.00971273
-0.0114302
-0.0132826
-0.0152684
-0.0173862
-0.0196342
-0.0220106
-0.0245137
-0.0271415
-0.0298919
-0.0327627
-0.0357516
-0.0388562
-0.042074
-0.0454024
-0.0488387
-0.05238
-0.0560233
-0.0597656
-0.0636038
-0.0675345
-0.0715543
-0.0756599
-0.0798476
-0.0841137
-0.0884545
-0.0928661
-0.0973445
-0.101886
-0.106485
-0.111139
-0.115844
-0.120593
-0.125384
-0.130211
-0.13507
-0.139956
-0.144865
-0.149791
-0.15473
-0.159676
-0.164625
-0.169571
-0.17451
-0.179436
-0.184345
-0.189231
-0.194088
-0.198912
-0.203698
-0.20844
-0.213133
-0.217772
-0.222352
-0.226868
-0.231314
-0.235687
-0.23998
-0.244189
-0.248309
-0.252335
-0.256263
-0.260088
-0.263806
-0.267412
-0.270902
-0.274272
-0.277517
-0.280635
-0.283621
-0.286472
-0.289184
-0.291754
-0.294179
-0.296456
-0.298582
-0.300554
-0.302371
-0.304029
-0.305528
-0.306864
-0.308037
-0.309044
-0.309885
-0.310559
-0.311064
-0.311401
-0.311568
-0.311566
-0.311395
-0.311054
-0.310545
-0.309867
-0.309022
-0.30801
-0.306834
-0.305493
-0.303991
-0.302328
-0.300508
-0.298531
-0.296402
-0.294121
-0.291692
-0.289118
-0.286402
-0.283547
-0.280557
-0.277435
-0.274186
-0.270812
-0.267319
-0.263709
-0.259988
-0.256159
-0.252227
-0.248198
-0.244074
-0.239862
-0.235565
-0.23119
-0.22674
-0.222221
-0.217638
-0.212996
-0.2083
-0.203555
-0.198767
-0.19394
-0.189079
-0.184191
-0.17928
-0.174351
-0.16941
-0.164461
-0.15951
-0.154561
-0.14962
-0.144692
-0.139781
-0.134893
-0.130031
-0.125202
-0.120409
-0.115657
-0.110951
-0.106295
-0.101694
-0.0971509
-0.0926707
-0.0882573
-0.0839148
-0.079647
-0.0754577
-0.0713506
-0.0673292
-0.0633971
-0.0595576
-0.0558139
-0.0521693
-0.0486267
-0.0451892
-0.0418597
-0.0386407
-0.035535
-0.0325449
-0.0296731
-0.0269216
-0.0242928
-0.0217887
-0.0194111
-0.0171623
-0.0150435
-0.0130568
-0.0112035
-0.00948491
-0.00790256
-0.00645738
-0.00515057
-0.00398331
-0.00295631
-0.00207035
-0.00132603
-0.000723886
-0.000264196
5.20844e-05
0.000223619
0.00025779
-3.92397
-3.924
-3.92417
-3.92448
-3.92493
-3.92553
-3.92627
-3.92715
-3.92818
-3.92934
-3.93065
-3.93209
-3.93368
-3.93539
-3.93725
-3.93923
-3.94135
-3.9436
-3.94598
-3.94848
-3.95111
-3.95386
-3.95673
-3.95972
-3.96283
-3.96604
-3.96937
-3.97281
-3.97635
-3.98
-3.98374
-3.98758
-3.99151
-3.99553
-3.99964
-4.00383
-4.0081
-4.01244
-4.01685
-4.02133
-4.02587
-4.03047
-4.03513
-4.03983
-4.04459
-4.04938
-4.05421
-4.05907
-4.06395
-4.06886
-4.07379
-4.07873
-4.08368
-4.08863
-4.09358
-4.09852
-4.10345
-4.10836
-4.11324
-4.1181
-4.12293
-4.12771
-4.13246
-4.13715
-4.14179
-4.14637
-4.15089
-4.15534
-4.15971
-4.16401
-4.16822
-4.17234
-4.17636
-4.18029
-4.18412
-4.18784
-4.19144
-4.19494
-4.19831
-4.20155
-4.20467
-4.20766
-4.21051
-4.21322
-4.21579
-4.21822
-4.2205
-4.22262
-4.2246
-4.22641
-4.22807
-4.22957
-4.23091
-4.23208
-4.23309
-4.23393
-4.2346
-4.23511
-4.23545
-4.23561
-4.23561
-4.23544
-4.2351
-4.23459
-4.23391
-4.23307
-4.23205
-4.23088
-4.22954
-4.22803
-4.22637
-4.22455
-4.22257
-4.22044
-4.21816
-4.21573
-4.21316
-4.21044
-4.20758
-4.20459
-4.20147
-4.19822
-4.19485
-4.19135
-4.18774
-4.18402
-4.18019
-4.17626
-4.17223
-4.1681
-4.16389
-4.15959
-4.15521
-4.15076
-4.14624
-4.14166
-4.13701
-4.13232
-4.12757
-4.12278
-4.11795
-4.11309
-4.1082
-4.10329
-4.09836
-4.09342
-4.08847
-4.08351
-4.07856
-4.07362
-4.06869
-4.06378
-4.05889
-4.05403
-4.0492
-4.0444
-4.03965
-4.03494
-4.03028
-4.02568
-4.02114
-4.01666
-4.01224
-4.0079
-4.00363
-3.99944
-3.99533
-3.99131
-3.98737
-3.98353
-3.97979
-3.97614
-3.9726
-3.96916
-3.96583
-3.96261
-3.9595
-3.95651
-3.95364
-3.95089
-3.94826
-3.94575
-3.94338
-3.94113
-3.93901
-3.93702
-3.93517
-3.93345
-3.93186
-3.93042
-3.92911
-3.92794
-3.92692
-3.92603
-3.92529
-3.92468
-3.92422
-3.92391
-3.92374
-3.92371
-7.8478
-7.84783
-7.848
-7.84831
-7.84877
-7.84936
-7.85011
-7.85099
-7.85202
-7.85318
-7.85449
-7.85594
-7.85752
-7.85924
-7.86109
-7.86308
-7.8652
-7.86745
-7.86983
-7.87234
-7.87497
-7.87772
-7.8806
-7.88359
-7.8867
-7.88992
-7.89325
-7.89669
-7.90024
-7.90389
-7.90763
-7.91148
-7.91541
-7.91944
-7.92355
-7.92774
-7.93201
-7.93636
-7.94078
-7.94526
-7.94981
-7.95441
-7.95908
-7.96379
-7.96854
-7.97334
-7.97817
-7.98304
-7.98793
-7.99285
-7.99778
-8.00273
-8.00768
-8.01264
-8.01759
-8.02254
-8.02747
-8.03239
-8.03728
-8.04215
-8.04698
-8.05177
-8.05652
-8.06122
-8.06587
-8.07045
-8.07498
-8.07943
-8.08381
-8.08811
-8.09232
-8.09645
-8.10048
-8.10442
-8.10825
-8.11197
-8.11559
-8.11908
-8.12246
-8.12571
-8.12883
-8.13182
-8.13468
-8.13739
-8.13997
-8.1424
-8.14468
-8.14681
-8.14878
-8.1506
-8.15226
-8.15376
-8.1551
-8.15628
-8.15729
-8.15813
-8.1588
-8.15931
-8.15965
-8.15982
-8.15981
-8.15964
-8.1593
-8.15879
-8.15811
-8.15726
-8.15625
-8.15507
-8.15373
-8.15223
-8.15056
-8.14874
-8.14676
-8.14462
-8.14234
-8.13991
-8.13733
-8.13461
-8.13175
-8.12875
-8.12563
-8.12237
-8.11899
-8.11549
-8.11188
-8.10815
-8.10431
-8.10038
-8.09634
-8.09221
-8.08799
-8.08369
-8.0793
-8.07485
-8.07032
-8.06573
-8.06108
-8.05638
-8.05163
-8.04683
-8.042
-8.03713
-8.03223
-8.02731
-8.02238
-8.01743
-8.01247
-8.00751
-8.00256
-7.99761
-7.99267
-7.98776
-7.98286
-7.97799
-7.97316
-7.96836
-7.9636
-7.95889
-7.95422
-7.94962
-7.94507
-7.94058
-7.93616
-7.93181
-7.92754
-7.92335
-7.91923
-7.91521
-7.91127
-7.90742
-7.90368
-7.90003
-7.89648
-7.89304
-7.8897
-7.88648
-7.88337
-7.88038
-7.8775
-7.87475
-7.87212
-7.86961
-7.86723
-7.86498
-7.86286
-7.86087
-7.85901
-7.85729
-7.85571
-7.85426
-7.85295
-7.85178
-7.85075
-7.84987
-7.84912
-7.84852
-7.84806
-7.84775
-7.84758
-7.84754
-11.7715
-11.7715
-11.7717
-11.772
-11.7725
-11.7731
-11.7738
-11.7747
-11.7757
-11.7769
-11.7782
-11.7796
-11.7812
-11.783
-11.7848
-11.7868
-11.7889
-11.7912
-11.7936
-11.7961
-11.7987
-11.8015
-11.8043
-11.8073
-11.8105
-11.8137
-11.817
-11.8205
-11.824
-11.8277
-11.8314
-11.8353
-11.8392
-11.8433
-11.8474
-11.8516
-11.8559
-11.8602
-11.8646
-11.8691
-11.8737
-11.8783
-11.883
-11.8877
-11.8925
-11.8973
-11.9021
-11.907
-11.9119
-11.9168
-11.9218
-11.9267
-11.9317
-11.9366
-11.9416
-11.9466
-11.9515
-11.9564
-11.9613
-11.9662
-11.9711
-11.9759
-11.9806
-11.9853
-11.99
-11.9946
-11.9991
-12.0036
-12.008
-12.0123
-12.0165
-12.0207
-12.0247
-12.0287
-12.0325
-12.0362
-12.0398
-12.0434
-12.0467
-12.05
-12.0531
-12.0561
-12.059
-12.0617
-12.0643
-12.0667
-12.069
-12.0712
-12.0731
-12.075
-12.0766
-12.0781
-12.0795
-12.0807
-12.0817
-12.0825
-12.0832
-12.0837
-12.084
-12.0842
-12.0842
-12.084
-12.0837
-12.0832
-12.0825
-12.0816
-12.0806
-12.0794
-12.0781
-12.0766
-12.0749
-12.0731
-12.0711
-12.069
-12.0667
-12.0642
-12.0616
-12.0589
-12.0561
-12.053
-12.0499
-12.0467
-12.0433
-12.0398
-12.0361
-12.0324
-12.0285
-12.0246
-12.0206
-12.0164
-12.0122
-12.0079
-12.0035
-11.999
-11.9945
-11.9899
-11.9852
-11.9805
-11.9757
-11.9709
-11.9661
-11.9612
-11.9563
-11.9514
-11.9464
-11.9415
-11.9365
-11.9315
-11.9265
-11.9216
-11.9166
-11.9117
-11.9068
-11.9019
-11.8971
-11.8923
-11.8875
-11.8828
-11.8781
-11.8735
-11.8689
-11.8644
-11.86
-11.8557
-11.8514
-11.8472
-11.8431
-11.839
-11.8351
-11.8312
-11.8275
-11.8238
-11.8203
-11.8168
-11.8135
-11.8102
-11.8071
-11.8041
-11.8012
-11.7985
-11.7958
-11.7933
-11.791
-11.7887
-11.7866
-11.7846
-11.7827
-11.781
-11.7794
-11.778
-11.7767
-11.7755
-11.7745
-11.7736
-11.7728
-11.7722
-11.7718
-11.7714
-11.7713
-11.7712
-15.695
-15.6951
-15.6952
-15.6956
-15.696
-15.6966
-15.6974
-15.6982
-15.6993
-15.7005
-15.7018
-15.7032
-15.7048
-15.7065
-15.7084
-15.7104
-15.7125
-15.7148
-15.7172
-15.7197
-15.7223
-15.7251
-15.728
-15.731
-15.7341
-15.7373
-15.7407
-15.7441
-15.7477
-15.7514
-15.7551
-15.759
-15.7629
-15.767
-15.7711
-15.7753
-15.7796
-15.784
-15.7884
-15.7929
-15.7975
-15.8021
-15.8068
-15.8116
-15.8163
-15.8212
-15.826
-15.8309
-15.8358
-15.8408
-15.8457
-15.8507
-15.8557
-15.8607
-15.8656
-15.8706
-15.8756
-15.8805
-15.8854
-15.8903
-15.8952
-15.9
-15.9048
-15.9095
-15.9142
-15.9188
-15.9234
-15.9278
-15.9323
-15.9366
-15.9408
-15.945
-15.949
-15.953
-15.9568
-15.9606
-15.9642
-15.9677
-15.9711
-15.9744
-15.9776
-15.9806
-15.9834
-15.9862
-15.9888
-15.9912
-15.9935
-15.9957
-15.9977
-15.9995
-16.0012
-16.0027
-16.004
-16.0052
-16.0062
-16.0071
-16.0077
-16.0083
-16.0086
-16.0088
-16.0088
-16.0086
-16.0082
-16.0077
-16.007
-16.0062
-16.0052
-16.004
-16.0026
-16.0011
-15.9994
-15.9976
-15.9956
-15.9935
-15.9912
-15.9887
-15.9861
-15.9834
-15.9805
-15.9775
-15.9743
-15.9711
-15.9677
-15.9641
-15.9605
-15.9567
-15.9529
-15.9489
-15.9449
-15.9407
-15.9365
-15.9321
-15.9277
-15.9232
-15.9187
-15.9141
-15.9094
-15.9047
-15.8999
-15.895
-15.8902
-15.8853
-15.8804
-15.8754
-15.8705
-15.8655
-15.8605
-15.8555
-15.8505
-15.8456
-15.8406
-15.8356
-15.8307
-15.8258
-15.821
-15.8161
-15.8114
-15.8066
-15.8019
-15.7973
-15.7927
-15.7882
-15.7838
-15.7794
-15.7751
-15.7709
-15.7668
-15.7627
-15.7588
-15.7549
-15.7512
-15.7475
-15.7439
-15.7405
-15.7371
-15.7339
-15.7308
-15.7278
-15.7249
-15.7221
-15.7195
-15.7169
-15.7146
-15.7123
-15.7102
-15.7082
-15.7063
-15.7046
-15.703
-15.7015
-15.7002
-15.699
-15.698
-15.6971
-15.6964
-15.6958
-15.6953
-15.695
-15.6948
-15.6948
-19.6184
-19.6185
-19.6186
-19.619
-19.6194
-19.62
-19.6208
-19.6217
-19.6227
-19.6239
-19.6252
-19.6267
-19.6282
-19.63
-19.6318
-19.6338
-19.636
-19.6383
-19.6406
-19.6432
-19.6458
-19.6486
-19.6515
-19.6545
-19.6576
-19.6609
-19.6642
-19.6677
-19.6713
-19.675
-19.6787
-19.6826
-19.6866
-19.6906
-19.6948
-19.699
-19.7033
-19.7077
-19.7122
-19.7167
-19.7213
-19.7259
-19.7306
-19.7354
-19.7402
-19.745
-19.7499
-19.7548
-19.7597
-19.7647
-19.7697
-19.7747
-19.7797
-19.7847
-19.7897
-19.7947
-19.7997
-19.8046
-19.8096
-19.8145
-19.8194
-19.8242
-19.829
-19.8338
-19.8385
-19.8431
-19.8477
-19.8522
-19.8566
-19.8609
-19.8652
-19.8694
-19.8735
-19.8774
-19.8813
-19.8851
-19.8887
-19.8923
-19.8957
-19.899
-19.9021
-19.9052
-19.9081
-19.9108
-19.9134
-19.9159
-19.9182
-19.9203
-19.9223
-19.9242
-19.9259
-19.9274
-19.9287
-19.9299
-19.9309
-19.9318
-19.9325
-19.933
-19.9333
-19.9335
-19.9335
-19.9333
-19.933
-19.9325
-19.9318
-19.9309
-19.9299
-19.9287
-19.9273
-19.9258
-19.9241
-19.9223
-19.9203
-19.9181
-19.9158
-19.9133
-19.9107
-19.908
-19.9051
-19.9021
-19.8989
-19.8956
-19.8922
-19.8886
-19.885
-19.8812
-19.8773
-19.8733
-19.8693
-19.8651
-19.8608
-19.8565
-19.852
-19.8475
-19.843
-19.8383
-19.8336
-19.8289
-19.8241
-19.8192
-19.8143
-19.8094
-19.8045
-19.7995
-19.7945
-19.7895
-19.7845
-19.7795
-19.7745
-19.7695
-19.7645
-19.7596
-19.7546
-19.7497
-19.7448
-19.74
-19.7352
-19.7304
-19.7257
-19.7211
-19.7165
-19.712
-19.7075
-19.7031
-19.6988
-19.6946
-19.6904
-19.6864
-19.6824
-19.6785
-19.6747
-19.6711
-19.6675
-19.664
-19.6607
-19.6574
-19.6543
-19.6513
-19.6484
-19.6456
-19.6429
-19.6404
-19.638
-19.6358
-19.6336
-19.6316
-19.6297
-19.628
-19.6264
-19.625
-19.6236
-19.6225
-19.6214
-19.6205
-19.6198
-19.6192
-19.6187
-19.6184
-19.6182
-19.6182
-23.5417
-23.5417
-23.5419
-23.5422
-23.5427
-23.5433
-23.5441
-23.545
-23.546
-23.5472
-23.5485
-23.55
-23.5516
-23.5533
-23.5552
-23.5572
-23.5593
-23.5616
-23.564
-23.5665
-23.5692
-23.572
-23.5749
-23.5779
-23.5811
-23.5843
-23.5877
-23.5912
-23.5948
-23.5985
-23.6022
-23.6061
-23.6101
-23.6142
-23.6184
-23.6226
-23.6269
-23.6313
-23.6358
-23.6404
-23.645
-23.6496
-23.6544
-23.6591
-23.664
-23.6688
-23.6737
-23.6787
-23.6836
-23.6886
-23.6936
-23.6986
-23.7037
-23.7087
-23.7137
-23.7187
-23.7238
-23.7287
-23.7337
-23.7387
-23.7436
-23.7484
-23.7533
-23.758
-23.7628
-23.7674
-23.772
-23.7766
-23.781
-23.7854
-23.7897
-23.7939
-23.798
-23.802
-23.8059
-23.8097
-23.8134
-23.8169
-23.8204
-23.8237
-23.8268
-23.8299
-23.8328
-23.8356
-23.8382
-23.8407
-23.843
-23.8452
-23.8472
-23.849
-23.8507
-23.8523
-23.8536
-23.8548
-23.8558
-23.8567
-23.8574
-23.8579
-23.8582
-23.8584
-23.8584
-23.8582
-23.8579
-23.8574
-23.8567
-23.8558
-23.8548
-23.8536
-23.8522
-23.8507
-23.849
-23.8471
-23.8451
-23.8429
-23.8406
-23.8381
-23.8355
-23.8327
-23.8298
-23.8268
-23.8236
-23.8203
-23.8168
-23.8133
-23.8096
-23.8058
-23.8019
-23.7979
-23.7938
-23.7896
-23.7853
-23.7809
-23.7764
-23.7719
-23.7673
-23.7626
-23.7579
-23.7531
-23.7483
-23.7434
-23.7385
-23.7336
-23.7286
-23.7236
-23.7186
-23.7136
-23.7085
-23.7035
-23.6985
-23.6934
-23.6884
-23.6834
-23.6785
-23.6735
-23.6686
-23.6638
-23.6589
-23.6542
-23.6494
-23.6448
-23.6402
-23.6356
-23.6311
-23.6267
-23.6224
-23.6182
-23.614
-23.6099
-23.6059
-23.602
-23.5982
-23.5946
-23.591
-23.5875
-23.5841
-23.5808
-23.5777
-23.5747
-23.5718
-23.569
-23.5663
-23.5638
-23.5614
-23.5591
-23.557
-23.5549
-23.5531
-23.5513
-23.5497
-23.5483
-23.5469
-23.5458
-23.5447
-23.5438
-23.5431
-23.5425
-23.542
-23.5417
-23.5415
-23.5415
-27.4648
-27.4649
-27.465
-27.4654
-27.4658
-27.4664
-27.4672
-27.4681
-27.4691
-27.4703
-27.4717
-27.4731
-27.4747
-27.4765
-27.4784
-27.4804
-27.4825
-27.4848
-27.4872
-27.4898
-27.4925
-27.4953
-27.4982
-27.5012
-27.5044
-27.5077
-27.511
-27.5145
-27.5181
-27.5219
-27.5257
-27.5296
-27.5336
-27.5377
-27.5419
-27.5461
-27.5505
-27.5549
-27.5594
-27.564
-27.5686
-27.5733
-27.5781
-27.5829
-27.5877
-27.5926
-27.5975
-27.6025
-27.6075
-27.6125
-27.6175
-27.6226
-27.6276
-27.6327
-27.6378
-27.6428
-27.6479
-27.6529
-27.6579
-27.6629
-27.6678
-27.6727
-27.6776
-27.6824
-27.6871
-27.6918
-27.6965
-27.701
-27.7055
-27.7099
-27.7142
-27.7185
-27.7226
-27.7266
-27.7306
-27.7344
-27.7381
-27.7417
-27.7452
-27.7485
-27.7517
-27.7548
-27.7577
-27.7605
-27.7631
-27.7656
-27.768
-27.7702
-27.7722
-27.7741
-27.7758
-27.7773
-27.7787
-27.7799
-27.7809
-27.7818
-27.7825
-27.783
-27.7833
-27.7835
-27.7835
-27.7833
-27.783
-27.7825
-27.7818
-27.7809
-27.7799
-27.7786
-27.7773
-27.7757
-27.774
-27.7721
-27.7701
-27.7679
-27.7656
-27.7631
-27.7604
-27.7576
-27.7547
-27.7516
-27.7484
-27.7451
-27.7416
-27.738
-27.7343
-27.7305
-27.7265
-27.7225
-27.7184
-27.7141
-27.7098
-27.7054
-27.7009
-27.6963
-27.6917
-27.687
-27.6823
-27.6774
-27.6726
-27.6677
-27.6627
-27.6577
-27.6527
-27.6477
-27.6427
-27.6376
-27.6325
-27.6275
-27.6224
-27.6174
-27.6123
-27.6073
-27.6023
-27.5973
-27.5924
-27.5875
-27.5827
-27.5779
-27.5731
-27.5684
-27.5638
-27.5592
-27.5547
-27.5503
-27.5459
-27.5417
-27.5375
-27.5334
-27.5294
-27.5255
-27.5216
-27.5179
-27.5143
-27.5108
-27.5074
-27.5042
-27.501
-27.498
-27.495
-27.4922
-27.4896
-27.487
-27.4846
-27.4823
-27.4802
-27.4781
-27.4762
-27.4745
-27.4729
-27.4714
-27.4701
-27.4689
-27.4679
-27.467
-27.4662
-27.4656
-27.4651
-27.4648
-27.4646
-27.4646
-31.3878
-31.3879
-31.388
-31.3884
-31.3888
-31.3894
-31.3902
-31.3911
-31.3922
-31.3933
-31.3947
-31.3962
-31.3978
-31.3995
-31.4014
-31.4035
-31.4056
-31.4079
-31.4103
-31.4129
-31.4156
-31.4184
-31.4213
-31.4244
-31.4276
-31.4309
-31.4343
-31.4378
-31.4414
-31.4452
-31.449
-31.4529
-31.4569
-31.4611
-31.4653
-31.4696
-31.474
-31.4784
-31.4829
-31.4875
-31.4922
-31.4969
-31.5017
-31.5065
-31.5114
-31.5163
-31.5213
-31.5263
-31.5313
-31.5364
-31.5415
-31.5465
-31.5516
-31.5567
-31.5618
-31.5669
-31.572
-31.5771
-31.5821
-31.5871
-31.5921
-31.597
-31.6019
-31.6068
-31.6116
-31.6163
-31.621
-31.6256
-31.6301
-31.6346
-31.6389
-31.6432
-31.6473
-31.6514
-31.6554
-31.6592
-31.663
-31.6666
-31.6701
-31.6734
-31.6767
-31.6798
-31.6827
-31.6856
-31.6882
-31.6907
-31.6931
-31.6953
-31.6974
-31.6992
-31.701
-31.7025
-31.7039
-31.7051
-31.7062
-31.7071
-31.7078
-31.7083
-31.7086
-31.7088
-31.7088
-31.7086
-31.7083
-31.7077
-31.707
-31.7062
-31.7051
-31.7039
-31.7025
-31.7009
-31.6992
-31.6973
-31.6953
-31.693
-31.6907
-31.6882
-31.6855
-31.6827
-31.6797
-31.6766
-31.6734
-31.67
-31.6665
-31.6629
-31.6591
-31.6553
-31.6513
-31.6472
-31.6431
-31.6388
-31.6344
-31.63
-31.6255
-31.6209
-31.6162
-31.6114
-31.6066
-31.6018
-31.5969
-31.592
-31.587
-31.582
-31.5769
-31.5718
-31.5668
-31.5617
-31.5566
-31.5515
-31.5464
-31.5413
-31.5362
-31.5312
-31.5261
-31.5211
-31.5162
-31.5112
-31.5063
-31.5015
-31.4967
-31.492
-31.4873
-31.4827
-31.4782
-31.4737
-31.4694
-31.4651
-31.4609
-31.4567
-31.4527
-31.4488
-31.4449
-31.4412
-31.4376
-31.4341
-31.4307
-31.4274
-31.4242
-31.4211
-31.4182
-31.4154
-31.4127
-31.4101
-31.4077
-31.4054
-31.4032
-31.4012
-31.3993
-31.3975
-31.3959
-31.3944
-31.3931
-31.3919
-31.3909
-31.39
-31.3892
-31.3886
-31.3881
-31.3878
-31.3876
-31.3876
-35.3107
-35.3107
-35.3109
-35.3112
-35.3117
-35.3123
-35.3131
-35.314
-35.315
-35.3162
-35.3176
-35.3191
-35.3207
-35.3224
-35.3243
-35.3264
-35.3286
-35.3309
-35.3333
-35.3359
-35.3386
-35.3414
-35.3444
-35.3475
-35.3507
-35.354
-35.3574
-35.3609
-35.3646
-35.3684
-35.3722
-35.3762
-35.3802
-35.3844
-35.3886
-35.3929
-35.3973
-35.4018
-35.4064
-35.411
-35.4157
-35.4205
-35.4253
-35.4302
-35.4351
-35.44
-35.445
-35.4501
-35.4551
-35.4602
-35.4653
-35.4705
-35.4756
-35.4808
-35.4859
-35.491
-35.4962
-35.5013
-35.5063
-35.5114
-35.5164
-35.5214
-35.5264
-35.5312
-35.5361
-35.5409
-35.5456
-35.5502
-35.5548
-35.5593
-35.5637
-35.568
-35.5722
-35.5763
-35.5803
-35.5842
-35.588
-35.5916
-35.5951
-35.5985
-35.6018
-35.6049
-35.6079
-35.6108
-35.6135
-35.616
-35.6184
-35.6206
-35.6227
-35.6246
-35.6263
-35.6279
-35.6293
-35.6306
-35.6316
-35.6325
-35.6332
-35.6337
-35.6341
-35.6343
-35.6343
-35.6341
-35.6337
-35.6332
-35.6325
-35.6316
-35.6305
-35.6293
-35.6279
-35.6263
-35.6246
-35.6227
-35.6206
-35.6183
-35.6159
-35.6134
-35.6107
-35.6079
-35.6049
-35.6017
-35.5985
-35.5951
-35.5915
-35.5879
-35.5841
-35.5802
-35.5762
-35.5721
-35.5679
-35.5635
-35.5591
-35.5547
-35.5501
-35.5454
-35.5407
-35.5359
-35.5311
-35.5262
-35.5213
-35.5163
-35.5112
-35.5062
-35.5011
-35.496
-35.4909
-35.4857
-35.4806
-35.4754
-35.4703
-35.4652
-35.4601
-35.455
-35.4499
-35.4449
-35.4399
-35.4349
-35.43
-35.4251
-35.4203
-35.4155
-35.4108
-35.4062
-35.4016
-35.3971
-35.3927
-35.3884
-35.3842
-35.38
-35.376
-35.372
-35.3681
-35.3644
-35.3607
-35.3572
-35.3538
-35.3504
-35.3472
-35.3442
-35.3412
-35.3384
-35.3357
-35.3331
-35.3307
-35.3283
-35.3262
-35.3241
-35.3222
-35.3204
-35.3188
-35.3173
-35.316
-35.3148
-35.3137
-35.3128
-35.3121
-35.3114
-35.311
-35.3107
-35.3105
-35.3104
-39.2334
-39.2334
-39.2336
-39.2339
-39.2344
-39.235
-39.2358
-39.2367
-39.2378
-39.239
-39.2403
-39.2418
-39.2435
-39.2452
-39.2471
-39.2492
-39.2514
-39.2537
-39.2562
-39.2588
-39.2615
-39.2643
-39.2673
-39.2704
-39.2736
-39.277
-39.2804
-39.284
-39.2877
-39.2915
-39.2953
-39.2993
-39.3034
-39.3076
-39.3119
-39.3162
-39.3207
-39.3252
-39.3298
-39.3344
-39.3392
-39.344
-39.3488
-39.3537
-39.3587
-39.3637
-39.3687
-39.3738
-39.3789
-39.3841
-39.3892
-39.3944
-39.3996
-39.4048
-39.41
-39.4151
-39.4203
-39.4255
-39.4306
-39.4357
-39.4408
-39.4458
-39.4508
-39.4558
-39.4606
-39.4655
-39.4702
-39.4749
-39.4795
-39.4841
-39.4885
-39.4929
-39.4971
-39.5013
-39.5053
-39.5093
-39.5131
-39.5168
-39.5203
-39.5238
-39.5271
-39.5302
-39.5333
-39.5361
-39.5389
-39.5414
-39.5439
-39.5461
-39.5482
-39.5501
-39.5519
-39.5535
-39.5549
-39.5562
-39.5572
-39.5581
-39.5588
-39.5594
-39.5597
-39.5599
-39.5599
-39.5597
-39.5594
-39.5588
-39.5581
-39.5572
-39.5561
-39.5549
-39.5535
-39.5519
-39.5501
-39.5482
-39.5461
-39.5438
-39.5414
-39.5388
-39.5361
-39.5332
-39.5302
-39.527
-39.5237
-39.5202
-39.5167
-39.513
-39.5092
-39.5052
-39.5012
-39.497
-39.4928
-39.4884
-39.4839
-39.4794
-39.4748
-39.4701
-39.4653
-39.4605
-39.4556
-39.4507
-39.4457
-39.4406
-39.4356
-39.4305
-39.4253
-39.4202
-39.415
-39.4098
-39.4046
-39.3994
-39.3942
-39.3891
-39.3839
-39.3788
-39.3736
-39.3686
-39.3635
-39.3585
-39.3536
-39.3486
-39.3438
-39.339
-39.3342
-39.3296
-39.325
-39.3205
-39.316
-39.3117
-39.3074
-39.3032
-39.2991
-39.2951
-39.2912
-39.2875
-39.2838
-39.2802
-39.2768
-39.2734
-39.2702
-39.2671
-39.2641
-39.2613
-39.2585
-39.256
-39.2535
-39.2512
-39.249
-39.2469
-39.245
-39.2432
-39.2416
-39.2401
-39.2387
-39.2375
-39.2365
-39.2356
-39.2348
-39.2342
-39.2337
-39.2334
-39.2332
-39.2331
-43.1559
-43.156
-43.1562
-43.1565
-43.157
-43.1576
-43.1584
-43.1593
-43.1604
-43.1616
-43.1629
-43.1644
-43.1661
-43.1679
-43.1698
-43.1719
-43.1741
-43.1764
-43.1789
-43.1815
-43.1843
-43.1871
-43.1901
-43.1933
-43.1965
-43.1999
-43.2033
-43.2069
-43.2106
-43.2145
-43.2184
-43.2224
-43.2265
-43.2307
-43.235
-43.2394
-43.2439
-43.2485
-43.2531
-43.2578
-43.2626
-43.2674
-43.2723
-43.2773
-43.2823
-43.2873
-43.2924
-43.2975
-43.3027
-43.3079
-43.3131
-43.3183
-43.3236
-43.3288
-43.334
-43.3393
-43.3445
-43.3497
-43.3549
-43.3601
-43.3652
-43.3703
-43.3753
-43.3803
-43.3853
-43.3901
-43.395
-43.3997
-43.4044
-43.409
-43.4135
-43.4179
-43.4222
-43.4264
-43.4305
-43.4344
-43.4383
-43.442
-43.4457
-43.4491
-43.4525
-43.4557
-43.4588
-43.4617
-43.4644
-43.467
-43.4695
-43.4718
-43.4739
-43.4759
-43.4776
-43.4793
-43.4807
-43.482
-43.483
-43.4839
-43.4847
-43.4852
-43.4856
-43.4858
-43.4858
-43.4856
-43.4852
-43.4847
-43.4839
-43.483
-43.4819
-43.4807
-43.4792
-43.4776
-43.4758
-43.4738
-43.4717
-43.4694
-43.467
-43.4644
-43.4616
-43.4587
-43.4556
-43.4524
-43.4491
-43.4456
-43.442
-43.4382
-43.4343
-43.4304
-43.4263
-43.4221
-43.4177
-43.4133
-43.4088
-43.4042
-43.3996
-43.3948
-43.39
-43.3851
-43.3802
-43.3752
-43.3701
-43.365
-43.3599
-43.3547
-43.3496
-43.3443
-43.3391
-43.3339
-43.3286
-43.3234
-43.3182
-43.3129
-43.3077
-43.3025
-43.2974
-43.2922
-43.2871
-43.2821
-43.2771
-43.2721
-43.2672
-43.2624
-43.2576
-43.2529
-43.2483
-43.2437
-43.2392
-43.2348
-43.2305
-43.2263
-43.2222
-43.2182
-43.2142
-43.2104
-43.2067
-43.2031
-43.1996
-43.1963
-43.193
-43.1899
-43.1869
-43.184
-43.1813
-43.1787
-43.1762
-43.1739
-43.1716
-43.1696
-43.1676
-43.1659
-43.1642
-43.1627
-43.1613
-43.1601
-43.1591
-43.1581
-43.1574
-43.1567
-43.1563
-43.1559
-43.1558
-43.1557
-47.0784
-47.0784
-47.0786
-47.0789
-47.0794
-47.08
-47.0808
-47.0817
-47.0828
-47.084
-47.0854
-47.0869
-47.0886
-47.0904
-47.0923
-47.0944
-47.0966
-47.099
-47.1015
-47.1041
-47.1069
-47.1098
-47.1128
-47.116
-47.1192
-47.1226
-47.1261
-47.1298
-47.1335
-47.1373
-47.1413
-47.1454
-47.1495
-47.1538
-47.1581
-47.1625
-47.1671
-47.1717
-47.1763
-47.1811
-47.1859
-47.1908
-47.1958
-47.2008
-47.2058
-47.2109
-47.2161
-47.2212
-47.2265
-47.2317
-47.237
-47.2422
-47.2475
-47.2528
-47.2581
-47.2634
-47.2687
-47.274
-47.2792
-47.2844
-47.2896
-47.2948
-47.2999
-47.3049
-47.3099
-47.3149
-47.3198
-47.3246
-47.3293
-47.3339
-47.3385
-47.343
-47.3473
-47.3516
-47.3557
-47.3598
-47.3637
-47.3675
-47.3711
-47.3747
-47.378
-47.3813
-47.3844
-47.3874
-47.3902
-47.3928
-47.3953
-47.3976
-47.3998
-47.4017
-47.4036
-47.4052
-47.4066
-47.4079
-47.409
-47.4099
-47.4107
-47.4112
-47.4116
-47.4118
-47.4118
-47.4116
-47.4112
-47.4107
-47.4099
-47.409
-47.4079
-47.4066
-47.4052
-47.4035
-47.4017
-47.3997
-47.3976
-47.3952
-47.3927
-47.3901
-47.3873
-47.3843
-47.3812
-47.378
-47.3746
-47.371
-47.3674
-47.3636
-47.3597
-47.3556
-47.3515
-47.3472
-47.3428
-47.3384
-47.3338
-47.3292
-47.3244
-47.3196
-47.3148
-47.3098
-47.3048
-47.2997
-47.2946
-47.2895
-47.2843
-47.2791
-47.2738
-47.2685
-47.2633
-47.258
-47.2527
-47.2474
-47.2421
-47.2368
-47.2315
-47.2263
-47.2211
-47.2159
-47.2107
-47.2056
-47.2006
-47.1956
-47.1906
-47.1857
-47.1809
-47.1761
-47.1715
-47.1669
-47.1623
-47.1579
-47.1536
-47.1493
-47.1451
-47.1411
-47.1371
-47.1333
-47.1295
-47.1259
-47.1224
-47.119
-47.1157
-47.1126
-47.1096
-47.1067
-47.1039
-47.1013
-47.0988
-47.0964
-47.0942
-47.0921
-47.0902
-47.0884
-47.0867
-47.0852
-47.0838
-47.0826
-47.0815
-47.0806
-47.0798
-47.0792
-47.0787
-47.0783
-47.0782
-47.0781
-51.0006
-51.0007
-51.0009
-51.0012
-51.0017
-51.0023
-51.0031
-51.004
-51.0051
-51.0064
-51.0077
-51.0093
-51.0109
-51.0128
-51.0147
-51.0168
-51.0191
-51.0215
-51.024
-51.0266
-51.0294
-51.0323
-51.0354
-51.0386
-51.0419
-51.0453
-51.0488
-51.0525
-51.0563
-51.0601
-51.0641
-51.0682
-51.0724
-51.0767
-51.0811
-51.0856
-51.0901
-51.0948
-51.0995
-51.1043
-51.1092
-51.1141
-51.1191
-51.1242
-51.1293
-51.1345
-51.1397
-51.1449
-51.1502
-51.1555
-51.1608
-51.1661
-51.1715
-51.1769
-51.1822
-51.1876
-51.1929
-51.1983
-51.2036
-51.2089
-51.2141
-51.2193
-51.2245
-51.2296
-51.2347
-51.2397
-51.2446
-51.2495
-51.2543
-51.259
-51.2636
-51.2681
-51.2726
-51.2769
-51.2811
-51.2852
-51.2892
-51.293
-51.2967
-51.3003
-51.3038
-51.3071
-51.3102
-51.3132
-51.316
-51.3187
-51.3213
-51.3236
-51.3258
-51.3278
-51.3296
-51.3313
-51.3328
-51.3341
-51.3352
-51.3361
-51.3369
-51.3375
-51.3378
-51.338
-51.338
-51.3378
-51.3374
-51.3369
-51.3361
-51.3352
-51.3341
-51.3328
-51.3313
-51.3296
-51.3278
-51.3257
-51.3236
-51.3212
-51.3187
-51.316
-51.3131
-51.3101
-51.307
-51.3037
-51.3002
-51.2966
-51.2929
-51.2891
-51.2851
-51.281
-51.2768
-51.2725
-51.268
-51.2635
-51.2589
-51.2542
-51.2494
-51.2445
-51.2396
-51.2346
-51.2295
-51.2244
-51.2192
-51.214
-51.2087
-51.2034
-51.1981
-51.1928
-51.1874
-51.182
-51.1767
-51.1713
-51.166
-51.1606
-51.1553
-51.15
-51.1447
-51.1395
-51.1343
-51.1291
-51.124
-51.1189
-51.1139
-51.109
-51.1041
-51.0993
-51.0946
-51.0899
-51.0854
-51.0809
-51.0765
-51.0722
-51.068
-51.0639
-51.0599
-51.056
-51.0523
-51.0486
-51.0451
-51.0416
-51.0383
-51.0352
-51.0321
-51.0292
-51.0264
-51.0237
-51.0212
-51.0188
-51.0166
-51.0145
-51.0125
-51.0107
-51.009
-51.0075
-51.0061
-51.0049
-51.0038
-51.0029
-51.0021
-51.0014
-51.001
-51.0006
-51.0004
-51.0004
-54.9228
-54.9228
-54.923
-54.9233
-54.9238
-54.9245
-54.9252
-54.9262
-54.9273
-54.9285
-54.9299
-54.9315
-54.9332
-54.935
-54.937
-54.9391
-54.9414
-54.9438
-54.9463
-54.949
-54.9518
-54.9548
-54.9578
-54.961
-54.9644
-54.9678
-54.9714
-54.9751
-54.9789
-54.9828
-54.9869
-54.991
-54.9952
-54.9996
-55.004
-55.0085
-55.0131
-55.0178
-55.0226
-55.0275
-55.0324
-55.0374
-55.0425
-55.0476
-55.0527
-55.058
-55.0632
-55.0685
-55.0739
-55.0792
-55.0846
-55.09
-55.0954
-55.1009
-55.1063
-55.1117
-55.1172
-55.1226
-55.1279
-55.1333
-55.1386
-55.1439
-55.1492
-55.1544
-55.1595
-55.1646
-55.1696
-55.1745
-55.1794
-55.1842
-55.1889
-55.1935
-55.1979
-55.2023
-55.2066
-55.2108
-55.2148
-55.2187
-55.2225
-55.2261
-55.2296
-55.233
-55.2362
-55.2392
-55.2421
-55.2448
-55.2474
-55.2498
-55.252
-55.2541
-55.2559
-55.2576
-55.2591
-55.2604
-55.2616
-55.2625
-55.2633
-55.2639
-55.2642
-55.2644
-55.2644
-55.2642
-55.2639
-55.2633
-55.2625
-55.2616
-55.2604
-55.2591
-55.2576
-55.2559
-55.254
-55.252
-55.2497
-55.2473
-55.2448
-55.242
-55.2391
-55.2361
-55.2329
-55.2295
-55.226
-55.2224
-55.2186
-55.2147
-55.2107
-55.2065
-55.2022
-55.1978
-55.1933
-55.1887
-55.184
-55.1793
-55.1744
-55.1695
-55.1644
-55.1594
-55.1542
-55.149
-55.1438
-55.1385
-55.1331
-55.1278
-55.1224
-55.117
-55.1116
-55.1061
-55.1007
-55.0953
-55.0898
-55.0844
-55.079
-55.0737
-55.0683
-55.063
-55.0578
-55.0525
-55.0474
-55.0423
-55.0372
-55.0322
-55.0273
-55.0224
-55.0176
-55.0129
-55.0083
-55.0038
-54.9994
-54.995
-54.9908
-54.9866
-54.9826
-54.9787
-54.9749
-54.9712
-54.9676
-54.9642
-54.9608
-54.9576
-54.9545
-54.9516
-54.9488
-54.9461
-54.9435
-54.9411
-54.9389
-54.9367
-54.9348
-54.9329
-54.9312
-54.9297
-54.9283
-54.9271
-54.926
-54.925
-54.9242
-54.9236
-54.9231
-54.9227
-54.9226
-54.9225
-58.8447
-58.8448
-58.845
-58.8453
-58.8458
-58.8464
-58.8472
-58.8482
-58.8493
-58.8506
-58.852
-58.8535
-58.8552
-58.8571
-58.8591
-58.8612
-58.8635
-58.8659
-58.8685
-58.8712
-58.8741
-58.877
-58.8802
-58.8834
-58.8868
-58.8902
-58.8939
-58.8976
-58.9014
-58.9054
-58.9095
-58.9137
-58.918
-58.9223
-58.9268
-58.9314
-58.9361
-58.9408
-58.9457
-58.9506
-58.9555
-58.9606
-58.9657
-58.9709
-58.9761
-58.9814
-58.9867
-58.9921
-58.9975
-59.003
-59.0084
-59.0139
-59.0194
-59.0249
-59.0304
-59.0359
-59.0414
-59.0469
-59.0523
-59.0578
-59.0632
-59.0686
-59.0739
-59.0792
-59.0844
-59.0895
-59.0946
-59.0996
-59.1046
-59.1094
-59.1142
-59.1189
-59.1234
-59.1279
-59.1322
-59.1364
-59.1405
-59.1445
-59.1484
-59.1521
-59.1556
-59.159
-59.1623
-59.1654
-59.1683
-59.1711
-59.1737
-59.1761
-59.1784
-59.1805
-59.1824
-59.1841
-59.1856
-59.187
-59.1882
-59.1891
-59.1899
-59.1905
-59.1909
-59.1911
-59.1911
-59.1909
-59.1905
-59.1899
-59.1891
-59.1881
-59.187
-59.1856
-59.1841
-59.1824
-59.1804
-59.1784
-59.1761
-59.1737
-59.171
-59.1683
-59.1653
-59.1622
-59.1589
-59.1555
-59.152
-59.1483
-59.1444
-59.1404
-59.1363
-59.1321
-59.1278
-59.1233
-59.1187
-59.1141
-59.1093
-59.1044
-59.0995
-59.0945
-59.0894
-59.0842
-59.079
-59.0737
-59.0684
-59.063
-59.0576
-59.0522
-59.0467
-59.0412
-59.0357
-59.0302
-59.0247
-59.0192
-59.0137
-59.0082
-59.0028
-58.9973
-58.9919
-58.9866
-58.9812
-58.9759
-58.9707
-58.9655
-58.9604
-58.9553
-58.9504
-58.9454
-58.9406
-58.9359
-58.9312
-58.9266
-58.9221
-58.9177
-58.9135
-58.9093
-58.9052
-58.9012
-58.8974
-58.8936
-58.89
-58.8865
-58.8832
-58.8799
-58.8768
-58.8738
-58.871
-58.8683
-58.8657
-58.8633
-58.861
-58.8589
-58.8569
-58.855
-58.8533
-58.8517
-58.8503
-58.8491
-58.848
-58.847
-58.8462
-58.8456
-58.8451
-58.8447
-58.8445
-58.8445
-62.7666
-62.7666
-62.7668
-62.7671
-62.7676
-62.7683
-62.7691
-62.7701
-62.7712
-62.7724
-62.7739
-62.7754
-62.7772
-62.779
-62.7811
-62.7832
-62.7855
-62.788
-62.7906
-62.7933
-62.7962
-62.7992
-62.8023
-62.8056
-62.809
-62.8126
-62.8162
-62.82
-62.8239
-62.8279
-62.832
-62.8362
-62.8406
-62.845
-62.8495
-62.8542