/*--------------------------------*- C++ -*----------------------------------*\
| =========                 |                                                 |
| \\      /  F ield         | OpenFOAM: The Open Source CFD Toolbox           |
|  \\    /   O peration     | Version:  2412                                  |
|   \\  /    A nd           | Website:  www.openfoam.com                      |
|    \\/     M anipulation  |                                                 |
\*---------------------------------------------------------------------------*/
FoamFile
{
    version     2.0;
    format      ascii;
    arch        "LSB;label=32;scalar=64";
    class       volScalarField;
    location    "1.13";
    object      p_rgh;
}
// * * * * * * * * * * * * * * * * * * * * * * * * * * * * * * * * * * * * * //

dimensions      [1 -1 -2 0 0 0 0];

internalField   nonuniform List<scalar> 
40000
(
1.962
1.96196
1.96179
1.96148
1.96103
1.96043
1.95969
1.95881
1.95778
1.95662
1.95531
1.95387
1.95229
1.95057
1.94872
1.94673
1.94461
1.94237
1.93999
1.93749
1.93486
1.93211
1.92924
1.92625
1.92314
1.91993
1.9166
1.91316
1.90962
1.90598
1.90223
1.8984
1.89447
1.89045
1.88634
1.88215
1.87789
1.87355
1.86913
1.86466
1.86011
1.85551
1.85086
1.84616
1.84141
1.83662
1.83179
1.82693
1.82204
1.81714
1.81221
1.80727
1.80232
1.79738
1.79243
1.78749
1.78256
1.77766
1.77277
1.76791
1.76309
1.7583
1.75356
1.74887
1.74423
1.73965
1.73513
1.73069
1.72631
1.72202
1.71781
1.71369
1.70967
1.70574
1.70191
1.69819
1.69459
1.6911
1.68773
1.68448
1.68136
1.67838
1.67553
1.67282
1.67025
1.66782
1.66554
1.66342
1.66145
1.65963
1.65797
1.65647
1.65514
1.65396
1.65296
1.65211
1.65144
1.65094
1.6506
1.65043
1.65043
1.6506
1.65095
1.65146
1.65213
1.65298
1.65399
1.65517
1.65651
1.65801
1.65967
1.66149
1.66347
1.6656
1.66788
1.67031
1.67288
1.6756
1.67845
1.68144
1.68456
1.68781
1.69119
1.69468
1.69829
1.70201
1.70584
1.70977
1.7138
1.71793
1.72214
1.72643
1.73081
1.73526
1.73978
1.74436
1.749
1.7537
1.75844
1.76323
1.76806
1.77292
1.77781
1.78272
1.78765
1.79259
1.79754
1.80249
1.80744
1.81238
1.81731
1.82222
1.82711
1.83197
1.8368
1.84159
1.84634
1.85105
1.8557
1.86031
1.86485
1.86933
1.87374
1.87809
1.88235
1.88654
1.89065
1.89467
1.8986
1.90244
1.90619
1.90983
1.91337
1.91681
1.92014
1.92336
1.92647
1.92946
1.93233
1.93508
1.93771
1.94021
1.94259
1.94484
1.94696
1.94894
1.9508
1.95252
1.9541
1.95554
1.95685
1.95802
1.95904
1.95993
1.96067
1.96128
1.96174
1.96205
1.96222
1.96226
1.96203
1.962
1.96183
1.96152
1.96107
1.96047
1.95973
1.95885
1.95782
1.95666
1.95535
1.95391
1.95232
1.95061
1.94875
1.94677
1.94465
1.9424
1.94002
1.93752
1.93489
1.93214
1.92927
1.92628
1.92317
1.91996
1.91663
1.91319
1.90965
1.906
1.90226
1.89842
1.89449
1.89047
1.88636
1.88217
1.8779
1.87356
1.86915
1.86467
1.86013
1.85553
1.85087
1.84617
1.84141
1.83662
1.83179
1.82693
1.82205
1.81714
1.81221
1.80727
1.80232
1.79737
1.79242
1.78748
1.78255
1.77764
1.77276
1.7679
1.76307
1.75829
1.75354
1.74885
1.74421
1.73963
1.73511
1.73066
1.72629
1.72199
1.71778
1.71366
1.70964
1.70571
1.70188
1.69816
1.69456
1.69106
1.68769
1.68445
1.68133
1.67834
1.67549
1.67278
1.67021
1.66778
1.6655
1.66338
1.6614
1.65959
1.65793
1.65643
1.65509
1.65392
1.65291
1.65207
1.6514
1.65089
1.65055
1.65039
1.65039
1.65056
1.6509
1.65141
1.65209
1.65293
1.65395
1.65512
1.65646
1.65797
1.65963
1.66145
1.66343
1.66556
1.66784
1.67027
1.67284
1.67556
1.67842
1.68141
1.68453
1.68778
1.69115
1.69465
1.69826
1.70198
1.70581
1.70974
1.71377
1.7179
1.72211
1.72641
1.73079
1.73524
1.73976
1.74434
1.74899
1.75368
1.75843
1.76322
1.76805
1.77291
1.7778
1.78271
1.78764
1.79258
1.79753
1.80249
1.80744
1.81238
1.81731
1.82222
1.82711
1.83197
1.8368
1.8416
1.84635
1.85106
1.85572
1.86032
1.86486
1.86934
1.87376
1.8781
1.88237
1.88656
1.89067
1.89469
1.89863
1.90247
1.90621
1.90986
1.9134
1.91684
1.92017
1.92339
1.9265
1.92949
1.93236
1.93511
1.93774
1.94025
1.94262
1.94487
1.94699
1.94898
1.95083
1.95255
1.95414
1.95558
1.95689
1.95806
1.95908
1.95997
1.96071
1.96132
1.96178
1.96209
1.96226
1.96229
1.9622
1.96217
1.962
1.96169
1.96123
1.96064
1.95989
1.95901
1.95798
1.95682
1.95551
1.95406
1.95248
1.95076
1.94891
1.94692
1.9448
1.94255
1.94017
1.93766
1.93503
1.93228
1.9294
1.92641
1.9233
1.92008
1.91675
1.91331
1.90976
1.90611
1.90237
1.89852
1.89459
1.89056
1.88645
1.88226
1.87799
1.87364
1.86922
1.86474
1.86019
1.85559
1.85092
1.84621
1.84146
1.83666
1.83183
1.82696
1.82207
1.81715
1.81222
1.80727
1.80232
1.79736
1.79241
1.78746
1.78253
1.77761
1.77272
1.76785
1.76302
1.75823
1.75348
1.74878
1.74413
1.73955
1.73502
1.73057
1.72619
1.72189
1.71768
1.71355
1.70952
1.70558
1.70175
1.69803
1.69441
1.69092
1.68754
1.68429
1.68117
1.67818
1.67532
1.67261
1.67003
1.6676
1.66532
1.66319
1.66122
1.6594
1.65774
1.65624
1.6549
1.65372
1.65271
1.65187
1.6512
1.65069
1.65035
1.65018
1.65019
1.65036
1.6507
1.65121
1.65189
1.65274
1.65375
1.65493
1.65627
1.65777
1.65944
1.66126
1.66324
1.66538
1.66766
1.67009
1.67267
1.67539
1.67825
1.68125
1.68437
1.68763
1.69101
1.69451
1.69812
1.70185
1.70569
1.70962
1.71366
1.71779
1.72201
1.72631
1.7307
1.73515
1.73968
1.74427
1.74892
1.75362
1.75837
1.76317
1.768
1.77287
1.77777
1.78269
1.78762
1.79257
1.79753
1.80249
1.80744
1.81239
1.81733
1.82224
1.82714
1.83201
1.83684
1.84164
1.8464
1.85111
1.85578
1.86038
1.86493
1.86942
1.87384
1.87819
1.88246
1.88665
1.89077
1.89479
1.89873
1.90258
1.90632
1.90997
1.91352
1.91696
1.9203
1.92352
1.92663
1.92962
1.9325
1.93525
1.93788
1.94039
1.94277
1.94502
1.94714
1.94913
1.95099
1.95271
1.95429
1.95574
1.95705
1.95822
1.95925
1.96013
1.96088
1.96148
1.96194
1.96225
1.96242
1.96246
1.96252
1.96248
1.96231
1.962
1.96154
1.96094
1.9602
1.95931
1.95828
1.95711
1.95581
1.95436
1.95277
1.95105
1.94919
1.9472
1.94508
1.94282
1.94044
1.93793
1.93529
1.93254
1.92966
1.92666
1.92354
1.92032
1.91698
1.91353
1.90998
1.90633
1.90257
1.89872
1.89478
1.89075
1.88663
1.88243
1.87815
1.87379
1.86936
1.86487
1.86031
1.8557
1.85103
1.84631
1.84154
1.83674
1.83189
1.82702
1.82211
1.81719
1.81224
1.80728
1.80232
1.79735
1.79239
1.78743
1.78248
1.77756
1.77265
1.76778
1.76293
1.75813
1.75337
1.74866
1.744
1.7394
1.73487
1.7304
1.72601
1.7217
1.71747
1.71334
1.70929
1.70535
1.70151
1.69777
1.69415
1.69065
1.68726
1.684
1.68087
1.67787
1.67501
1.67229
1.6697
1.66727
1.66498
1.66285
1.66086
1.65904
1.65737
1.65587
1.65453
1.65335
1.65234
1.65149
1.65082
1.65031
1.64997
1.6498
1.6498
1.64998
1.65032
1.65083
1.65151
1.65236
1.65338
1.65456
1.6559
1.65741
1.65908
1.66091
1.6629
1.66504
1.66733
1.66977
1.67235
1.67508
1.67795
1.68095
1.68409
1.68735
1.69074
1.69425
1.69787
1.70161
1.70545
1.7094
1.71345
1.71759
1.72182
1.72613
1.73053
1.73499
1.73953
1.74413
1.74879
1.75351
1.75827
1.76308
1.76793
1.7728
1.77771
1.78264
1.78759
1.79255
1.79752
1.80249
1.80745
1.81241
1.81736
1.82229
1.82719
1.83207
1.83692
1.84173
1.8465
1.85122
1.85589
1.86051
1.86507
1.86956
1.87399
1.87834
1.88263
1.88683
1.89095
1.89498
1.89893
1.90278
1.90654
1.91019
1.91374
1.91719
1.92053
1.92376
1.92688
1.92987
1.93275
1.93551
1.93815
1.94066
1.94305
1.9453
1.94743
1.94942
1.95128
1.953
1.95459
1.95604
1.95735
1.95852
1.95955
1.96044
1.96118
1.96179
1.96225
1.96256
1.96273
1.96277
1.96297
1.96293
1.96276
1.96245
1.96199
1.96139
1.96064
1.95975
1.95872
1.95755
1.95624
1.95479
1.9532
1.95147
1.94961
1.94761
1.94548
1.94322
1.94083
1.93832
1.93568
1.93291
1.93002
1.92702
1.9239
1.92066
1.91731
1.91386
1.9103
1.90663
1.90287
1.89901
1.89506
1.89101
1.88688
1.88267
1.87838
1.87401
1.86957
1.86507
1.8605
1.85587
1.85118
1.84645
1.84167
1.83685
1.83199
1.8271
1.82218
1.81724
1.81228
1.8073
1.80232
1.79734
1.79236
1.78738
1.78242
1.77748
1.77256
1.76766
1.76281
1.75798
1.75321
1.74848
1.7438
1.73919
1.73464
1.73016
1.72575
1.72142
1.71718
1.71303
1.70897
1.70501
1.70115
1.69741
1.69377
1.69025
1.68685
1.68358
1.68044
1.67743
1.67455
1.67182
1.66922
1.66678
1.66448
1.66234
1.66035
1.65852
1.65684
1.65533
1.65398
1.6528
1.65179
1.65094
1.65026
1.64975
1.64941
1.64924
1.64924
1.64941
1.64976
1.65027
1.65096
1.65181
1.65283
1.65402
1.65537
1.65688
1.65856
1.6604
1.66239
1.66454
1.66684
1.66929
1.67188
1.67462
1.6775
1.68052
1.68366
1.68694
1.69034
1.69386
1.6975
1.70125
1.70511
1.70908
1.71314
1.7173
1.72154
1.72587
1.73028
1.73477
1.73932
1.74394
1.74861
1.75335
1.75813
1.76295
1.76781
1.77271
1.77763
1.78258
1.78754
1.79252
1.7975
1.80249
1.80747
1.81245
1.81741
1.82235
1.82728
1.83217
1.83703
1.84185
1.84664
1.85137
1.85606
1.86069
1.86526
1.86977
1.87421
1.87858
1.88287
1.88709
1.89122
1.89526
1.89922
1.90308
1.90684
1.91051
1.91407
1.91753
1.92088
1.92411
1.92724
1.93024
1.93313
1.9359
1.93854
1.94106
1.94345
1.94571
1.94784
1.94984
1.9517
1.95343
1.95502
1.95647
1.95778
1.95896
1.95999
1.96088
1.96163
1.96223
1.96269
1.96301
1.96318
1.96322
1.96356
1.96352
1.96335
1.96304
1.96258
1.96197
1.96122
1.96033
1.9593
1.95812
1.9568
1.95535
1.95375
1.95202
1.95015
1.94815
1.94602
1.94375
1.94135
1.93883
1.93618
1.9334
1.93051
1.92749
1.92436
1.92111
1.91776
1.91429
1.91072
1.90704
1.90326
1.89939
1.89542
1.89136
1.88722
1.88299
1.87868
1.8743
1.86985
1.86532
1.86074
1.85609
1.85139
1.84664
1.84184
1.837
1.83212
1.82721
1.82227
1.81731
1.81233
1.80733
1.80233
1.79733
1.79232
1.78733
1.78234
1.77738
1.77243
1.76752
1.76264
1.75779
1.75299
1.74824
1.74355
1.73891
1.73434
1.72984
1.72541
1.72106
1.7168
1.71262
1.70854
1.70456
1.70069
1.69692
1.69327
1.68973
1.68632
1.68303
1.67986
1.67684
1.67395
1.6712
1.66859
1.66613
1.66383
1.66167
1.65967
1.65783
1.65615
1.65463
1.65327
1.65208
1.65106
1.65021
1.64952
1.64901
1.64867
1.6485
1.6485
1.64867
1.64902
1.64954
1.65022
1.65108
1.65211
1.6533
1.65466
1.65618
1.65787
1.65972
1.66172
1.66388
1.66619
1.66866
1.67127
1.67402
1.67691
1.67994
1.68311
1.6864
1.68982
1.69336
1.69702
1.70079
1.70467
1.70865
1.71273
1.71691
1.72118
1.72553
1.72996
1.73447
1.73904
1.74368
1.74838
1.75313
1.75794
1.76278
1.76767
1.77259
1.77753
1.7825
1.78749
1.79248
1.79749
1.8025
1.8075
1.8125
1.81748
1.82244
1.82738
1.8323
1.83718
1.84202
1.84682
1.85158
1.85628
1.86093
1.86552
1.87004
1.8745
1.87888
1.88319
1.88742
1.89157
1.89563
1.8996
1.90347
1.90725
1.91093
1.9145
1.91797
1.92133
1.92458
1.92771
1.93073
1.93362
1.9364
1.93905
1.94158
1.94397
1.94624
1.94838
1.95038
1.95225
1.95398
1.95558
1.95704
1.95835
1.95953
1.96057
1.96146
1.96221
1.96282
1.96328
1.9636
1.96376
1.96381
1.96429
1.96425
1.96408
1.96376
1.9633
1.96269
1.96194
1.96105
1.96001
1.95883
1.95751
1.95604
1.95444
1.95271
1.95083
1.94882
1.94668
1.9444
1.942
1.93946
1.9368
1.93402
1.93111
1.92808
1.92494
1.92168
1.91831
1.91482
1.91124
1.90754
1.90375
1.89986
1.89588
1.8918
1.88764
1.88339
1.87906
1.87466
1.87019
1.86564
1.86103
1.85637
1.85164
1.84687
1.84204
1.83718
1.83228
1.82734
1.82238
1.81739
1.81239
1.80737
1.80234
1.79731
1.79228
1.78726
1.78225
1.77725
1.77228
1.76734
1.76243
1.75756
1.75273
1.74796
1.74323
1.73857
1.73397
1.72944
1.72498
1.72061
1.71632
1.71212
1.70802
1.70401
1.70011
1.69632
1.69264
1.68908
1.68565
1.68234
1.67916
1.67611
1.6732
1.67043
1.66781
1.66533
1.66301
1.66084
1.65883
1.65697
1.65528
1.65375
1.65238
1.65119
1.65016
1.6493
1.64861
1.64809
1.64775
1.64758
1.64758
1.64776
1.6481
1.64863
1.64932
1.65018
1.65121
1.65242
1.65378
1.65532
1.65701
1.65887
1.66089
1.66307
1.66539
1.66787
1.6705
1.67327
1.67618
1.67923
1.68242
1.68573
1.68918
1.69274
1.69642
1.70021
1.70412
1.70813
1.71223
1.71644
1.72073
1.72511
1.72956
1.7341
1.7387
1.74337
1.74809
1.75287
1.7577
1.76258
1.76749
1.77243
1.77741
1.7824
1.78742
1.79244
1.79747
1.80251
1.80754
1.81256
1.81757
1.82256
1.82752
1.83246
1.83736
1.84223
1.84705
1.85183
1.85656
1.86123
1.86584
1.87038
1.87486
1.87926
1.88359
1.88784
1.89201
1.89608
1.90007
1.90396
1.90775
1.91145
1.91504
1.91852
1.92189
1.92515
1.9283
1.93133
1.93424
1.93702
1.93968
1.94222
1.94463
1.9469
1.94905
1.95106
1.95293
1.95467
1.95628
1.95774
1.95906
1.96024
1.96128
1.96218
1.96293
1.96354
1.964
1.96432
1.96449
1.96453
1.96516
1.96512
1.96495
1.96463
1.96416
1.96355
1.9628
1.9619
1.96086
1.95967
1.95834
1.95688
1.95527
1.95352
1.95164
1.94962
1.94747
1.94518
1.94276
1.94022
1.93754
1.93475
1.93182
1.92878
1.92562
1.92235
1.91896
1.91546
1.91186
1.90815
1.90433
1.90042
1.89642
1.89232
1.88814
1.88387
1.87952
1.87509
1.87059
1.86602
1.86139
1.8567
1.85195
1.84714
1.84229
1.8374
1.83247
1.82751
1.82251
1.8175
1.81246
1.80741
1.80235
1.79729
1.79223
1.78717
1.78213
1.77711
1.7721
1.76713
1.76219
1.75728
1.75242
1.74761
1.74285
1.73816
1.73353
1.72896
1.72448
1.72007
1.71575
1.71152
1.70739
1.70335
1.69942
1.69561
1.6919
1.68831
1.68485
1.68151
1.67831
1.67524
1.67231
1.66952
1.66687
1.66438
1.66204
1.65985
1.65782
1.65595
1.65424
1.6527
1.65132
1.65012
1.64908
1.64821
1.64752
1.647
1.64665
1.64648
1.64648
1.64666
1.64701
1.64753
1.64823
1.6491
1.65014
1.65135
1.65273
1.65428
1.65599
1.65787
1.6599
1.66209
1.66444
1.66694
1.66958
1.67238
1.67531
1.67839
1.6816
1.68494
1.6884
1.69199
1.6957
1.69953
1.70346
1.7075
1.71163
1.71587
1.72019
1.7246
1.72909
1.73365
1.73829
1.74299
1.74775
1.75256
1.75743
1.76233
1.76728
1.77226
1.77726
1.78229
1.78733
1.79239
1.79745
1.80252
1.80758
1.81263
1.81767
1.82269
1.82769
1.83265
1.83759
1.84248
1.84733
1.85214
1.85689
1.86159
1.86622
1.87079
1.87529
1.87972
1.88407
1.88834
1.89253
1.89663
1.90063
1.90454
1.90836
1.91207
1.91568
1.91917
1.92256
1.92584
1.929
1.93204
1.93497
1.93777
1.94044
1.94299
1.94541
1.94769
1.94985
1.95187
1.95375
1.9555
1.95711
1.95858
1.9599
1.96109
1.96213
1.96303
1.96379
1.9644
1.96487
1.96519
1.96536
1.9654
1.96617
1.96613
1.96596
1.96564
1.96517
1.96456
1.9638
1.96289
1.96184
1.96065
1.95932
1.95784
1.95623
1.95447
1.95258
1.95055
1.94838
1.94609
1.94366
1.9411
1.93841
1.9356
1.93266
1.9296
1.92642
1.92313
1.91972
1.9162
1.91258
1.90885
1.90501
1.90108
1.89705
1.89293
1.88872
1.88443
1.88005
1.8756
1.87107
1.86647
1.86181
1.85708
1.8523
1.84747
1.84259
1.83766
1.8327
1.8277
1.82267
1.81762
1.81255
1.80746
1.80237
1.79727
1.79217
1.78708
1.782
1.77694
1.77189
1.76688
1.7619
1.75696
1.75206
1.74721
1.74242
1.73768
1.73301
1.72841
1.72389
1.71945
1.71509
1.71083
1.70666
1.70259
1.69862
1.69477
1.69103
1.68742
1.68392
1.68055
1.67732
1.67422
1.67126
1.66845
1.66578
1.66326
1.6609
1.65869
1.65664
1.65476
1.65303
1.65148
1.65009
1.64887
1.64782
1.64695
1.64625
1.64572
1.64537
1.6452
1.6452
1.64538
1.64573
1.64626
1.64697
1.64785
1.6489
1.65012
1.65151
1.65307
1.6548
1.65669
1.65874
1.66096
1.66332
1.66584
1.66852
1.67134
1.6743
1.6774
1.68064
1.68401
1.68751
1.69113
1.69487
1.69873
1.70269
1.70677
1.71094
1.71521
1.71957
1.72401
1.72854
1.73314
1.73781
1.74255
1.74735
1.7522
1.7571
1.76205
1.76703
1.77205
1.77709
1.78216
1.78724
1.79233
1.79743
1.80254
1.80763
1.81272
1.8178
1.82285
1.82788
1.83288
1.83785
1.84277
1.84766
1.85249
1.85728
1.862
1.86667
1.87127
1.8758
1.88025
1.88463
1.88892
1.89314
1.89726
1.90129
1.90522
1.90906
1.91279
1.91642
1.91994
1.92335
1.92664
1.92982
1.93288
1.93582
1.93863
1.94132
1.94388
1.94631
1.94861
1.95078
1.95281
1.9547
1.95646
1.95807
1.95955
1.96089
1.96208
1.96313
1.96403
1.96479
1.96541
1.96587
1.9662
1.96637
1.96641
1.96732
1.96728
1.96711
1.96679
1.96632
1.9657
1.96493
1.96402
1.96297
1.96177
1.96043
1.95895
1.95732
1.95556
1.95365
1.95161
1.94943
1.94712
1.94467
1.9421
1.9394
1.93657
1.93361
1.93053
1.92734
1.92402
1.92059
1.91705
1.9134
1.90965
1.90579
1.90183
1.89777
1.89362
1.88939
1.88506
1.88066
1.87617
1.87161
1.86698
1.86228
1.85753
1.85271
1.84784
1.84292
1.83796
1.83296
1.82792
1.82285
1.81776
1.81265
1.80752
1.80239
1.79725
1.79211
1.78697
1.78185
1.77674
1.77166
1.7666
1.76158
1.75659
1.75165
1.74676
1.74192
1.73714
1.73243
1.72779
1.72322
1.71874
1.71434
1.71003
1.70582
1.70171
1.69771
1.69382
1.69004
1.68639
1.68286
1.67946
1.67619
1.67306
1.67007
1.66723
1.66453
1.66199
1.6596
1.65737
1.6553
1.65339
1.65165
1.65008
1.64867
1.64744
1.64639
1.6455
1.64479
1.64426
1.64391
1.64373
1.64374
1.64392
1.64427
1.64481
1.64552
1.64641
1.64747
1.64871
1.65011
1.65169
1.65344
1.65535
1.65742
1.65966
1.66205
1.6646
1.6673
1.67015
1.67314
1.67627
1.67954
1.68295
1.68648
1.69014
1.69392
1.69781
1.70182
1.70593
1.71014
1.71445
1.71886
1.72334
1.72791
1.73256
1.73727
1.74205
1.7469
1.75179
1.75674
1.76172
1.76675
1.77181
1.7769
1.78201
1.78713
1.79227
1.79741
1.80256
1.80769
1.81282
1.81794
1.82303
1.8281
1.83314
1.83814
1.84311
1.84803
1.8529
1.85772
1.86248
1.86718
1.87181
1.87637
1.88086
1.88527
1.88959
1.89383
1.89798
1.90204
1.906
1.90986
1.91362
1.91727
1.92081
1.92424
1.92755
1.93075
1.93383
1.93679
1.93962
1.94232
1.9449
1.94734
1.94966
1.95184
1.95388
1.95578
1.95755
1.95918
1.96066
1.962
1.9632
1.96426
1.96517
1.96593
1.96655
1.96702
1.96735
1.96752
1.96756
1.96862
1.96858
1.9684
1.96808
1.9676
1.96698
1.96621
1.9653
1.96424
1.96303
1.96168
1.96019
1.95855
1.95677
1.95486
1.9528
1.95061
1.94828
1.94582
1.94323
1.94051
1.93766
1.93468
1.93158
1.92836
1.92503
1.92157
1.91801
1.91433
1.91055
1.90666
1.90267
1.89859
1.89441
1.89014
1.88578
1.88134
1.87682
1.87222
1.86756
1.86282
1.85803
1.85317
1.84826
1.8433
1.8383
1.83325
1.82817
1.82306
1.81792
1.81277
1.80759
1.80241
1.79722
1.79203
1.78685
1.78168
1.77653
1.77139
1.76629
1.76121
1.75618
1.75119
1.74625
1.74136
1.73653
1.73177
1.72708
1.72247
1.71793
1.71349
1.70914
1.70488
1.70073
1.69668
1.69275
1.68893
1.68524
1.68167
1.67823
1.67492
1.67176
1.66873
1.66586
1.66313
1.66056
1.65814
1.65588
1.65379
1.65186
1.6501
1.6485
1.64708
1.64584
1.64477
1.64387
1.64316
1.64262
1.64226
1.64208
1.64208
1.64227
1.64263
1.64317
1.64389
1.64479
1.64586
1.64711
1.64854
1.65014
1.6519
1.65383
1.65593
1.6582
1.66062
1.66319
1.66592
1.66881
1.67183
1.675
1.67831
1.68175
1.68533
1.68903
1.69285
1.69678
1.70083
1.70499
1.70925
1.71361
1.71805
1.72259
1.72721
1.7319
1.73667
1.7415
1.74639
1.75133
1.75632
1.76136
1.76644
1.77155
1.77668
1.78184
1.78701
1.7922
1.79739
1.80258
1.80777
1.81294
1.8181
1.82324
1.82835
1.83343
1.83848
1.84349
1.84845
1.85336
1.85822
1.86302
1.86775
1.87242
1.87702
1.88154
1.88598
1.89034
1.89461
1.89879
1.90288
1.90687
1.91076
1.91454
1.91822
1.92179
1.92524
1.92858
1.9318
1.9349
1.93788
1.94073
1.94345
1.94604
1.94851
1.95084
1.95303
1.95508
1.957
1.95878
1.96042
1.96191
1.96326
1.96447
1.96553
1.96645
1.96722
1.96784
1.96831
1.96864
1.96881
1.96885
1.97006
1.97001
1.96984
1.96951
1.96903
1.96841
1.96763
1.96671
1.96564
1.96443
1.96307
1.96156
1.95992
1.95813
1.9562
1.95412
1.95192
1.94957
1.94709
1.94448
1.94174
1.93887
1.93587
1.93275
1.9295
1.92614
1.92266
1.91907
1.91536
1.91155
1.90763
1.90361
1.89949
1.89528
1.89097
1.88658
1.8821
1.87754
1.87291
1.8682
1.86342
1.85858
1.85368
1.84873
1.84372
1.83867
1.83358
1.82845
1.82329
1.8181
1.8129
1.80767
1.80244
1.7972
1.79196
1.78672
1.7815
1.77629
1.7711
1.76594
1.76081
1.75572
1.75068
1.74568
1.74074
1.73586
1.73104
1.7263
1.72163
1.71704
1.71255
1.70814
1.70384
1.69963
1.69554
1.69156
1.68769
1.68395
1.68034
1.67686
1.67351
1.6703
1.66724
1.66433
1.66157
1.65896
1.65651
1.65422
1.6521
1.65015
1.64836
1.64675
1.64531
1.64405
1.64296
1.64206
1.64133
1.64079
1.64042
1.64024
1.64024
1.64043
1.6408
1.64134
1.64208
1.64299
1.64407
1.64534
1.64678
1.6484
1.65019
1.65215
1.65428
1.65657
1.65902
1.66163
1.6644
1.66731
1.67038
1.67359
1.67694
1.68043
1.68404
1.68779
1.69166
1.69564
1.69974
1.70395
1.70826
1.71266
1.71716
1.72175
1.72642
1.73117
1.73599
1.74087
1.74582
1.75082
1.75587
1.76096
1.76609
1.77126
1.77645
1.78166
1.78688
1.79212
1.79737
1.80261
1.80785
1.81307
1.81828
1.82347
1.82863
1.83376
1.83886
1.84391
1.84892
1.85387
1.85878
1.86362
1.86839
1.8731
1.87774
1.8823
1.88678
1.89118
1.89548
1.8997
1.90382
1.90784
1.91176
1.91558
1.91928
1.92288
1.92636
1.92972
1.93297
1.93609
1.93909
1.94196
1.94471
1.94732
1.9498
1.95214
1.95435
1.95642
1.95836
1.96015
1.96179
1.9633
1.96466
1.96588
1.96694
1.96787
1.96864
1.96927
1.96975
1.97007
1.97025
1.97029
1.97164
1.9716
1.97142
1.97109
1.97061
1.96998
1.9692
1.96827
1.96719
1.96597
1.9646
1.96308
1.96142
1.95962
1.95767
1.95558
1.95336
1.95099
1.9485
1.94586
1.9431
1.9402
1.93718
1.93403
1.93076
1.92737
1.92386
1.92024
1.9165
1.91265
1.9087
1.90464
1.90049
1.89624
1.89189
1.88746
1.88294
1.87834
1.87366
1.86891
1.86408
1.8592
1.85425
1.84924
1.84419
1.83909
1.83394
1.82876
1.82355
1.81831
1.81304
1.80776
1.80247
1.79717
1.79187
1.78658
1.7813
1.77603
1.77078
1.76556
1.76037
1.75522
1.75011
1.74506
1.74005
1.73511
1.73024
1.72543
1.72071
1.71606
1.71151
1.70705
1.70268
1.69843
1.69428
1.69024
1.68633
1.68253
1.67887
1.67534
1.67195
1.6687
1.6656
1.66264
1.65984
1.6572
1.65471
1.6524
1.65024
1.64826
1.64645
1.64481
1.64335
1.64207
1.64097
1.64005
1.63932
1.63876
1.63839
1.63821
1.63821
1.6384
1.63877
1.63933
1.64007
1.64099
1.6421
1.64339
1.64485
1.64649
1.6483
1.65029
1.65245
1.65477
1.65726
1.65991
1.66271
1.66567
1.66878
1.67203
1.67543
1.67896
1.68263
1.68642
1.69034
1.69438
1.69853
1.7028
1.70716
1.71163
1.71619
1.72083
1.72556
1.73037
1.73525
1.74019
1.7452
1.75026
1.75537
1.76052
1.76571
1.77094
1.77619
1.78146
1.78674
1.79204
1.79734
1.80264
1.80794
1.81322
1.81848
1.82373
1.82894
1.83413
1.83927
1.84438
1.84944
1.85444
1.85939
1.86428
1.8691
1.87386
1.87854
1.88314
1.88766
1.8921
1.89644
1.9007
1.90485
1.90891
1.91287
1.91671
1.92045
1.92408
1.92759
1.93098
1.93425
1.9374
1.94043
1.94332
1.94609
1.94872
1.95122
1.95358
1.95581
1.9579
1.95984
1.96165
1.96331
1.96483
1.9662
1.96742
1.9685
1.96943
1.97021
1.97084
1.97132
1.97165
1.97183
1.97187
1.97337
1.97332
1.97315
1.97281
1.97233
1.97169
1.9709
1.96997
1.96888
1.96765
1.96626
1.96474
1.96306
1.96124
1.95928
1.95718
1.95493
1.95255
1.95003
1.94737
1.94458
1.94166
1.93861
1.93544
1.93214
1.92871
1.92517
1.92152
1.91774
1.91386
1.90987
1.90578
1.90158
1.89729
1.8929
1.88842
1.88386
1.87921
1.87448
1.86968
1.86481
1.85987
1.85487
1.84981
1.8447
1.83954
1.83434
1.8291
1.82383
1.81853
1.81321
1.80786
1.80251
1.79715
1.79179
1.78643
1.78108
1.77574
1.77043
1.76514
1.75989
1.75467
1.7495
1.74438
1.73931
1.7343
1.72936
1.72449
1.7197
1.71499
1.71037
1.70585
1.70143
1.69711
1.6929
1.68881
1.68483
1.68099
1.67727
1.67369
1.67024
1.66695
1.66379
1.6608
1.65795
1.65527
1.65275
1.65039
1.64821
1.64619
1.64435
1.64269
1.64121
1.63991
1.63879
1.63786
1.63711
1.63655
1.63617
1.63599
1.63599
1.63618
1.63656
1.63712
1.63788
1.63881
1.63994
1.64124
1.64273
1.64439
1.64624
1.64826
1.65045
1.6528
1.65533
1.65802
1.66086
1.66387
1.66702
1.67033
1.67377
1.67736
1.68108
1.68493
1.68891
1.693
1.69721
1.70154
1.70597
1.71049
1.71511
1.71983
1.72462
1.72949
1.73444
1.73945
1.74452
1.74965
1.75482
1.76004
1.7653
1.77059
1.7759
1.78124
1.78659
1.79195
1.79732
1.80268
1.80804
1.81338
1.81871
1.82401
1.82929
1.83453
1.83973
1.84489
1.85
1.85506
1.86006
1.865
1.86988
1.87468
1.87941
1.88406
1.88863
1.89311
1.8975
1.90179
1.90599
1.91008
1.91407
1.91796
1.92173
1.92539
1.92893
1.93236
1.93566
1.93883
1.94189
1.94481
1.9476
1.95025
1.95277
1.95516
1.9574
1.95951
1.96147
1.96329
1.96497
1.9665
1.96788
1.96911
1.9702
1.97114
1.97192
1.97256
1.97305
1.97338
1.97356
1.9736
1.97524
1.9752
1.97502
1.97468
1.97419
1.97355
1.97276
1.97181
1.97072
1.96947
1.96808
1.96653
1.96484
1.96301
1.96103
1.9589
1.95664
1.95423
1.95169
1.94901
1.94619
1.94325
1.94017
1.93696
1.93363
1.93017
1.9266
1.9229
1.91909
1.91517
1.91114
1.90701
1.90277
1.89843
1.894
1.88947
1.88486
1.88016
1.87538
1.87052
1.8656
1.8606
1.85555
1.85043
1.84526
1.84004
1.83478
1.82948
1.82414
1.81877
1.81338
1.80798
1.80255
1.79712
1.79169
1.78626
1.78084
1.77544
1.77006
1.7647
1.75937
1.75408
1.74884
1.74364
1.7385
1.73342
1.72841
1.72347
1.71861
1.71383
1.70914
1.70455
1.70006
1.69567
1.6914
1.68724
1.68321
1.6793
1.67553
1.67189
1.66839
1.66504
1.66183
1.65879
1.6559
1.65317
1.65061
1.64821
1.64599
1.64394
1.64207
1.64038
1.63888
1.63755
1.63642
1.63547
1.63471
1.63414
1.63376
1.63357
1.63357
1.63376
1.63415
1.63472
1.63549
1.63644
1.63758
1.63891
1.64042
1.64211
1.64399
1.64604
1.64827
1.65066
1.65323
1.65596
1.65886
1.66191
1.66511
1.66847
1.67197
1.67562
1.67939
1.68331
1.68734
1.6915
1.69578
1.70017
1.70467
1.70926
1.71395
1.71873
1.7236
1.72854
1.73356
1.73864
1.74378
1.74898
1.75423
1.75952
1.76485
1.77021
1.7756
1.78101
1.78643
1.79186
1.79729
1.80273
1.80815
1.81356
1.81895
1.82432
1.82966
1.83496
1.84023
1.84545
1.85062
1.85574
1.8608
1.86579
1.87072
1.87558
1.88036
1.88506
1.88967
1.8942
1.89864
1.90298
1.90722
1.91136
1.91539
1.91931
1.92312
1.92682
1.93039
1.93385
1.93718
1.94039
1.94347
1.94642
1.94923
1.95192
1.95446
1.95687
1.95913
1.96126
1.96324
1.96507
1.96676
1.96831
1.9697
1.97095
1.97204
1.97299
1.97378
1.97443
1.97491
1.97525
1.97543
1.97547
1.97726
1.97722
1.97704
1.9767
1.9762
1.97556
1.97475
1.9738
1.97269
1.97144
1.97003
1.96847
1.96677
1.96491
1.96291
1.96077
1.95848
1.95605
1.95348
1.95078
1.94793
1.94496
1.94185
1.93861
1.93524
1.93175
1.92814
1.9244
1.92055
1.91659
1.91252
1.90834
1.90405
1.89966
1.89518
1.8906
1.88594
1.88118
1.87635
1.87144
1.86645
1.8614
1.85628
1.8511
1.84587
1.84058
1.83525
1.82988
1.82448
1.81904
1.81358
1.8081
1.8026
1.7971
1.79159
1.78609
1.78059
1.77511
1.76965
1.76422
1.75881
1.75344
1.74812
1.74285
1.73763
1.73247
1.72738
1.72236
1.71743
1.71257
1.70781
1.70315
1.69858
1.69412
1.68978
1.68555
1.68145
1.67748
1.67364
1.66994
1.66638
1.66297
1.65971
1.65661
1.65367
1.6509
1.64829
1.64585
1.64359
1.64151
1.63961
1.63789
1.63635
1.635
1.63385
1.63288
1.63211
1.63152
1.63114
1.63094
1.63095
1.63114
1.63154
1.63212
1.6329
1.63387
1.63503
1.63638
1.63792
1.63965
1.64155
1.64364
1.64591
1.64835
1.65096
1.65374
1.65668
1.65979
1.66305
1.66646
1.67003
1.67373
1.67757
1.68155
1.68566
1.68989
1.69423
1.69869
1.70326
1.70793
1.7127
1.71755
1.72249
1.72752
1.73261
1.73777
1.74299
1.74827
1.75359
1.75896
1.76437
1.76981
1.77527
1.78076
1.78626
1.79176
1.79727
1.80278
1.80827
1.81376
1.81922
1.82466
1.83007
1.83544
1.84077
1.84606
1.85129
1.85647
1.86159
1.86665
1.87164
1.87655
1.88139
1.88614
1.89081
1.89539
1.89987
1.90426
1.90855
1.91273
1.91681
1.92077
1.92462
1.92836
1.93197
1.93546
1.93883
1.94207
1.94518
1.94816
1.951
1.95371
1.95628
1.95871
1.961
1.96314
1.96514
1.967
1.9687
1.97026
1.97167
1.97293
1.97403
1.97499
1.97579
1.97644
1.97693
1.97727
1.97745
1.97749
1.97943
1.97939
1.97921
1.97886
1.97836
1.97771
1.9769
1.97594
1.97482
1.97355
1.97213
1.97056
1.96883
1.96696
1.96494
1.96277
1.96046
1.95801
1.95541
1.95268
1.9498
1.9468
1.94365
1.94038
1.93698
1.93345
1.92979
1.92602
1.92213
1.91812
1.914
1.90977
1.90543
1.90099
1.89646
1.89182
1.8871
1.88229
1.8774
1.87242
1.86737
1.86226
1.85707
1.85183
1.84652
1.84117
1.83577
1.83032
1.82484
1.81933
1.81379
1.80824
1.80266
1.79708
1.79149
1.78591
1.78033
1.77476
1.76922
1.7637
1.75821
1.75276
1.74735
1.742
1.73669
1.73145
1.72628
1.72118
1.71616
1.71122
1.70638
1.70163
1.69699
1.69246
1.68804
1.68374
1.67956
1.67552
1.67161
1.66784
1.66422
1.66075
1.65743
1.65427
1.65128
1.64845
1.64579
1.64331
1.64101
1.63889
1.63695
1.63519
1.63363
1.63226
1.63108
1.63009
1.6293
1.62871
1.62832
1.62812
1.62812
1.62832
1.62872
1.62932
1.63011
1.6311
1.63229
1.63366
1.63523
1.63699
1.63893
1.64106
1.64337
1.64585
1.64851
1.65135
1.65434
1.65751
1.66083
1.6643
1.66793
1.6717
1.67561
1.67966
1.68384
1.68814
1.69257
1.69711
1.70175
1.7065
1.71135
1.71629
1.72131
1.72641
1.73159
1.73683
1.74214
1.7475
1.75291
1.75836
1.76386
1.76938
1.77493
1.78049
1.78607
1.79166
1.79725
1.80284
1.80841
1.81397
1.81951
1.82503
1.83051
1.83595
1.84136
1.84671
1.85202
1.85727
1.86245
1.86757
1.87262
1.8776
1.88249
1.88731
1.89203
1.89666
1.9012
1.90564
1.90998
1.91421
1.91833
1.92234
1.92624
1.93001
1.93367
1.9372
1.9406
1.94388
1.94702
1.95003
1.9529
1.95564
1.95824
1.96069
1.963
1.96517
1.96719
1.96906
1.97079
1.97236
1.97378
1.97505
1.97617
1.97713
1.97794
1.9786
1.9791
1.97944
1.97962
1.97967
1.98175
1.98171
1.98153
1.98118
1.98067
1.98001
1.9792
1.97822
1.97709
1.97581
1.97437
1.97278
1.97104
1.96915
1.96711
1.96492
1.96258
1.9601
1.95748
1.95471
1.95181
1.94876
1.94559
1.94227
1.93883
1.93526
1.93157
1.92775
1.92381
1.91975
1.91558
1.9113
1.90691
1.90242
1.89782
1.89313
1.88835
1.88348
1.87852
1.87348
1.86836
1.86318
1.85792
1.8526
1.84723
1.8418
1.83632
1.8308
1.82524
1.81965
1.81403
1.80839
1.80273
1.79706
1.79139
1.78571
1.78005
1.77439
1.76876
1.76315
1.75757
1.75203
1.74653
1.74109
1.73569
1.73036
1.7251
1.71991
1.7148
1.70978
1.70485
1.70002
1.69529
1.69067
1.68617
1.68179
1.67754
1.67342
1.66944
1.6656
1.6619
1.65836
1.65498
1.65176
1.64871
1.64583
1.64312
1.64058
1.63823
1.63607
1.63409
1.6323
1.63071
1.62931
1.6281
1.6271
1.62629
1.62569
1.62529
1.62508
1.62509
1.62529
1.6257
1.62631
1.62712
1.62813
1.62934
1.63074
1.63234
1.63413
1.63612
1.63829
1.64064
1.64318
1.64589
1.64878
1.65183
1.65506
1.65844
1.66199
1.66568
1.66953
1.67351
1.67764
1.68189
1.68628
1.69078
1.6954
1.70014
1.70497
1.7099
1.71493
1.72004
1.72523
1.7305
1.73584
1.74123
1.74668
1.75218
1.75773
1.76331
1.76892
1.77456
1.78021
1.78588
1.79156
1.79723
1.8029
1.80856
1.81421
1.81983
1.82542
1.83098
1.83651
1.84199
1.84742
1.8528
1.85812
1.86337
1.86856
1.87368
1.87872
1.88368
1.88856
1.89334
1.89803
1.90263
1.90712
1.91151
1.9158
1.91997
1.92402
1.92797
1.93179
1.93548
1.93905
1.9425
1.94581
1.94899
1.95203
1.95494
1.9577
1.96033
1.96281
1.96515
1.96734
1.96938
1.97127
1.97302
1.97461
1.97604
1.97733
1.97846
1.97943
1.98025
1.98091
1.98141
1.98176
1.98194
1.98199
1.98423
1.98418
1.984
1.98365
1.98314
1.98247
1.98164
1.98066
1.97952
1.97822
1.97677
1.97516
1.9734
1.97148
1.96942
1.9672
1.96484
1.96233
1.95968
1.95688
1.95394
1.95086
1.94765
1.9443
1.94081
1.9372
1.93346
1.92959
1.9256
1.9215
1.91727
1.91294
1.90849
1.90394
1.89929
1.89453
1.88968
1.88475
1.87972
1.87461
1.86942
1.86416
1.85883
1.85344
1.84798
1.84247
1.83691
1.83131
1.82566
1.81999
1.81428
1.80855
1.8028
1.79704
1.79128
1.78551
1.77975
1.774
1.76828
1.76257
1.7569
1.75126
1.74566
1.74012
1.73463
1.7292
1.72384
1.71856
1.71335
1.70824
1.70322
1.69829
1.69347
1.68877
1.68418
1.67971
1.67537
1.67117
1.66711
1.66319
1.65943
1.65581
1.65236
1.64908
1.64596
1.64302