/*--------------------------------*- C++ -*----------------------------------*\
| =========                 |                                                 |
| \\      /  F ield         | OpenFOAM: The Open Source CFD Toolbox           |
|  \\    /   O peration     | Version:  2412                                  |
|   \\  /    A nd           | Website:  www.openfoam.com                      |
|    \\/     M anipulation  |                                                 |
\*---------------------------------------------------------------------------*/
FoamFile
{
    version     2.0;
    format      ascii;
    arch        "LSB;label=32;scalar=64";
    class       surfaceScalarField;
    location    "1.13";
    object      phi;
}
// * * * * * * * * * * * * * * * * * * * * * * * * * * * * * * * * * * * * * //

dimensions      [0 3 -1 0 0 0 0];

oriented        oriented;

internalField   nonuniform List<scalar> 
79600
(
2.23444e-11
-2.23158e-11
5.19542e-11
-2.96097e-11
8.47458e-11
-3.27937e-11
1.19091e-10
-3.43458e-11
1.54131e-10
-3.50354e-11
1.89326e-10
-3.51901e-11
2.24404e-10
-3.50783e-11
2.59273e-10
-3.48716e-11
2.93891e-10
-3.4621e-11
3.28248e-10
-3.43569e-11
3.62331e-10
-3.4083e-11
3.96126e-10
-3.37944e-11
4.29617e-10
-3.34898e-11
4.62784e-10
-3.31673e-11
4.9561e-10
-3.28253e-11
5.28073e-10
-3.24623e-11
5.60151e-10
-3.20769e-11
5.91821e-10
-3.16685e-11
6.23058e-10
-3.12367e-11
6.5384e-10
-3.07808e-11
6.84141e-10
-3.03006e-11
7.13937e-10
-2.97956e-11
7.43202e-10
-2.92654e-11
7.71912e-10
-2.87096e-11
8.0004e-10
-2.81278e-11
8.27561e-10
-2.752e-11
8.54449e-10
-2.68863e-11
8.80677e-10
-2.62268e-11
9.06219e-10
-2.55417e-11
9.3105e-10
-2.48309e-11
9.55143e-10
-2.40943e-11
9.78473e-10
-2.33315e-11
1.00102e-09
-2.25424e-11
1.02274e-09
-2.1727e-11
1.04363e-09
-2.08858e-11
1.06365e-09
-2.0019e-11
1.08277e-09
-1.91267e-11
1.10098e-09
-1.8209e-11
1.11825e-09
-1.72656e-11
1.13454e-09
-1.62968e-11
1.14984e-09
-1.53028e-11
1.16413e-09
-1.42842e-11
1.17737e-09
-1.32415e-11
1.18954e-09
-1.21753e-11
1.20063e-09
-1.1086e-11
1.2106e-09
-9.97422e-12
1.21944e-09
-8.84068e-12
1.22713e-09
-7.68626e-12
1.23364e-09
-6.51185e-12
1.23896e-09
-5.31829e-12
1.24307e-09
-4.10633e-12
1.24594e-09
-2.87656e-12
1.24757e-09
-1.62891e-12
1.24794e-09
-3.62901e-13
1.24701e-09
9.21371e-13
1.2448e-09
2.21233e-12
1.24129e-09
3.51113e-12
1.23647e-09
4.81782e-12
1.23034e-09
6.13206e-12
1.22289e-09
7.45258e-12
1.21411e-09
8.77784e-12
1.20401e-09
1.01063e-11
1.19257e-09
1.14363e-11
1.1798e-09
1.27664e-11
1.16571e-09
1.40948e-11
1.15029e-09
1.54195e-11
1.13355e-09
1.67384e-11
1.11551e-09
1.80493e-11
1.09616e-09
1.93499e-11
1.07552e-09
2.06383e-11
1.0536e-09
2.19123e-11
1.03043e-09
2.31702e-11
1.00602e-09
2.441e-11
9.8039e-10
2.56299e-11
9.53563e-10
2.68275e-11
9.25563e-10
2.80007e-11
8.96416e-10
2.91471e-11
8.66151e-10
3.02647e-11
8.34799e-10
3.13513e-11
8.02393e-10
3.24051e-11
7.68969e-10
3.3424e-11
7.34562e-10
3.44059e-11
6.99214e-10
3.53488e-11
6.62964e-10
3.62507e-11
6.25855e-10
3.71098e-11
5.87931e-10
3.79243e-11
5.49239e-10
3.86923e-11
5.09826e-10
3.94122e-11
4.69742e-10
4.00825e-11
4.29039e-10
4.07022e-11
3.87769e-10
4.12699e-11
3.45985e-10
4.17844e-11
3.03741e-10
4.22444e-11
2.61092e-10
4.26487e-11
2.18094e-10
4.29968e-11
1.74806e-10
4.32881e-11
1.31284e-10
4.35221e-11
8.75876e-11
4.36981e-11
4.37741e-11
4.38152e-11
-9.63267e-14
4.38723e-11
-4.39667e-11
4.38723e-11
-8.77804e-11
4.38153e-11
-1.31478e-10
4.36982e-11
-1.75e-10
4.35222e-11
-2.18289e-10
4.32881e-11
-2.61287e-10
4.29966e-11
-3.03936e-10
4.26484e-11
-3.4618e-10
4.22442e-11
-3.87966e-10
4.17844e-11
-4.29237e-10
4.12699e-11
-4.69942e-10
4.07024e-11
-5.10026e-10
4.00832e-11
-5.49439e-10
3.94129e-11
-5.88133e-10
3.8693e-11
-6.26059e-10
3.79254e-11
-6.6317e-10
3.71113e-11
-6.99422e-10
3.62526e-11
-7.34773e-10
3.53511e-11
-7.69182e-10
3.44083e-11
-8.02609e-10
3.34264e-11
-8.35017e-10
3.24078e-11
-8.66371e-10
3.13544e-11
-8.96638e-10
3.02682e-11
-9.25789e-10
2.9151e-11
-9.53794e-10
2.80048e-11
-9.80626e-10
2.68322e-11
-1.00626e-09
2.5635e-11
-1.03068e-09
2.44154e-11
-1.05385e-09
2.31756e-11
-1.07577e-09
2.19173e-11
-1.09641e-09
2.06435e-11
-1.11577e-09
1.93564e-11
-1.13382e-09
1.80565e-11
-1.15057e-09
1.67464e-11
-1.166e-09
1.54289e-11
-1.1801e-09
1.41055e-11
-1.19288e-09
1.27782e-11
-1.20433e-09
1.14488e-11
-1.21445e-09
1.01194e-11
-1.22324e-09
8.79174e-12
-1.2307e-09
7.46695e-12
-1.23685e-09
6.14611e-12
-1.24168e-09
4.83063e-12
-1.2452e-09
3.52246e-12
-1.24742e-09
2.22185e-12
-1.24835e-09
9.28854e-13
-1.24799e-09
-3.5701e-13
-1.24637e-09
-1.62385e-12
-1.2435e-09
-2.87058e-12
-1.2394e-09
-4.09854e-12
-1.23409e-09
-5.3086e-12
-1.22759e-09
-6.49935e-12
-1.21992e-09
-7.67029e-12
-1.2111e-09
-8.82156e-12
-1.20115e-09
-9.95236e-12
-1.19008e-09
-1.10624e-11
-1.17793e-09
-1.21507e-11
-1.16471e-09
-1.32162e-11
-1.15045e-09
-1.42587e-11
-1.13517e-09
-1.5278e-11
-1.1189e-09
-1.62731e-11
-1.10166e-09
-1.72425e-11
-1.08347e-09
-1.81858e-11
-1.06437e-09
-1.91033e-11
-1.04437e-09
-1.99948e-11
-1.02351e-09
-2.08602e-11
-1.00181e-09
-2.16991e-11
-9.793e-10
-2.25123e-11
-9.55999e-10
-2.32997e-11
-9.31936e-10
-2.40613e-11
-9.07138e-10
-2.47973e-11
-8.81629e-10
-2.55083e-11
-8.55436e-10
-2.61924e-11
-8.28586e-10
-2.68485e-11
-8.01111e-10
-2.74762e-11
-7.73035e-10
-2.80758e-11
-7.44385e-10
-2.86489e-11
-7.15187e-10
-2.91983e-11
-6.85462e-10
-2.97249e-11
-6.55235e-10
-3.02265e-11
-6.24529e-10
-3.07036e-11
-5.93374e-10
-3.11551e-11
-5.61794e-10
-3.15802e-11
-5.29816e-10
-3.19782e-11
-4.97469e-10
-3.23484e-11
-4.64776e-10
-3.26922e-11
-4.31762e-10
-3.30114e-11
-3.98453e-10
-3.33095e-11
-3.64869e-10
-3.35863e-11
-3.31031e-10
-3.38393e-11
-2.96964e-10
-3.40676e-11
-2.62694e-10
-3.42693e-11
-2.28246e-10
-3.4445e-11
-1.93653e-10
-3.45946e-11
-1.58937e-10
-3.47153e-11
-1.24137e-10
-3.47987e-11
-8.93271e-11
-3.48091e-11
-5.48018e-11
-3.45275e-11
-2.2241e-11
-3.25643e-11
-2.22477e-11
3.54354e-11
-5.7751e-11
8.3191e-11
-7.73601e-11
1.31775e-10
-8.1374e-11
1.80737e-10
-8.33109e-11
2.30072e-10
-8.43742e-11
2.79604e-10
-8.47213e-11
3.29173e-10
-8.46447e-11
3.78643e-10
-8.43417e-11
4.27929e-10
-8.39081e-11
4.76961e-10
-8.33914e-11
5.25688e-10
-8.28106e-11
5.74066e-10
-8.21717e-11
6.22056e-10
-8.14774e-11
6.69618e-10
-8.07281e-11
7.16717e-10
-7.9923e-11
7.63317e-10
-7.90608e-11
8.09382e-10
-7.81406e-11
8.54877e-10
-7.71618e-11
8.99766e-10
-7.6124e-11
9.44012e-10
-7.50262e-11
9.8758e-10
-7.38679e-11
1.03043e-09
-7.26481e-11
1.07253e-09
-7.13661e-11
1.11385e-09
-7.00213e-11
1.15433e-09
-6.86134e-11
1.19396e-09
-6.71424e-11
1.23268e-09
-6.56083e-11
1.27047e-09
-6.40109e-11
1.30727e-09
-6.23503e-11
1.34307e-09
-6.06259e-11
1.37781e-09
-5.88375e-11
1.41146e-09
-5.69848e-11
1.44399e-09
-5.50679e-11
1.47535e-09
-5.30873e-11
1.5055e-09
-5.10432e-11
1.53442e-09
-4.8936e-11
1.56206e-09
-4.67658e-11
1.58838e-09
-4.45326e-11
1.61335e-09
-4.22369e-11
1.63693e-09
-3.98793e-11
1.65909e-09
-3.74605e-11
1.67979e-09
-3.49815e-11
1.69899e-09
-3.24435e-11
1.71666e-09
-2.98474e-11
1.73277e-09
-2.71946e-11
1.74728e-09
-2.44867e-11
1.76016e-09
-2.17254e-11
1.77139e-09
-1.89128e-11
1.78093e-09
-1.60508e-11
1.78875e-09
-1.31413e-11
1.79483e-09
-1.01865e-11
1.79915e-09
-7.18874e-12
1.80167e-09
-4.1503e-12
1.80238e-09
-1.07396e-12
1.80126e-09
2.03811e-12
1.7983e-09
5.17977e-12
1.79346e-09
8.3484e-12
1.78674e-09
1.15408e-11
1.77812e-09
1.47536e-11
1.76759e-09
1.79833e-11
1.75514e-09
2.12261e-11
1.74077e-09
2.44782e-11
1.72447e-09
2.77356e-11
1.70624e-09
3.0994e-11
1.68609e-09
3.4249e-11
1.66401e-09
3.74956e-11
1.64002e-09
4.07287e-11
1.61413e-09
4.39433e-11
1.58635e-09
4.71342e-11
1.55668e-09
5.02967e-11
1.52517e-09
5.34258e-11
1.49182e-09
5.65166e-11
1.45667e-09
5.95641e-11
1.41973e-09
6.25628e-11
1.38105e-09
6.55072e-11
1.34066e-09
6.8392e-11
1.2986e-09
7.12118e-11
1.2549e-09
7.39616e-11
1.20961e-09
7.66363e-11
1.16279e-09
7.92309e-11
1.11447e-09
8.174e-11
1.06472e-09
8.41585e-11
1.01359e-09
8.64813e-11
9.61135e-10
8.87036e-11
9.07424e-10
9.08207e-11
8.5252e-10
9.28284e-11
7.96489e-10
9.47223e-11
7.39402e-10
9.64986e-11
6.8133e-10
9.81535e-11
6.22348e-10
9.96837e-11
5.62532e-10
1.01086e-10
5.0196e-10
1.02356e-10
4.40712e-10
1.03492e-10
3.78868e-10
1.04492e-10
3.16513e-10
1.05353e-10
2.53728e-10
1.06074e-10
1.906e-10
1.06653e-10
1.27213e-10
1.07088e-10
6.36528e-11
1.07378e-10
6.29113e-15
1.07521e-10
-6.36403e-11
1.0752e-10
-1.27201e-10
1.07376e-10
-1.90588e-10
1.07085e-10
-2.53718e-10
1.0665e-10
-3.16503e-10
1.06072e-10
-3.78859e-10
1.05352e-10
-4.40702e-10
1.04491e-10
-5.01952e-10
1.03492e-10
-5.62525e-10
1.02355e-10
-6.22343e-10
1.01085e-10
-6.81326e-10
9.9684e-11
-7.39399e-10
9.8155e-11
-7.96488e-10
9.65008e-11
-8.5252e-10
9.47246e-11
-9.07425e-10
9.28307e-11
-9.61137e-10
9.08234e-11
-1.01359e-09
8.87065e-11
-1.06472e-09
8.64844e-11
-1.11448e-09
8.41621e-11
-1.1628e-09
8.17444e-11
-1.20963e-09
7.92366e-11
-1.25491e-09
7.6643e-11
-1.29861e-09
7.39687e-11
-1.34068e-09
7.12189e-11
-1.38108e-09
6.83992e-11
-1.41976e-09
6.5515e-11
-1.45669e-09
6.25713e-11
-1.49185e-09
5.95734e-11
-1.52521e-09
5.65271e-11
-1.55672e-09
5.34375e-11
-1.58639e-09
5.03089e-11
-1.61418e-09
4.71473e-11
-1.64007e-09
4.39571e-11
-1.66407e-09
4.07431e-11
-1.68615e-09
3.75113e-11
-1.70631e-09
3.42665e-11
-1.72454e-09
3.10134e-11
-1.74085e-09
2.77567e-11
-1.75523e-09
2.45009e-11
-1.76768e-09
2.12495e-11
-1.77822e-09
1.80065e-11
-1.78685e-09
1.47757e-11
-1.79358e-09
1.15608e-11
-1.79842e-09
8.36602e-12
-1.8014e-09
5.19519e-12
-1.80252e-09
2.05139e-12
-1.80182e-09
-1.06158e-12
-1.7993e-09
-4.13838e-12
-1.795e-09
-7.1759e-12
-1.78892e-09
-1.0171e-11
-1.78111e-09
-1.31226e-11
-1.77158e-09
-1.60286e-11
-1.76036e-09
-1.88864e-11
-1.74749e-09
-2.16946e-11
-1.73299e-09
-2.44518e-11
-1.71689e-09
-2.71567e-11
-1.69923e-09
-2.9808e-11
-1.68004e-09
-3.24033e-11
-1.65936e-09
-3.49411e-11
-1.63722e-09
-3.74205e-11
-1.61365e-09
-3.98401e-11
-1.58869e-09
-4.21984e-11
-1.56238e-09
-4.4494e-11
-1.53476e-09
-4.67266e-11
-1.50586e-09
-4.88953e-11
-1.47572e-09
-5.10006e-11
-1.44437e-09
-5.30419e-11
-1.41186e-09
-5.50194e-11
-1.37823e-09
-5.69326e-11
-1.3435e-09
-5.87832e-11
-1.30773e-09
-6.05716e-11
-1.27094e-09
-6.22959e-11
-1.23318e-09
-6.39547e-11
-1.19448e-09
-6.55478e-11
-1.15488e-09
-6.70741e-11
-1.11442e-09
-6.85343e-11
-1.07314e-09
-6.99312e-11
-1.03107e-09
-7.12672e-11
-9.88246e-10
-7.25431e-11
-9.44712e-10
-7.37584e-11
-9.00502e-10
-7.49136e-11
-8.55652e-10
-7.6006e-11
-8.10198e-10
-7.70342e-11
-7.64175e-10
-7.80006e-11
-7.17621e-10
-7.89022e-11
-6.70569e-10
-7.97423e-11
-6.23058e-10
-8.05248e-11
-5.75122e-10
-8.12485e-11
-5.26792e-10
-8.19168e-11
-4.78104e-10
-8.25276e-11
-4.29092e-10
-8.30775e-11
-3.79793e-10
-8.35685e-11
-3.3024e-10
-8.39984e-11
-2.80468e-10
-8.43671e-11
-2.30508e-10
-8.46751e-11
-1.80393e-10
-8.49148e-11
-1.30169e-10
-8.50304e-11
-8.01216e-11
-8.4569e-11
-3.24071e-11
-8.02663e-11
-5.46557e-11
3.60368e-11
-9.37899e-11
8.76575e-11
-1.2898e-10
1.40179e-10
-1.33888e-10
1.92311e-10
-1.35439e-10
2.44267e-10
-1.36332e-10
2.96164e-10
-1.36621e-10
3.48012e-10
-1.36494e-10
3.99746e-10
-1.36076e-10
4.51301e-10
-1.35463e-10
5.02615e-10
-1.34705e-10
5.53633e-10
-1.33829e-10
6.04307e-10
-1.32846e-10
6.54592e-10
-1.31762e-10
7.04445e-10
-1.3058e-10
7.53825e-10
-1.29302e-10
8.02693e-10
-1.27927e-10
8.51009e-10
-1.26455e-10
8.98734e-10
-1.24886e-10
9.4583e-10
-1.2322e-10
9.92259e-10
-1.21455e-10
1.03798e-09
-1.1959e-10
1.08296e-09
-1.17626e-10
1.12715e-09
-1.1556e-10
1.17053e-09
-1.13393e-10
1.21304e-09
-1.11123e-10
1.25465e-09
-1.08752e-10
1.29532e-09
-1.06277e-10
1.33501e-09
-1.037e-10
1.37368e-09
-1.01019e-10
1.41128e-09
-9.82345e-11
1.44779e-09
-9.53458e-11
1.48316e-09
-9.23529e-11
1.51735e-09
-8.9256e-11
1.55031e-09
-8.60554e-11
1.58202e-09
-8.27516e-11
1.61243e-09
-7.93448e-11
1.6415e-09
-7.58354e-11
1.66919e-09
-7.22237e-11
1.69546e-09
-6.85107e-11
1.72028e-09
-6.46973e-11
1.74361e-09
-6.07849e-11
1.7654e-09
-5.67749e-11
1.78563e-09
-5.26689e-11
1.80425e-09
-4.84687e-11
1.82123e-09
-4.41765e-11
1.83654e-09
-3.97949e-11
1.85014e-09
-3.53266e-11
1.862e-09
-3.07744e-11
1.87209e-09
-2.61415e-11
1.88038e-09
-2.14312e-11
1.88684e-09
-1.6647e-11
1.89144e-09
-1.17931e-11
1.89417e-09
-6.87379e-12
1.89499e-09
-1.89444e-12
1.89388e-09
3.14111e-12
1.89083e-09
8.22867e-12
1.88582e-09
1.3363e-11
1.87882e-09
1.8538e-11
1.86983e-09
2.37476e-11
1.85883e-09
2.89856e-11
1.84581e-09
3.4246e-11
1.83076e-09
3.95224e-11
1.81369e-09
4.48082e-11
1.79459e-09
5.00962e-11
1.77346e-09
5.53789e-11
1.75031e-09
6.06485e-11
1.72514e-09
6.5897e-11
1.69797e-09
7.11164e-11
1.6688e-09
7.62987e-11
1.63766e-09
8.1436e-11
1.60457e-09
8.65201e-11
1.56954e-09
9.15427e-11
1.53261e-09
9.64953e-11
1.4938e-09
1.01369e-10
1.45315e-09
1.06155e-10
1.4107e-09
1.10845e-10
1.36648e-09
1.15429e-10
1.32054e-09
1.19901e-10
1.27292e-09
1.24251e-10
1.22369e-09
1.2847e-10
1.17287e-09
1.32551e-10
1.12055e-09
1.36485e-10
1.06677e-09
1.40263e-10
1.01159e-09
1.43879e-10
9.55091e-10
1.47324e-10
8.97328e-10
1.50591e-10
8.38376e-10
1.53674e-10
7.78308e-10
1.56566e-10
7.172e-10
1.5926e-10
6.55132e-10
1.61752e-10
5.92182e-10
1.64035e-10
5.28434e-10
1.66104e-10
4.63971e-10
1.67955e-10
3.98879e-10
1.69585e-10
3.33245e-10
1.70988e-10
2.67158e-10
1.72163e-10
2.00707e-10
1.73105e-10
1.33982e-10
1.73813e-10
6.70738e-11
1.74286e-10
7.3922e-14
1.74521e-10
-6.69259e-11
1.74521e-10
-1.33834e-10
1.74284e-10
-2.00559e-10
1.73811e-10
-2.6701e-10
1.73102e-10
-3.33098e-10
1.7216e-10
-3.98732e-10
1.70986e-10
-4.63824e-10
1.69583e-10
-5.28289e-10
1.67954e-10
-5.92039e-10
1.66104e-10
-6.54989e-10
1.64035e-10
-7.17059e-10
1.61753e-10
-7.78167e-10
1.59262e-10
-8.38236e-10
1.56568e-10
-8.97189e-10
1.53677e-10
-9.54952e-10
1.50594e-10
-1.01146e-09
1.47327e-10
-1.06663e-09
1.43882e-10
-1.12041e-09
1.40267e-10
-1.17274e-09
1.36489e-10
-1.22355e-09
1.32556e-10
-1.27279e-09
1.28477e-10
-1.32041e-09
1.24258e-10
-1.36635e-09
1.19909e-10
-1.41057e-09
1.15438e-10
-1.45302e-09
1.10853e-10
-1.49367e-09
1.06165e-10
-1.53248e-09
1.0138e-10
-1.56941e-09
9.65074e-11
-1.60444e-09
9.15565e-11
-1.63754e-09
8.65357e-11
-1.66868e-09
8.14523e-11
-1.69785e-09
7.63151e-11
-1.72502e-09
7.11332e-11
-1.75019e-09
6.59143e-11
-1.77335e-09
6.06668e-11
-1.79448e-09
5.5399e-11
-1.81358e-09
5.01184e-11
-1.83065e-09
4.48324e-11
-1.8457e-09
3.95481e-11
-1.85872e-09
3.42719e-11
-1.86972e-09
2.90105e-11
-1.87872e-09
2.37711e-11
-1.88572e-09
1.85599e-11
-1.89073e-09
1.33831e-11
-1.89379e-09
8.2475e-12
-1.89489e-09
3.15883e-12
-1.89408e-09
-1.87712e-12
-1.89136e-09
-6.85616e-12
-1.88676e-09
-1.17749e-11
-1.8803e-09
-1.66268e-11
-1.87202e-09
-2.14079e-11
-1.86193e-09
-2.61151e-11
-1.85007e-09
-3.07444e-11
-1.83647e-09
-3.52929e-11
-1.82117e-09
-3.97578e-11
-1.80419e-09
-4.41364e-11
-1.78557e-09
-4.84267e-11
-1.76534e-09
-5.26259e-11
-1.74355e-09
-5.67315e-11
-1.72023e-09
-6.07414e-11
-1.69542e-09
-6.46539e-11
-1.66915e-09
-6.84677e-11
-1.64146e-09
-7.21807e-11
-1.6124e-09
-7.57916e-11
-1.58199e-09
-7.92987e-11
-1.55029e-09
-8.27033e-11
-1.51732e-09
-8.60048e-11
-1.48314e-09
-8.92022e-11
-1.44777e-09
-9.22959e-11
-1.41127e-09
-9.52869e-11
-1.37366e-09
-9.8175e-11
-1.335e-09
-1.00959e-10
-1.29532e-09
-1.03638e-10
-1.25465e-09
-1.06211e-10
-1.21305e-09
-1.08679e-10
-1.17054e-09
-1.11042e-10
-1.12717e-09
-1.13303e-10
-1.08297e-09
-1.15463e-10
-1.03799e-09
-1.17522e-10
-9.92261e-10
-1.19484e-10
-9.45827e-10
-1.21345e-10
-8.98726e-10
-1.23107e-10
-8.50996e-10
-1.24768e-10
-8.02667e-10
-1.26327e-10
-7.53782e-10
-1.27787e-10
-7.04376e-10
-1.29149e-10
-6.54487e-10
-1.30414e-10
-6.04154e-10
-1.31586e-10
-5.53409e-10
-1.32662e-10
-5.0229e-10
-1.33644e-10
-4.50836e-10
-1.34532e-10
-3.99081e-10
-1.35324e-10
-3.47058e-10
-1.3602e-10
-2.94804e-10
-1.36623e-10
-2.42348e-10
-1.37129e-10
-1.89728e-10
-1.37535e-10
-1.36999e-10
-1.37762e-10
-8.44694e-11
-1.37102e-10
-3.43824e-11
-1.30352e-10
-8.90375e-11
3.50811e-11
-1.28871e-10
8.67902e-11
-1.80694e-10
1.40361e-10
-1.87457e-10
1.93501e-10
-1.88575e-10
2.46239e-10
-1.89068e-10
2.98755e-10
-1.89139e-10
3.51099e-10
-1.8884e-10
4.03263e-10
-1.88241e-10
4.55215e-10
-1.87414e-10
5.06909e-10
-1.864e-10
5.58301e-10
-1.8522e-10
6.09345e-10
-1.83889e-10
6.59999e-10
-1.82415e-10
7.1022e-10
-1.80801e-10
7.59969e-10
-1.79049e-10
8.09205e-10
-1.77161e-10
8.57888e-10
-1.75137e-10
9.05979e-10
-1.72977e-10
9.5344e-10
-1.70681e-10
1.00023e-09
-1.68247e-10
1.04631e-09
-1.65674e-10
1.09165e-09
-1.62962e-10
1.1362e-09
-1.6011e-10
1.17993e-09
-1.57117e-10
1.22279e-09
-1.53982e-10
1.26474e-09
-1.50706e-10
1.30575e-09
-1.47287e-10
1.34578e-09
-1.43724e-10
1.38478e-09
-1.40019e-10
1.42271e-09
-1.36168e-10
1.45954e-09
-1.32174e-10
1.49522e-09
-1.28035e-10
1.52971e-09
-1.23751e-10
1.56298e-09
-1.19324e-10
1.59498e-09
-1.14753e-10
1.62568e-09
-1.10039e-10
1.65502e-09
-1.05182e-10
1.68298e-09
-1.00183e-10
1.70952e-09
-9.50438e-11
1.73459e-09
-8.97653e-11
1.75815e-09
-8.43494e-11
1.78017e-09
-7.8798e-11
1.80062e-09
-7.31134e-11
1.81945e-09
-6.72981e-11
1.83663e-09
-6.13551e-11
1.85212e-09
-5.52878e-11
1.86589e-09
-4.90999e-11
1.87791e-09
-4.27951e-11
1.88815e-09
-3.63778e-11
1.89657e-09
-2.98526e-11
1.90314e-09
-2.32245e-11
1.90785e-09
-1.64991e-11
1.91066e-09
-9.68235e-12
1.91154e-09
-2.78122e-12
1.91048e-09
4.1991e-12
1.90746e-09
1.12522e-11
1.90245e-09
1.83705e-11
1.89545e-09
2.55461e-11
1.88642e-09
3.27707e-11
1.87537e-09
4.00358e-11
1.86229e-09
4.73328e-11
1.84716e-09
5.46528e-11
1.82998e-09
6.19862e-11
1.81076e-09
6.93231e-11
1.78948e-09
7.6653e-11
1.76617e-09
8.39653e-11
1.74081e-09
9.12492e-11
1.71344e-09
9.84936e-11
1.68405e-09
1.05688e-10
1.65266e-09
1.1282e-10
1.6193e-09
1.19879e-10
1.58399e-09
1.26854e-10
1.54675e-09
1.33731e-10
1.50762e-09
1.405e-10
1.46662e-09
1.47147e-10
1.42381e-09
1.53661e-10
1.37921e-09
1.6003e-10
1.33287e-09
1.66242e-10
1.28483e-09
1.72285e-10
1.23516e-09
1.78147e-10
1.18389e-09
1.83817e-10
1.13109e-09
1.89282e-10
1.07682e-09
1.94532e-10
1.02115e-09
1.99557e-10
9.64125e-10
2.04345e-10
9.05829e-10
2.08887e-10
8.46331e-10
2.13172e-10
7.85704e-10
2.17192e-10
7.24025e-10
2.20938e-10
6.61374e-10
2.24403e-10
5.97832e-10
2.27577e-10
5.33482e-10
2.30455e-10
4.68409e-10
2.33029e-10
4.027e-10
2.35295e-10
3.36443e-10
2.37247e-10
2.69727e-10
2.38879e-10
2.02641e-10
2.40189e-10
1.35279e-10
2.41174e-10
6.77322e-11
2.41831e-10
9.30363e-14
2.4216e-10
-6.7546e-11
2.4216e-10
-1.35093e-10
2.41831e-10
-2.02454e-10
2.41173e-10
-2.69539e-10
2.40187e-10
-3.36255e-10
2.38877e-10
-4.02513e-10
2.37244e-10
-4.68224e-10
2.35293e-10
-5.33298e-10
2.33028e-10
-5.97649e-10
2.30454e-10
-6.61192e-10
2.27577e-10
-7.23843e-10
2.24404e-10
-7.85522e-10
2.2094e-10
-8.4615e-10
2.17194e-10
-9.05649e-10
2.13175e-10
-9.63944e-10
2.0889e-10
-1.02097e-09
2.04349e-10
-1.07664e-09
1.99562e-10
-1.13091e-09
1.94537e-10
-1.18371e-09
1.89287e-10
-1.23498e-09
1.83822e-10
-1.28466e-09
1.78153e-10
-1.33269e-09
1.72292e-10
-1.37903e-09
1.6625e-10
-1.42363e-09
1.60039e-10
-1.46645e-09
1.53671e-10
-1.50744e-09
1.47159e-10
-1.54658e-09
1.40513e-10
-1.58381e-09
1.33746e-10
-1.61913e-09
1.2687e-10
-1.65249e-09
1.19897e-10
-1.68387e-09
1.12839e-10
-1.71326e-09
1.05706e-10
-1.74064e-09
9.85126e-11
-1.766e-09
9.12688e-11
-1.78931e-09
8.39859e-11
-1.81059e-09
7.66749e-11
-1.82981e-09
6.93465e-11
-1.84699e-09
6.20111e-11
-1.86212e-09
5.46786e-11
-1.8752e-09
4.73586e-11
-1.88625e-09
4.00605e-11
-1.89528e-09
3.27943e-11
-1.90229e-09
2.55689e-11
-1.90729e-09
1.83925e-11
-1.91032e-09
1.12737e-11
-1.91138e-09
4.2204e-12
-1.9105e-09
-2.76005e-12
-1.90769e-09
-9.66065e-12
-1.90299e-09
-1.64769e-11
-1.89642e-09
-2.3201e-11
-1.888e-09
-2.98266e-11
-1.87777e-09
-3.63491e-11
-1.86575e-09
-4.27636e-11
-1.85197e-09
-4.90654e-11
-1.83648e-09
-5.52509e-11
-1.8193e-09
-6.13156e-11
-1.80047e-09
-6.72565e-11
-1.78002e-09
-7.30708e-11
-1.758e-09
-7.87552e-11
-1.73443e-09
-8.43063e-11
-1.70937e-09
-8.97218e-11
-1.68283e-09
-9.50003e-11
-1.65488e-09
-1.00139e-10
-1.62553e-09
-1.05136e-10
-1.59484e-09
-1.09991e-10
-1.56284e-09
-1.14703e-10
-1.52957e-09
-1.19272e-10
-1.49507e-09
-1.23697e-10
-1.45939e-09
-1.27978e-10
-1.42256e-09
-1.32116e-10
-1.38462e-09
-1.36109e-10
-1.34562e-09
-1.39958e-10
-1.3056e-09
-1.43662e-10
-1.26459e-09
-1.47221e-10
-1.22263e-09
-1.50635e-10
-1.17976e-09
-1.53907e-10
-1.13603e-09
-1.57035e-10
-1.09147e-09
-1.60024e-10
-1.04612e-09
-1.62871e-10
-1.00002e-09
-1.65582e-10
-9.53212e-10
-1.68153e-10
-9.05733e-10
-1.70586e-10
-8.57619e-10
-1.72882e-10
-8.08908e-10
-1.75038e-10
-7.59637e-10
-1.77057e-10
-7.09844e-10
-1.78943e-10
-6.59565e-10
-1.80694e-10
-6.08839e-10
-1.82313e-10
-5.577e-10
-1.83801e-10
-5.06187e-10
-1.85157e-10
-4.54336e-10
-1.86384e-10
-4.02183e-10
-1.8748e-10
-3.4976e-10
-1.88444e-10
-2.97101e-10
-1.89279e-10
-2.44243e-10
-1.89986e-10
-1.91222e-10
-1.90555e-10
-1.381e-10
-1.90884e-10
-8.51991e-11
-1.90006e-10
-3.47738e-11
-1.80777e-10
-1.2381e-10
3.46689e-11
-1.63535e-10
8.5951e-11
-2.31979e-10
1.39685e-10
-2.41194e-10
1.93269e-10
-2.42157e-10
2.4646e-10
-2.42258e-10
2.99352e-10
-2.42031e-10
3.51997e-10
-2.41486e-10
4.04413e-10
-2.40658e-10
4.56581e-10
-2.39583e-10
5.0847e-10
-2.38289e-10
5.60043e-10
-2.36793e-10
6.1126e-10
-2.35106e-10
6.62082e-10
-2.33236e-10
7.12469e-10
-2.31187e-10
7.62383e-10
-2.28961e-10
8.11783e-10
-2.2656e-10
8.6063e-10
-2.23984e-10
9.08885e-10
-2.21233e-10
9.56511e-10
-2.18307e-10
1.00347e-09
-2.15204e-10
1.04972e-09
-2.11924e-10
1.09522e-09
-2.08465e-10
1.13994e-09
-2.04827e-10
1.18383e-09
-2.01008e-10
1.22686e-09
-1.97009e-10
1.26898e-09
-1.92828e-10
1.31016e-09
-1.88464e-10
1.35035e-09
-1.83917e-10
1.38952e-09
-1.79185e-10
1.42762e-09
-1.7427e-10
1.46462e-09
-1.69169e-10
1.50047e-09
-1.63883e-10
1.53513e-09
-1.58412e-10
1.56856e-09
-1.52757e-10
1.60072e-09
-1.46918e-10
1.63158e-09
-1.40895e-10
1.66108e-09
-1.34689e-10
1.6892e-09
-1.28301e-10
1.71589e-09
-1.21733e-10
1.74112e-09
-1.14987e-10
1.76483e-09
-1.08065e-10
1.787e-09
-1.00969e-10
1.80759e-09
-9.37023e-11
1.82656e-09
-8.62681e-11
1.84388e-09
-7.86702e-11
1.8595e-09
-7.09126e-11
1.8734e-09
-6.29999e-11
1.88554e-09
-5.49371e-11
1.89589e-09
-4.67296e-11
1.90442e-09
-3.83833e-11
1.9111e-09
-2.99045e-11
1.9159e-09
-2.13004e-11
1.9188e-09
-1.25783e-11
1.91976e-09
-3.74681e-12
1.91877e-09
5.18751e-12
1.91581e-09
1.42153e-11
1.91086e-09
2.33268e-11
1.90389e-09
3.25124e-11
1.8949e-09
4.17617e-11
1.88387e-09
5.1064e-11
1.8708e-09
6.04082e-11
1.85567e-09
6.97824e-11
1.83848e-09
7.91745e-11
1.81923e-09
8.85715e-11
1.79792e-09
9.79603e-11
1.77456e-09
1.07327e-10
1.74915e-09
1.16659e-10
1.7217e-09
1.25941e-10
1.69223e-09
1.3516e-10
1.66075e-09
1.44301e-10
1.62728e-09
1.53348e-10
1.59184e-09
1.62287e-10
1.55447e-09
1.71102e-10
1.51519e-09
1.79778e-10
1.47404e-09
1.883e-10
1.43105e-09
1.96652e-10
1.38626e-09
2.04818e-10
1.33972e-09
2.12783e-10
1.29148e-09
2.20531e-10
1.24158e-09
2.28048e-10
1.19007e-09
2.35318e-10
1.13703e-09
2.42327e-10
1.0825e-09
2.49061e-10
1.02655e-09
2.55506e-10
9.69247e-10
2.61648e-10
9.10659e-10
2.67474e-10
8.50859e-10
2.72972e-10
7.89921e-10
2.7813e-10
7.27924e-10
2.82936e-10
6.64945e-10
2.87381e-10
6.01068e-10
2.91455e-10
5.36376e-10
2.95148e-10
4.70956e-10
2.98451e-10
4.04893e-10
3.01358e-10
3.38278e-10
3.03862e-10
2.712e-10
3.05956e-10
2.0375e-10
3.07637e-10
1.3602e-10
3.08902e-10
6.81052e-11
3.09746e-10
9.68127e-14
3.10169e-10
-6.79116e-11
3.10169e-10
-1.35827e-10
3.09747e-10
-2.03556e-10
3.08902e-10
-2.71006e-10
3.07637e-10
-3.38083e-10
3.05955e-10
-4.04699e-10
3.0386e-10
-4.70763e-10
3.01356e-10
-5.36184e-10
2.98449e-10
-6.00877e-10
2.95146e-10
-6.64754e-10
2.91454e-10
-7.27733e-10
2.87382e-10
-7.89732e-10
2.82937e-10
-8.5067e-10
2.78131e-10
-9.1047e-10
2.72975e-10
-9.69058e-10
2.67478e-10
-1.02636e-09
2.61653e-10
-1.08231e-09
2.55511e-10
-1.13684e-09
2.49067e-10
-1.18989e-09
2.42333e-10
-1.24139e-09
2.35324e-10
-1.29129e-09
2.28054e-10
-1.33954e-09
2.20538e-10
-1.38608e-09
2.12791e-10
-1.43087e-09
2.04828e-10
-1.47386e-09
1.96664e-10
-1.51501e-09
1.88314e-10
-1.55429e-09
1.79793e-10
-1.59166e-09
1.71119e-10
-1.6271e-09
1.62304e-10
-1.66057e-09
1.53366e-10
-1.69205e-09
1.4432e-10
-1.72152e-09
1.3518e-10
-1.74897e-09
1.25962e-10
-1.77438e-09
1.16681e-10
-1.79774e-09
1.0735e-10
-1.81905e-09
9.79836e-11
-1.8383e-09
8.85956e-11
-1.85549e-09
7.91994e-11
-1.87061e-09
6.98078e-11
-1.88369e-09
6.04336e-11
-1.89472e-09
5.10891e-11
-1.90371e-09
4.17862e-11
-1.91068e-09
3.25364e-11
-1.91563e-09
2.33504e-11
-1.9186e-09
1.42388e-11
-1.91959e-09
5.21129e-12
-1.91862e-09
-3.72285e-12
-1.91573e-09
-1.25541e-11
-1.91093e-09
-2.12755e-11
-1.90426e-09
-2.98786e-11
-1.89573e-09
-3.83553e-11
-1.88538e-09
-4.66992e-11
-1.87324e-09
-5.49043e-11
-1.85934e-09
-6.29647e-11
-1.84371e-09
-7.08752e-11
-1.8264e-09
-7.86308e-11
-1.80742e-09
-8.62271e-11
-1.78683e-09
-9.36606e-11
-1.76466e-09
-1.00927e-10
-1.74095e-09
-1.08022e-10
-1.71573e-09
-1.14944e-10
-1.68904e-09
-1.21689e-10
-1.66092e-09
-1.28256e-10
-1.63141e-09
-1.34642e-10
-1.60056e-09
-1.40846e-10
-1.56839e-09
-1.46867e-10
-1.53495e-09
-1.52705e-10
-1.50029e-09
-1.58359e-10
-1.46444e-09
-1.63829e-10
-1.42744e-09
-1.69113e-10
-1.38934e-09
-1.74212e-10
-1.35017e-09
-1.79126e-10
-1.30997e-09
-1.83856e-10
-1.26879e-09
-1.88402e-10
-1.22667e-09
-1.92763e-10
-1.18363e-09
-1.96941e-10
-1.13973e-09
-2.00936e-10
-1.095e-09
-2.04751e-10
-1.04948e-09
-2.08388e-10
-1.00322e-09
-2.11846e-10
-9.56239e-10
-2.15129e-10
-9.08595e-10
-2.18234e-10
-8.60312e-10
-2.21161e-10
-8.11435e-10
-2.23915e-10
-7.62002e-10
-2.26493e-10
-7.12042e-10
-2.28899e-10
-6.61601e-10
-2.31136e-10
-6.10711e-10
-2.33203e-10
-5.59408e-10
-2.35101e-10
-5.07733e-10
-2.36833e-10
-4.5572e-10
-2.38398e-10
-4.03401e-10
-2.39796e-10
-3.50817e-10
-2.41028e-10
-2.97996e-10
-2.42097e-10
-2.44978e-10
-2.43001e-10
-1.91803e-10
-2.4373e-10
-1.3853e-10
-2.44155e-10
-8.54888e-11
-2.43049e-10
-3.49319e-11
-2.31333e-10
-1.5874e-10
3.45948e-11
-1.98126e-10
8.56811e-11
-2.83063e-10
1.39441e-10
-2.94956e-10
1.93243e-10
-2.9596e-10
2.4673e-10
-2.95746e-10
2.99917e-10
-2.95217e-10
3.52838e-10
-2.94407e-10
4.05502e-10
-2.93322e-10
4.57895e-10
-2.91976e-10
5.09992e-10
-2.90385e-10
5.61761e-10
-2.88561e-10
6.13166e-10
-2.86511e-10
6.64172e-10
-2.84241e-10
7.1474e-10
-2.81754e-10
7.64832e-10
-2.79052e-10
8.1441e-10
-2.76138e-10
8.63435e-10
-2.7301e-10
9.11869e-10
-2.69668e-10
9.59674e-10
-2.66112e-10
1.00681e-09
-2.62341e-10
1.05324e-09
-2.58354e-10
1.09893e-09
-2.54149e-10
1.14383e-09
-2.49726e-10
1.1879e-09
-2.45083e-10
1.23111e-09
-2.4022e-10
1.27342e-09
-2.35135e-10
1.31479e-09
-2.29827e-10
1.35517e-09
-2.24295e-10
1.39452e-09
-2.18539e-10
1.43281e-09
-2.12558e-10
1.46999e-09
-2.06351e-10
1.50603e-09
-1.99918e-10
1.54087e-09
-1.9326e-10
1.57449e-09
-1.86376e-10
1.60684e-09
-1.79268e-10
1.63788e-09
-1.71935e-10
1.66757e-09
-1.64379e-10
1.69587e-09
-1.56601e-10
1.72274e-09
-1.48603e-10
1.74814e-09
-1.40387e-10
1.77203e-09
-1.31956e-10
1.79438e-09
-1.23312e-10
1.81513e-09
-1.1446e-10
1.83427e-09
-1.05404e-10
1.85174e-09
-9.61463e-11
1.86752e-09
-8.66936e-11
1.88157e-09
-7.70509e-11
1.89386e-09
-6.72243e-11
1.90435e-09
-5.72204e-11
1.91301e-09
-4.70463e-11
1.91982e-09
-3.67098e-11
1.92474e-09
-2.62192e-11
1.92774e-09
-1.55837e-11
1.92881e-09
-4.81322e-12
1.92791e-09
6.08355e-12
1.92503e-09
1.70951e-11
1.92015e-09
2.82097e-11
1.91325e-09
3.94158e-11
1.90431e-09
5.07009e-11
1.89332e-09
6.20518e-11
1.88027e-09
7.34548e-11
1.86516e-09
8.48954e-11
1.84798e-09
9.63586e-11
1.82872e-09
1.07829e-10
1.80739e-09
1.1929e-10
1.78399e-09
1.30727e-10
1.75853e-09
1.42121e-10
1.73101e-09
1.53456e-10
1.70146e-09
1.64714e-10
1.66988e-09
1.75877e-10
1.6363e-09
1.86927e-10
1.60074e-09
1.97846e-10
1.56323e-09
2.08615e-10
1.52379e-09
2.19214e-10
1.48246e-09
2.29626e-10
1.43928e-09
2.3983e-10
1.39429e-09
2.49808e-10
1.34753e-09
2.59541e-10
1.29905e-09
2.6901e-10
1.2489e-09
2.78197e-10
1.19714e-09
2.87083e-10
1.14381e-09
2.95651e-10
1.08899e-09
3.03883e-10
1.03274e-09
3.11762e-10
9.75117e-10
3.1927e-10
9.16198e-10
3.26393e-10
8.56055e-10
3.33115e-10
7.94763e-10
3.39421e-10
7.32401e-10
3.45299e-10
6.69048e-10
3.50735e-10
6.04788e-10
3.55716e-10
5.39704e-10
3.60232e-10
4.73884e-10
3.64272e-10
4.07415e-10
3.67826e-10
3.40388e-10
3.70888e-10
2.72894e-10
3.7345e-10
2.05024e-10
3.75507e-10
1.36872e-10
3.77054e-10
6.85321e-11
3.78087e-10
9.78403e-14
3.78604e-10
-6.83368e-11
3.78604e-10
-1.36677e-10
3.78087e-10
-2.04829e-10
3.77054e-10
-2.72699e-10
3.75507e-10
-3.40193e-10
3.7345e-10
-4.07221e-10
3.70887e-10
-4.7369e-10
3.67824e-10
-5.3951e-10
3.64269e-10
-6.04594e-10
3.6023e-10
-6.68856e-10
3.55714e-10
-7.32209e-10
3.50734e-10
-7.94573e-10
3.453e-10
-8.55865e-10
3.39423e-10
-9.16008e-10
3.33118e-10
-9.74927e-10
3.26397e-10
-1.03255e-09
3.19275e-10
-1.0888e-09
3.11766e-10
-1.14363e-09
3.03888e-10
-1.19695e-09
2.95657e-10
-1.24872e-09
2.8709e-10
-1.29887e-09
2.78205e-10
-1.34735e-09
2.69019e-10
-1.39411e-09
2.59551e-10
-1.4391e-09
2.4982e-10
-1.48228e-09
2.39844e-10
-1.52361e-09
2.29641e-10
-1.56304e-09
2.1923e-10
-1.60056e-09
2.08632e-10
-1.63612e-09
1.97864e-10
-1.6697e-09
1.86946e-10
-1.70127e-09
1.75897e-10
-1.73083e-09
1.64735e-10
-1.75834e-09
1.53478e-10
-1.78381e-09
1.42144e-10
-1.80721e-09
1.3075e-10
-1.82854e-09
1.19315e-10
-1.84779e-09
1.07854e-10
-1.86498e-09
9.63841e-11
-1.88009e-09
8.49211e-11
-1.89314e-09
7.34807e-11
-1.90413e-09
6.20779e-11
-1.91307e-09
5.07267e-11
-1.91997e-09
3.94415e-11
-1.92485e-09
2.82351e-11
-1.92773e-09
1.71202e-11
-1.92863e-09
6.1089e-12
-1.92757e-09
-4.78769e-12
-1.92456e-09
-1.55582e-11
-1.91965e-09
-2.61928e-11
-1.91284e-09
-3.6682e-11
-1.90418e-09
-4.70165e-11
-1.89369e-09
-5.71882e-11
-1.88141e-09
-6.71901e-11
-1.86736e-09
-7.70148e-11
-1.85157e-09
-8.66555e-11
-1.8341e-09
-9.61066e-11
-1.81496e-09
-1.05363e-10
-1.7942e-09
-1.14419e-10
-1.77186e-09
-1.2327e-10
-1.74797e-09
-1.31913e-10
-1.72257e-09
-1.40344e-10
-1.6957e-09
-1.48558e-10
-1.6674e-09
-1.56555e-10
-1.63771e-09
-1.64332e-10
-1.60667e-09
-1.71887e-10
-1.57432e-09
-1.79219e-10
-1.5407e-09
-1.86326e-10
-1.50585e-09
-1.93208e-10
-1.46981e-09
-1.99866e-10
-1.43262e-09
-2.06297e-10
-1.39433e-09
-2.12502e-10
-1.35498e-09
-2.18483e-10
-1.31459e-09
-2.24238e-10
-1.27323e-09
-2.29769e-10
-1.23091e-09