/*--------------------------------*- C++ -*----------------------------------*\
| =========                 |                                                 |
| \\      /  F ield         | OpenFOAM: The Open Source CFD Toolbox           |
|  \\    /   O peration     | Version:  2412                                  |
|   \\  /    A nd           | Website:  www.openfoam.com                      |
|    \\/     M anipulation  |                                                 |
\*---------------------------------------------------------------------------*/
FoamFile
{
    version     2.0;
    format      ascii;
    arch        "LSB;label=32;scalar=64";
    class       volVectorField;
    location    "1.13";
    object      U;
}
// * * * * * * * * * * * * * * * * * * * * * * * * * * * * * * * * * * * * * //

dimensions      [0 1 -1 0 0 0 0];

internalField   nonuniform List<vector> 
40000
(
(9.85002e-06 -8.1288e-06 0)
(3.68562e-05 -9.39063e-06 0)
(6.82246e-05 -1.13532e-05 0)
(0.000101515 -1.2325e-05 0)
(0.000136503 -1.26394e-05 0)
(0.00017171 -1.27151e-05 0)
(0.000206871 -1.26527e-05 0)
(0.000241851 -1.2556e-05 0)
(0.000276596 -1.24462e-05 0)
(0.000311091 -1.23389e-05 0)
(0.000345315 -1.22341e-05 0)
(0.000379257 -1.21259e-05 0)
(0.000412903 -1.20131e-05 0)
(0.000446236 -1.18949e-05 0)
(0.000479236 -1.17704e-05 0)
(0.000511884 -1.16385e-05 0)
(0.000544157 -1.14985e-05 0)
(0.000576034 -1.13502e-05 0)
(0.000607491 -1.11936e-05 0)
(0.000638505 -1.10284e-05 0)
(0.000669049 -1.08544e-05 0)
(0.000699101 -1.06715e-05 0)
(0.000728635 -1.04795e-05 0)
(0.000757626 -1.02782e-05 0)
(0.000786048 -1.00674e-05 0)
(0.000813876 -9.8473e-06 0)
(0.000841084 -9.61781e-06 0)
(0.000867645 -9.37913e-06 0)
(0.000893534 -9.13138e-06 0)
(0.000918724 -8.87454e-06 0)
(0.000943189 -8.60849e-06 0)
(0.000966905 -8.33307e-06 0)
(0.000989844 -8.0482e-06 0)
(0.00101198 -7.75396e-06 0)
(0.00103329 -7.45054e-06 0)
(0.00105375 -7.13811e-06 0)
(0.00107332 -6.8167e-06 0)
(0.00109199 -6.48625e-06 0)
(0.00110973 -6.1467e-06 0)
(0.00112652 -5.79806e-06 0)
(0.00114232 -5.44045e-06 0)
(0.00115712 -5.07412e-06 0)
(0.00117088 -4.69931e-06 0)
(0.00118359 -4.31619e-06 0)
(0.00119523 -3.92491e-06 0)
(0.00120576 -3.52566e-06 0)
(0.00121517 -3.11874e-06 0)
(0.00122344 -2.70447e-06 0)
(0.00123054 -2.28319e-06 0)
(0.00123646 -1.8552e-06 0)
(0.00124117 -1.42074e-06 0)
(0.00124467 -9.79892e-07 0)
(0.00124692 -5.32253e-07 0)
(0.00124792 -7.69691e-08 0)
(0.00124764 3.83644e-07 0)
(0.00124608 8.47431e-07 0)
(0.00124322 1.31286e-06 0)
(0.00123905 1.78039e-06 0)
(0.00123358 2.25024e-06 0)
(0.00122679 2.72208e-06 0)
(0.00121868 3.19542e-06 0)
(0.00120923 3.66972e-06 0)
(0.00119846 4.14445e-06 0)
(0.00118636 4.61908e-06 0)
(0.00117293 5.09301e-06 0)
(0.00115817 5.56554e-06 0)
(0.00114209 6.03588e-06 0)
(0.0011247 6.50321e-06 0)
(0.001106 6.96672e-06 0)
(0.001086 7.42566e-06 0)
(0.00106472 7.87933e-06 0)
(0.00104218 8.32712e-06 0)
(0.00101839 8.76844e-06 0)
(0.000993362 9.20261e-06 0)
(0.00096713 9.62887e-06 0)
(0.000939712 1.00464e-05 0)
(0.000911135 1.04544e-05 0)
(0.000881425 1.0852e-05 0)
(0.000850612 1.12387e-05 0)
(0.000818729 1.16137e-05 0)
(0.000785809 1.19764e-05 0)
(0.000751888 1.2326e-05 0)
(0.000717006 1.26618e-05 0)
(0.000681201 1.29831e-05 0)
(0.000644515 1.32892e-05 0)
(0.000606993 1.35796e-05 0)
(0.000568679 1.38534e-05 0)
(0.00052962 1.41101e-05 0)
(0.000489865 1.43493e-05 0)
(0.000449465 1.45705e-05 0)
(0.000408472 1.47734e-05 0)
(0.000366938 1.49575e-05 0)
(0.000324916 1.51222e-05 0)
(0.000282462 1.52671e-05 0)
(0.000239632 1.53921e-05 0)
(0.000196482 1.54971e-05 0)
(0.00015307 1.55819e-05 0)
(0.000109453 1.56463e-05 0)
(6.56906e-05 1.56898e-05 0)
(2.18426e-05 1.57116e-05 0)
(-2.20352e-05 1.57116e-05 0)
(-6.58833e-05 1.56897e-05 0)
(-0.000109646 1.56462e-05 0)
(-0.000153264 1.55817e-05 0)
(-0.000196677 1.54968e-05 0)
(-0.000239827 1.53916e-05 0)
(-0.000282657 1.52664e-05 0)
(-0.000325111 1.51214e-05 0)
(-0.000367134 1.49566e-05 0)
(-0.000408669 1.47724e-05 0)
(-0.000449664 1.45696e-05 0)
(-0.000490065 1.43486e-05 0)
(-0.00052982 1.41095e-05 0)
(-0.00056888 1.38528e-05 0)
(-0.000607196 1.35792e-05 0)
(-0.00064472 1.32892e-05 0)
(-0.000681408 1.29834e-05 0)
(-0.000717215 1.26624e-05 0)
(-0.0007521 1.23267e-05 0)
(-0.000786023 1.19771e-05 0)
(-0.000818946 1.16145e-05 0)
(-0.000850831 1.12395e-05 0)
(-0.000881646 1.08529e-05 0)
(-0.00091136 1.04553e-05 0)
(-0.000939941 1.00474e-05 0)
(-0.000967363 9.62999e-06 0)
(-0.000993599 9.2038e-06 0)
(-0.00101863 8.76955e-06 0)
(-0.00104243 8.32808e-06 0)
(-0.00106498 7.87991e-06 0)
(-0.00108626 7.4262e-06 0)
(-0.00110626 6.96776e-06 0)
(-0.00112496 6.50456e-06 0)
(-0.00114237 6.03752e-06 0)
(-0.00115845 5.56774e-06 0)
(-0.00117322 5.09574e-06 0)
(-0.00118666 4.62218e-06 0)
(-0.00119878 4.1478e-06 0)
(-0.00120956 3.67334e-06 0)
(-0.00121901 3.19941e-06 0)
(-0.00122714 2.72641e-06 0)
(-0.00123394 2.25458e-06 0)
(-0.00123943 1.78432e-06 0)
(-0.00124361 1.31631e-06 0)
(-0.00124648 8.50178e-07 0)
(-0.00124805 3.85419e-07 0)
(-0.00124834 -7.61223e-08 0)
(-0.00124734 -5.32062e-07 0)
(-0.00124509 -9.79501e-07 0)
(-0.00124161 -1.41973e-06 0)
(-0.0012369 -1.85358e-06 0)
(-0.00123099 -2.28051e-06 0)
(-0.00122391 -2.70034e-06 0)
(-0.00121566 -3.11326e-06 0)
(-0.00120627 -3.51899e-06 0)
(-0.00119575 -3.91746e-06 0)
(-0.00118414 -4.30832e-06 0)
(-0.00117146 -4.69107e-06 0)
(-0.00115771 -5.06577e-06 0)
(-0.00114294 -5.43241e-06 0)
(-0.00112716 -5.7907e-06 0)
(-0.0011104 -6.13983e-06 0)
(-0.00109268 -6.47961e-06 0)
(-0.00107403 -6.81022e-06 0)
(-0.00105448 -7.13167e-06 0)
(-0.00103405 -7.4438e-06 0)
(-0.00101277 -7.74641e-06 0)
(-0.000990657 -8.03991e-06 0)
(-0.000967747 -8.32407e-06 0)
(-0.000944061 -8.59905e-06 0)
(-0.000919626 -8.86506e-06 0)
(-0.000894469 -9.12254e-06 0)
(-0.000868615 -9.37049e-06 0)
(-0.000842091 -9.60827e-06 0)
(-0.000814925 -9.83558e-06 0)
(-0.000787147 -1.00524e-05 0)
(-0.00075878 -1.02595e-05 0)
(-0.000729852 -1.04585e-05 0)
(-0.000700386 -1.06497e-05 0)
(-0.000670406 -1.0832e-05 0)
(-0.000639936 -1.10058e-05 0)
(-0.000609003 -1.11706e-05 0)
(-0.000577633 -1.13261e-05 0)
(-0.000545852 -1.14715e-05 0)
(-0.000513687 -1.16063e-05 0)
(-0.000481163 -1.17307e-05 0)
(-0.000448306 -1.1846e-05 0)
(-0.000415141 -1.1954e-05 0)
(-0.000381691 -1.20549e-05 0)
(-0.000347977 -1.21476e-05 0)
(-0.000314022 -1.22316e-05 0)
(-0.000279851 -1.23055e-05 0)
(-0.000245489 -1.23697e-05 0)
(-0.000210965 -1.24242e-05 0)
(-0.000176307 -1.24674e-05 0)
(-0.000141544 -1.24943e-05 0)
(-0.000106699 -1.24907e-05 0)
(-7.18844e-05 -1.24065e-05 0)
(-3.81439e-05 -1.1839e-05 0)
(-8.93905e-06 -8.95071e-06 0)
(1.43083e-05 -3.94413e-05 0)
(5.96523e-05 -5.26352e-05 0)
(0.000107647 -5.68607e-05 0)
(0.000155991 -5.89963e-05 0)
(0.000205225 -6.00426e-05 0)
(0.000254719 -6.02783e-05 0)
(0.000304318 -6.01164e-05 0)
(0.000353873 -5.97931e-05 0)
(0.000403276 -5.93922e-05 0)
(0.000452455 -5.89567e-05 0)
(0.000501349 -5.84957e-05 0)
(0.000549913 -5.80062e-05 0)
(0.000598106 -5.74871e-05 0)
(0.00064589 -5.69361e-05 0)
(0.000693228 -5.63507e-05 0)
(0.000740084 -5.57287e-05 0)
(0.000786424 -5.50681e-05 0)
(0.00083221 -5.43682e-05 0)
(0.000877409 -5.3628e-05 0)
(0.000921982 -5.28468e-05 0)
(0.000965895 -5.20237e-05 0)
(0.00100911 -5.1158e-05 0)
(0.00105159 -5.02491e-05 0)
(0.00109331 -4.92963e-05 0)
(0.00113421 -4.82994e-05 0)
(0.00117427 -4.72581e-05 0)
(0.00121345 -4.61727e-05 0)
(0.00125171 -4.50431e-05 0)
(0.00128902 -4.38694e-05 0)
(0.00132532 -4.26514e-05 0)
(0.0013606 -4.13888e-05 0)
(0.0013948 -4.00813e-05 0)
(0.0014279 -3.87289e-05 0)
(0.00145984 -3.73317e-05 0)
(0.00149061 -3.58901e-05 0)
(0.00152015 -3.44045e-05 0)
(0.00154843 -3.2875e-05 0)
(0.00157542 -3.13015e-05 0)
(0.00160107 -2.96842e-05 0)
(0.00162536 -2.80233e-05 0)
(0.00164823 -2.63193e-05 0)
(0.00166966 -2.45732e-05 0)
(0.00168962 -2.27855e-05 0)
(0.00170806 -2.09572e-05 0)
(0.00172495 -1.90891e-05 0)
(0.00174027 -1.71824e-05 0)
(0.00175397 -1.52383e-05 0)
(0.00176603 -1.32582e-05 0)
(0.00177642 -1.12436e-05 0)
(0.00178511 -9.19589e-06 0)
(0.00179206 -7.1165e-06 0)
(0.00179726 -5.00674e-06 0)
(0.00180068 -2.86757e-06 0)
(0.0018023 -6.99067e-07 0)
(0.0018021 1.49464e-06 0)
(0.00180007 3.70785e-06 0)
(0.00179617 5.93711e-06 0)
(0.00179039 8.18152e-06 0)
(0.00178272 1.04396e-05 0)
(0.00177315 1.2709e-05 0)
(0.00176166 1.49872e-05 0)
(0.00174825 1.72716e-05 0)
(0.00173292 1.95594e-05 0)
(0.00171565 2.18478e-05 0)
(0.00169646 2.41336e-05 0)
(0.00167535 2.64133e-05 0)
(0.00165231 2.86834e-05 0)
(0.00162737 3.09403e-05 0)
(0.00160053 3.31803e-05 0)
(0.0015718 3.53999e-05 0)
(0.00154121 3.75957e-05 0)
(0.00150878 3.97644e-05 0)
(0.00147452 4.19024e-05 0)
(0.00143847 4.40063e-05 0)
(0.00140066 4.60722e-05 0)
(0.00136112 4.80963e-05 0)
(0.00131988 5.00748e-05 0)
(0.00127699 5.2004e-05 0)
(0.0012325 5.38804e-05 0)
(0.00118643 5.57007e-05 0)
(0.00113885 5.7461e-05 0)
(0.00108981 5.91579e-05 0)
(0.00103936 6.07877e-05 0)
(0.000987556 6.23471e-05 0)
(0.000934465 6.38328e-05 0)
(0.000880148 6.52417e-05 0)
(0.00082467 6.65709e-05 0)
(0.000768099 6.78176e-05 0)
(0.000710508 6.89791e-05 0)
(0.000651969 7.00532e-05 0)
(0.000592559 7.10376e-05 0)
(0.000532353 7.193e-05 0)
(0.00047143 7.27284e-05 0)
(0.000409872 7.34311e-05 0)
(0.00034776 7.40367e-05 0)
(0.000285177 7.45442e-05 0)
(0.000222208 7.49524e-05 0)
(0.000158937 7.526e-05 0)
(9.54503e-05 7.54658e-05 0)
(3.18367e-05 7.55686e-05 0)
(-3.18242e-05 7.55683e-05 0)
(-9.54379e-05 7.54649e-05 0)
(-0.000158925 7.52587e-05 0)
(-0.000222196 7.4951e-05 0)
(-0.000285167 7.45431e-05 0)
(-0.00034775 7.4036e-05 0)
(-0.000409862 7.34305e-05 0)
(-0.000471421 7.27281e-05 0)
(-0.000532345 7.19299e-05 0)
(-0.000592553 7.10377e-05 0)
(-0.000651965 7.00538e-05 0)
(-0.000710505 6.89806e-05 0)
(-0.000768097 6.78196e-05 0)
(-0.000824668 6.65731e-05 0)
(-0.000880148 6.52442e-05 0)
(-0.000934467 6.38357e-05 0)
(-0.00098756 6.23504e-05 0)
(-0.00103936 6.07914e-05 0)
(-0.00108982 5.91618e-05 0)
(-0.00113886 5.74654e-05 0)
(-0.00118644 5.57057e-05 0)
(-0.00123251 5.38862e-05 0)
(-0.00127701 5.20102e-05 0)
(-0.0013199 5.00814e-05 0)
(-0.00136114 4.81034e-05 0)
(-0.00140068 4.60801e-05 0)
(-0.0014385 4.40151e-05 0)
(-0.00147455 4.19118e-05 0)
(-0.00150881 3.97745e-05 0)
(-0.00154125 3.76064e-05 0)
(-0.00157184 3.54112e-05 0)
(-0.00160057 3.3193e-05 0)
(-0.00162742 3.09542e-05 0)
(-0.00165237 2.86983e-05 0)
(-0.00167541 2.64299e-05 0)
(-0.00169653 2.41522e-05 0)
(-0.00171573 2.18683e-05 0)
(-0.001733 1.95815e-05 0)
(-0.00174834 1.72951e-05 0)
(-0.00176175 1.50116e-05 0)
(-0.00177325 1.27335e-05 0)
(-0.00178283 1.04632e-05 0)
(-0.00179051 8.20305e-06 0)
(-0.00179629 5.9562e-06 0)
(-0.0018002 3.72435e-06 0)
(-0.00180224 1.50849e-06 0)
(-0.00180245 -6.87197e-07 0)
(-0.00180084 -2.85664e-06 0)
(-0.00179742 -4.99482e-06 0)
(-0.00179223 -7.10188e-06 0)
(-0.00178528 -9.17805e-06 0)
(-0.0017766 -1.12217e-05 0)
(-0.00176623 -1.32314e-05 0)
(-0.00175418 -1.52067e-05 0)
(-0.00174048 -1.71465e-05 0)
(-0.00172518 -1.90502e-05 0)
(-0.0017083 -2.09167e-05 0)
(-0.00168987 -2.27441e-05 0)
(-0.00166992 -2.45314e-05 0)
(-0.00164851 -2.62782e-05 0)
(-0.00162564 -2.79833e-05 0)
(-0.00160138 -2.96448e-05 0)
(-0.00157574 -3.12618e-05 0)
(-0.00154877 -3.28343e-05 0)
(-0.0015205 -3.4362e-05 0)
(-0.00149097 -3.5845e-05 0)
(-0.00146022 -3.7283e-05 0)
(-0.00142829 -3.86767e-05 0)
(-0.00139521 -4.00257e-05 0)
(-0.00136102 -4.1331e-05 0)
(-0.00132577 -4.25929e-05 0)
(-0.00128948 -4.38106e-05 0)
(-0.0012522 -4.4982e-05 0)
(-0.00121396 -4.61062e-05 0)
(-0.00117481 -4.71825e-05 0)
(-0.00113478 -4.82114e-05 0)
(-0.0010939 -4.91956e-05 0)
(-0.00105221 -5.0138e-05 0)
(-0.00100976 -5.10399e-05 0)
(-0.000966576 -5.18996e-05 0)
(-0.000922699 -5.27175e-05 0)
(-0.000878165 -5.34914e-05 0)
(-0.000833011 -5.42196e-05 0)
(-0.000787268 -5.49027e-05 0)
(-0.000740975 -5.55386e-05 0)
(-0.000694165 -5.613e-05 0)
(-0.000646877 -5.66804e-05 0)
(-0.000599146 -5.71916e-05 0)
(-0.000551008 -5.76651e-05 0)
(-0.000502494 -5.80988e-05 0)
(-0.000453641 -5.84902e-05 0)
(-0.000404481 -5.88386e-05 0)
(-0.000355049 -5.91434e-05 0)
(-0.000305382 -5.94039e-05 0)
(-0.000255513 -5.96183e-05 0)
(-0.00020547 -5.97772e-05 0)
(-0.000155249 -5.98285e-05 0)
(-0.000104953 -5.94152e-05 0)
(-5.60291e-05 -5.6183e-05 0)
(-1.17632e-05 -3.80807e-05 0)
(1.33531e-05 -7.53599e-05 0)
(6.16864e-05 -0.00010254 0)
(0.000114264 -0.000106821 0)
(0.000166335 -0.000108706 0)
(0.000218283 -0.000109875 0)
(0.000270174 -0.000110317 0)
(0.000322051 -0.000110276 0)
(0.000373859 -0.000109953 0)
(0.000425521 -0.000109451 0)
(0.000476972 -0.000108827 0)
(0.000528151 -0.000108105 0)
(0.000579008 -0.000107297 0)
(0.000629498 -0.000106411 0)
(0.000679576 -0.000105447 0)
(0.0007292 -0.000104407 0)
(0.000778332 -0.00010329 0)
(0.000826931 -0.000102095 0)
(0.000874958 -0.000100823 0)
(0.000922376 -9.94725e-05 0)
(0.000969145 -9.8043e-05 0)
(0.00101523 -9.65336e-05 0)
(0.00106058 -9.49434e-05 0)
(0.00110518 -9.32717e-05 0)
(0.00114896 -9.1518e-05 0)
(0.00119191 -8.96818e-05 0)
(0.00123398 -8.77631e-05 0)
(0.00127513 -8.57617e-05 0)
(0.00131531 -8.36775e-05 0)
(0.0013545 -8.15102e-05 0)
(0.00139264 -7.92594e-05 0)
(0.00142971 -7.69247e-05 0)
(0.00146565 -7.45061e-05 0)
(0.00150044 -7.20037e-05 0)
(0.00153402 -6.94178e-05 0)
(0.00156637 -6.67488e-05 0)
(0.00159743 -6.3997e-05 0)
(0.00162718 -6.11626e-05 0)
(0.00165556 -5.82459e-05 0)
(0.00168255 -5.52474e-05 0)
(0.0017081 -5.21679e-05 0)
(0.00173218 -4.90086e-05 0)
(0.00175475 -4.57707e-05 0)
(0.00177576 -4.24553e-05 0)
(0.00179519 -3.9064e-05 0)
(0.001813 -3.55986e-05 0)
(0.00182915 -3.20611e-05 0)
(0.00184361 -2.84537e-05 0)
(0.00185635 -2.4779e-05 0)
(0.00186733 -2.10395e-05 0)
(0.00187652 -1.72377e-05 0)
(0.0018839 -1.33766e-05 0)
(0.00188944 -9.45923e-06 0)
(0.00189311 -5.48916e-06 0)
(0.00189488 -1.47027e-06 0)
(0.00189474 2.59393e-06 0)
(0.00189267 6.69918e-06 0)
(0.00188864 1.08412e-05 0)
(0.00188264 1.50155e-05 0)
(0.00187465 1.92172e-05 0)
(0.00186465 2.34417e-05 0)
(0.00185264 2.76839e-05 0)
(0.00183861 3.19387e-05 0)
(0.00182255 3.6201e-05 0)
(0.00180447 4.04649e-05 0)
(0.00178435 4.47244e-05 0)
(0.00176221 4.89731e-05 0)
(0.00173805 5.32046e-05 0)
(0.00171188 5.74122e-05 0)
(0.0016837 6.15894e-05 0)
(0.00165355 6.57299e-05 0)
(0.00162143 6.9827e-05 0)
(0.00158736 7.38744e-05 0)
(0.00155137 7.78651e-05 0)
(0.0015135 8.17921e-05 0)
(0.00147377 8.56483e-05 0)
(0.00143221 8.94268e-05 0)
(0.00138887 9.31206e-05 0)
(0.00134378 9.67231e-05 0)
(0.00129699 0.000100228 0)
(0.00124856 0.000103627 0)
(0.00119852 0.000106915 0)
(0.00114695 0.000110085 0)
(0.00109388 0.000113129 0)
(0.00103939 0.000116042 0)
(0.000983546 0.000118818 0)
(0.000926402 0.00012145 0)
(0.000868032 0.000123934 0)
(0.00080851 0.000126264 0)
(0.00074791 0.000128434 0)
(0.000686309 0.000130441 0)
(0.000623787 0.00013228 0)
(0.000560425 0.000133947 0)
(0.000496305 0.000135437 0)
(0.000431514 0.000136749 0)
(0.000366138 0.000137879 0)
(0.000300263 0.000138825 0)
(0.00023398 0.000139585 0)
(0.000167378 0.000140156 0)
(0.000100547 0.000140537 0)
(3.35819e-05 0.000140727 0)
(-3.34341e-05 0.000140726 0)
(-0.000100399 0.000140535 0)
(-0.00016723 0.000140153 0)
(-0.000233832 0.000139581 0)
(-0.000300116 0.000138821 0)
(-0.00036599 0.000137876 0)
(-0.000431368 0.000136746 0)
(-0.00049616 0.000135434 0)
(-0.000560281 0.000133943 0)
(-0.000623644 0.000132277 0)
(-0.000686167 0.000130438 0)
(-0.000747769 0.000128433 0)
(-0.00080837 0.000126263 0)
(-0.000867893 0.000123934 0)
(-0.000926262 0.000121451 0)
(-0.000983407 0.000118819 0)
(-0.00103926 0.000116045 0)
(-0.00109375 0.000113132 0)
(-0.00114681 0.000110089 0)
(-0.00119839 0.000106921 0)
(-0.00124843 0.000103634 0)
(-0.00129686 0.000100236 0)
(-0.00134365 9.67315e-05 0)
(-0.00138874 9.31291e-05 0)
(-0.00143208 8.94354e-05 0)
(-0.00147364 8.56574e-05 0)
(-0.00151337 8.18018e-05 0)
(-0.00155125 7.78754e-05 0)
(-0.00158723 7.38858e-05 0)
(-0.0016213 6.98396e-05 0)
(-0.00165342 6.57428e-05 0)
(-0.00168358 6.16028e-05 0)
(-0.00171176 5.74261e-05 0)
(-0.00173793 5.3219e-05 0)
(-0.00176209 4.89888e-05 0)
(-0.00178424 4.47421e-05 0)
(-0.00180436 4.04848e-05 0)
(-0.00182244 3.62231e-05 0)
(-0.0018385 3.19627e-05 0)
(-0.00185253 2.77085e-05 0)
(-0.00186454 2.34659e-05 0)
(-0.00187454 1.92404e-05 0)
(-0.00188253 1.50367e-05 0)
(-0.00188854 1.08603e-05 0)
(-0.00189257 6.71634e-06 0)
(-0.00189465 2.60937e-06 0)
(-0.00189479 -1.45582e-06 0)
(-0.00189302 -5.4751e-06 0)
(-0.00188936 -9.44464e-06 0)
(-0.00188383 -1.33596e-05 0)
(-0.00187645 -1.72176e-05 0)
(-0.00186726 -2.10159e-05 0)
(-0.00185628 -2.47511e-05 0)
(-0.00184355 -2.84212e-05 0)
(-0.00182909 -3.20242e-05 0)
(-0.00181294 -3.55579e-05 0)
(-0.00179513 -3.9021e-05 0)
(-0.0017757 -4.24106e-05 0)
(-0.00175469 -4.5725e-05 0)
(-0.00173213 -4.89627e-05 0)
(-0.00170805 -5.21222e-05 0)
(-0.00168251 -5.5202e-05 0)
(-0.00165552 -5.82004e-05 0)
(-0.00162714 -6.11167e-05 0)
(-0.0015974 -6.39494e-05 0)
(-0.00156634 -6.66997e-05 0)
(-0.001534 -6.93665e-05 0)
(-0.00150042 -7.19495e-05 0)
(-0.00146563 -7.44486e-05 0)
(-0.00142969 -7.68651e-05 0)
(-0.00139263 -7.91993e-05 0)
(-0.00135449 -8.14495e-05 0)
(-0.00131531 -8.36147e-05 0)
(-0.00127513 -8.56945e-05 0)
(-0.00123399 -8.76884e-05 0)
(-0.00119193 -8.95973e-05 0)
(-0.00114898 -9.14242e-05 0)
(-0.00110519 -9.31701e-05 0)
(-0.00106059 -9.48358e-05 0)
(-0.00101523 -9.64227e-05 0)
(-0.000969144 -9.79292e-05 0)
(-0.000922373 -9.93545e-05 0)
(-0.000874954 -0.000100697 0)
(-0.00082692 -0.000101957 0)
(-0.000778307 -0.000103134 0)
(-0.000729154 -0.000104231 0)
(-0.000679499 -0.000105251 0)
(-0.000629381 -0.000106196 0)
(-0.000578837 -0.000107067 0)
(-0.000527901 -0.000107863 0)
(-0.00047661 -0.000108584 0)
(-0.000425001 -0.000109227 0)
(-0.000373105 -0.00010979 0)
(-0.000320961 -0.000110276 0)
(-0.000268604 -0.000110683 0)
(-0.000216061 -0.000111005 0)
(-0.000163329 -0.000111176 0)
(-0.000110537 -0.000110618 0)
(-5.92873e-05 -0.000105097 0)
(-1.23361e-05 -7.16562e-05 0)
(1.25056e-05 -0.000111704 0)
(6.04734e-05 -0.000155067 0)
(0.000113799 -0.000160606 0)
(0.000167105 -0.000161845 0)
(0.000219965 -0.000162526 0)
(0.000272536 -0.000162719 0)
(0.000324941 -0.000162513 0)
(0.000377191 -0.000162023 0)
(0.000429254 -0.000161321 0)
(0.000481086 -0.000160449 0)
(0.000532638 -0.000159432 0)
(0.000583865 -0.000158282 0)
(0.000634723 -0.000157008 0)
(0.000685168 -0.000155614 0)
(0.000735161 -0.000154102 0)
(0.000784661 -0.000152473 0)
(0.000833627 -0.000150727 0)
(0.000882022 -0.000148864 0)
(0.000929804 -0.000146884 0)
(0.000976937 -0.000144785 0)
(0.00102338 -0.000142568 0)
(0.0010691 -0.00014023 0)
(0.00111405 -0.000137772 0)
(0.00115819 -0.000135193 0)
(0.00120149 -0.000132491 0)
(0.0012439 -0.000129668 0)
(0.00128539 -0.000126722 0)
(0.00132592 -0.000123653 0)
(0.00136544 -0.000120461 0)
(0.00140391 -0.000117144 0)
(0.0014413 -0.000113704 0)
(0.00147756 -0.000110139 0)
(0.00151265 -0.00010645 0)
(0.00154654 -0.000102637 0)
(0.00157918 -9.87014e-05 0)
(0.00161054 -9.46423e-05 0)
(0.00164056 -9.04607e-05 0)
(0.00166922 -8.61571e-05 0)
(0.00169648 -8.17324e-05 0)
(0.00172228 -7.71881e-05 0)
(0.00174661 -7.25256e-05 0)
(0.00176941 -6.77466e-05 0)
(0.00179065 -6.2853e-05 0)
(0.00181029 -5.7847e-05 0)
(0.0018283 -5.27313e-05 0)
(0.00184464 -4.75088e-05 0)
(0.00185928 -4.21828e-05 0)
(0.00187218 -3.67565e-05 0)
(0.00188331 -3.12337e-05 0)
(0.00189265 -2.56184e-05 0)
(0.00190015 -1.99148e-05 0)
(0.0019058 -1.41278e-05 0)
(0.00190956 -8.26263e-06 0)
(0.00191141 -2.32516e-06 0)
(0.00191133 3.67954e-06 0)
(0.00190929 9.74651e-06 0)
(0.00190528 1.58697e-05 0)
(0.00189927 2.20419e-05 0)
(0.00189126 2.8256e-05 0)
(0.00188123 3.45047e-05 0)
(0.00186916 4.07805e-05 0)
(0.00185505 4.70758e-05 0)
(0.0018389 5.33824e-05 0)
(0.0018207 5.96918e-05 0)
(0.00180045 6.5995e-05 0)
(0.00177815 7.22826e-05 0)
(0.00175382 7.85453e-05 0)
(0.00172745 8.47736e-05 0)
(0.00169906 9.09579e-05 0)
(0.00166867 9.70887e-05 0)
(0.0016363 0.000103156 0)
(0.00160195 0.000109151 0)
(0.00156567 0.000115061 0)
(0.00152748 0.000120878 0)
(0.00148742 0.000126591 0)
(0.0014455 0.000132189 0)
(0.00140179 0.000137662 0)
(0.00135631 0.000143 0)
(0.00130911 0.000148193 0)
(0.00126025 0.000153231 0)
(0.00120977 0.000158103 0)
(0.00115773 0.0001628 0)
(0.00110419 0.000167312 0)
(0.0010492 0.00017163 0)
(0.000992842 0.000175744 0)
(0.000935172 0.000179646 0)
(0.000876263 0.000183328 0)
(0.000816188 0.000186781 0)
(0.000755023 0.000189999 0)
(0.000692845 0.000192975 0)
(0.000629736 0.000195701 0)
(0.000565776 0.000198172 0)
(0.000501051 0.000200383 0)
(0.000435646 0.000202328 0)
(0.000369649 0.000204004 0)
(0.000303148 0.000205405 0)
(0.000236233 0.00020653 0)
(0.000168995 0.000207376 0)
(0.000101526 0.00020794 0)
(3.39209e-05 0.000208222 0)
(-3.37347e-05 0.000208222 0)
(-0.000101339 0.000207939 0)
(-0.000168808 0.000207374 0)
(-0.000236045 0.000206528 0)
(-0.00030296 0.000205402 0)
(-0.000369462 0.000204 0)
(-0.00043546 0.000202325 0)
(-0.000500866 0.000200379 0)
(-0.000565592 0.000198169 0)
(-0.000629553 0.000195698 0)
(-0.000692663 0.000192973 0)
(-0.000754841 0.000189998 0)
(-0.000816008 0.000186781 0)
(-0.000876083 0.000183328 0)
(-0.000934992 0.000179647 0)
(-0.000992662 0.000175746 0)
(-0.00104902 0.000171633 0)
(-0.00110401 0.000167316 0)
(-0.00115755 0.000162805 0)
(-0.00120959 0.00015811 0)
(-0.00126007 0.000153239 0)
(-0.00130894 0.000148202 0)
(-0.00135614 0.00014301 0)
(-0.00140162 0.000137672 0)
(-0.00144533 0.0001322 0)
(-0.00148724 0.000126603 0)
(-0.00152731 0.000120891 0)
(-0.0015655 0.000115074 0)
(-0.00160178 0.000109164 0)
(-0.00163612 0.000103171 0)
(-0.0016685 9.71037e-05 0)
(-0.00169889 9.09724e-05 0)
(-0.00172728 8.47881e-05 0)
(-0.00175365 7.85602e-05 0)
(-0.00177798 7.22984e-05 0)
(-0.00180028 6.60124e-05 0)
(-0.00182053 5.97113e-05 0)
(-0.00183873 5.3404e-05 0)
(-0.00185488 4.70991e-05 0)
(-0.00186899 4.08044e-05 0)
(-0.00188106 3.4528e-05 0)
(-0.00189109 2.82785e-05 0)
(-0.0018991 2.20634e-05 0)
(-0.00190511 1.58901e-05 0)
(-0.00190912 9.76608e-06 0)
(-0.00191116 3.69846e-06 0)
(-0.00191125 -2.30638e-06 0)
(-0.0019094 -8.24369e-06 0)
(-0.00190564 -1.41085e-05 0)
(-0.0019 -1.98938e-05 0)
(-0.0018925 -2.55944e-05 0)
(-0.00188317 -3.12066e-05 0)
(-0.00187204 -3.67258e-05 0)
(-0.00185914 -4.21482e-05 0)
(-0.0018445 -4.74708e-05 0)
(-0.00182815 -5.26899e-05 0)
(-0.00181014 -5.7803e-05 0)
(-0.0017905 -6.28075e-05 0)
(-0.00176926 -6.77004e-05 0)
(-0.00174646 -7.24792e-05 0)
(-0.00172213 -7.71416e-05 0)
(-0.00169633 -8.16866e-05 0)
(-0.00166908 -8.61115e-05 0)
(-0.00164042 -9.04148e-05 0)
(-0.00161039 -9.4595e-05 0)
(-0.00157904 -9.86526e-05 0)
(-0.0015464 -0.000102587 0)
(-0.00151251 -0.000106398 0)
(-0.00147741 -0.000110085 0)
(-0.00144115 -0.000113648 0)
(-0.00140376 -0.000117087 0)
(-0.00136528 -0.000120402 0)
(-0.00132576 -0.000123592 0)
(-0.00128524 -0.000126657 0)
(-0.00124375 -0.000129597 0)
(-0.00120133 -0.000132413 0)
(-0.00115803 -0.000135108 0)
(-0.00111387 -0.000137682 0)
(-0.00106891 -0.000140135 0)
(-0.00102318 -0.000142471 0)
(-0.000976719 -0.000144686 0)
(-0.000929571 -0.000146782 0)
(-0.00088177 -0.00014876 0)
(-0.000833352 -0.000150615 0)
(-0.000784354 -0.000152353 0)
(-0.000734814 -0.000153975 0)
(-0.000684771 -0.000155482 0)
(-0.000634264 -0.000156877 0)
(-0.000583328 -0.000158161 0)
(-0.000531999 -0.000159333 0)
(-0.000480311 -0.000160393 0)
(-0.000428301 -0.000161338 0)
(-0.000376005 -0.000162166 0)
(-0.000323459 -0.000162882 0)
(-0.000270701 -0.000163486 0)
(-0.000217756 -0.000163972 0)
(-0.000164624 -0.000164251 0)
(-0.000111449 -0.000163485 0)
(-5.98874e-05 -0.000155502 0)
(-1.24605e-05 -0.000106374 0)
(1.23557e-05 -0.000146418 0)
(5.97487e-05 -0.000206491 0)
(0.000112873 -0.000214348 0)
(0.000166627 -0.000215329 0)
(0.000219981 -0.00021559 0)
(0.000272981 -0.000215496 0)
(0.000325722 -0.000215072 0)
(0.00037824 -0.000214369 0)
(0.000430529 -0.000213429 0)
(0.000482561 -0.000212285 0)
(0.000534297 -0.000210955 0)
(0.000585698 -0.000209452 0)
(0.000636725 -0.000207784 0)
(0.000687337 -0.000205956 0)
(0.000737494 -0.00020397 0)
(0.000787157 -0.000201827 0)
(0.000836288 -0.000199528 0)
(0.000884846 -0.000197074 0)
(0.000932793 -0.000194463 0)
(0.000980091 -0.000191695 0)
(0.0010267 -0.000188768 0)
(0.00107258 -0.000185683 0)
(0.0011177 -0.000182438 0)
(0.00116201 -0.000179033 0)
(0.00120548 -0.000175466 0)
(0.00124806 -0.000171737 0)
(0.00128972 -0.000167846 0)
(0.00133041 -0.000163791 0)
(0.0013701 -0.000159573 0)
(0.00140874 -0.00015519 0)
(0.00144629 -0.000150643 0)
(0.00148272 -0.000145931 0)
(0.00151798 -0.000141054 0)
(0.00155204 -0.000136013 0)
(0.00158484 -0.000130808 0)
(0.00161636 -0.00012544 0)
(0.00164655 -0.000119909 0)
(0.00167537 -0.000114216 0)
(0.00170278 -0.000108363 0)
(0.00172874 -0.000102351 0)
(0.00175321 -9.6182e-05 0)
(0.00177616 -8.98587e-05 0)
(0.00179755 -8.33835e-05 0)
(0.00181734 -7.67592e-05 0)
(0.00183548 -6.99893e-05 0)
(0.00185196 -6.30774e-05 0)
(0.00186673 -5.60278e-05 0)
(0.00187975 -4.88448e-05 0)
(0.001891 -4.15333e-05 0)
(0.00190045 -3.40985e-05 0)
(0.00190806 -2.65462e-05 0)
(0.0019138 -1.88825e-05 0)
(0.00191766 -1.11143e-05 0)
(0.00191959 -3.24875e-06 0)
(0.00191958 4.7069e-06 0)
(0.00191761 1.27455e-05 0)
(0.00191366 2.08589e-05 0)
(0.0019077 2.9038e-05 0)
(0.00189972 3.72735e-05 0)
(0.00188971 4.55557e-05 0)
(0.00187766 5.38749e-05 0)
(0.00186356 6.22204e-05 0)
(0.0018474 7.05815e-05 0)
(0.00182919 7.89467e-05 0)
(0.00180891 8.73041e-05 0)
(0.00178657 9.56416e-05 0)
(0.00176219 0.000103947 0)
(0.00173575 0.000112208 0)
(0.00170729 0.000120412 0)
(0.00167681 0.000128545 0)
(0.00164433 0.000136595 0)
(0.00160988 0.000144549 0)
(0.00157347 0.000152393 0)
(0.00153514 0.000160112 0)
(0.00149491 0.000167694 0)
(0.00145284 0.000175125 0)
(0.00140894 0.00018239 0)
(0.00136327 0.000189476 0)
(0.00131587 0.00019637 0)
(0.00126679 0.000203058 0)
(0.00121608 0.000209526 0)
(0.00116379 0.000215762 0)
(0.00110999 0.000221752 0)
(0.00105474 0.000227485 0)
(0.000998108 0.000232949 0)
(0.000940151 0.000238131 0)
(0.000880945 0.00024302 0)
(0.000820563 0.000247607 0)
(0.000759083 0.000251882 0)
(0.000696582 0.000255835 0)
(0.00063314 0.000259457 0)
(0.000568842 0.000262741 0)
(0.000503772 0.000265679 0)
(0.000438017 0.000268264 0)
(0.000371664 0.00027049 0)
(0.000304803 0.000272353 0)
(0.000237524 0.000273848 0)
(0.00016992 0.000274972 0)
(0.000102083 0.000275723 0)
(3.41094e-05 0.000276099 0)
(-3.39157e-05 0.000276099 0)
(-0.000101889 0.000275724 0)
(-0.000169726 0.000274973 0)
(-0.00023733 0.000273848 0)
(-0.000304608 0.000272353 0)
(-0.00037147 0.000270489 0)
(-0.000437824 0.000268263 0)
(-0.00050358 0.000265678 0)
(-0.000568651 0.00026274 0)
(-0.00063295 0.000259457 0)
(-0.000696391 0.000255836 0)
(-0.000758893 0.000251883 0)
(-0.000820374 0.000247609 0)
(-0.000880756 0.000243023 0)
(-0.000939962 0.000238134 0)
(-0.000997919 0.000232953 0)
(-0.00105456 0.00022749 0)
(-0.00110981 0.000221758 0)
(-0.00116361 0.000215768 0)
(-0.00121589 0.000209533 0)
(-0.0012666 0.000203065 0)
(-0.00131568 0.000196378 0)
(-0.00136309 0.000189486 0)
(-0.00140876 0.000182401 0)
(-0.00145265 0.000175137 0)
(-0.00149473 0.000167708 0)
(-0.00153496 0.000160128 0)
(-0.00157329 0.000152409 0)
(-0.00160969 0.000144566 0)
(-0.00164415 0.000136613 0)
(-0.00167663 0.000128563 0)
(-0.00170711 0.000120429 0)
(-0.00173557 0.000112226 0)
(-0.00176201 0.000103965 0)
(-0.00178639 9.56604e-05 0)
(-0.00180873 8.73238e-05 0)
(-0.00182901 7.89678e-05 0)
(-0.00184722 7.06041e-05 0)
(-0.00186338 6.22441e-05 0)
(-0.00187748 5.3899e-05 0)
(-0.00188953 4.55797e-05 0)
(-0.00189954 3.7297e-05 0)
(-0.00190752 2.90613e-05 0)
(-0.00191347 2.08818e-05 0)
(-0.00191743 1.27684e-05 0)
(-0.0019194 4.72979e-06 0)
(-0.00191942 -3.22576e-06 0)
(-0.00191748 -1.10907e-05 0)
(-0.00191363 -1.88582e-05 0)
(-0.00190789 -2.65205e-05 0)
(-0.00190029 -3.40706e-05 0)
(-0.00189084 -4.15027e-05 0)
(-0.00187959 -4.88114e-05 0)
(-0.00186656 -5.59916e-05 0)
(-0.0018518 -6.30388e-05 0)
(-0.00183532 -6.99483e-05 0)
(-0.00181717 -7.67165e-05 0)
(-0.00179738 -8.33402e-05 0)
(-0.00177599 -8.98153e-05 0)
(-0.00175304 -9.61387e-05 0)
(-0.00172857 -0.000102307 0)
(-0.00170261 -0.00010832 0)
(-0.0016752 -0.000114173 0)
(-0.00164638 -0.000119865 0)
(-0.00161619 -0.000125395 0)
(-0.00158468 -0.000130761 0)
(-0.00155187 -0.000135965 0)
(-0.00151781 -0.000141004 0)
(-0.00148255 -0.00014588 0)
(-0.00144612 -0.00015059 0)
(-0.00140856 -0.000155135 0)
(-0.00136992 -0.000159516 0)
(-0.00133023 -0.000163733 0)
(-0.00128953 -0.000167784 0)
(-0.00124787 -0.000171671 0)
(-0.00120529 -0.000175396 0)
(-0.00116181 -0.000178956 0)
(-0.00111749 -0.000182358 0)
(-0.00107236 -0.000185599 0)
(-0.00102646 -0.000188683 0)
(-0.000979831 -0.00019161 0)
(-0.000932516 -0.000194379 0)
(-0.000884548 -0.00019699 0)
(-0.000835962 -0.000199446 0)
(-0.000786798 -0.000201745 0)
(-0.000737094 -0.000203893 0)
(-0.000686888 -0.000205888 0)
(-0.000636219 -0.000207734 0)
(-0.000585121 -0.000209429 0)
(-0.000533628 -0.000210976 0)
(-0.000481777 -0.000212372 0)
(-0.000429601 -0.000213617 0)
(-0.00037714 -0.000214711 0)
(-0.000324433 -0.00021566 0)
(-0.000271516 -0.000216464 0)
(-0.000218414 -0.000217114 0)
(-0.000165127 -0.000217493 0)
(-0.000111807 -0.000216505 0)
(-6.01229e-05 -0.000206036 0)
(-1.25266e-05 -0.000141261 0)
(1.23296e-05 -0.0001809 0)
(5.96226e-05 -0.000257593 0)
(0.0001125 -0.0002681 0)
(0.000166447 -0.000269034 0)
(0.000220096 -0.000268939 0)
(0.000273408 -0.000268545 0)
(0.00032644 -0.000267868 0)
(0.00037922 -0.000266918 0)
(0.000431743 -0.000265715 0)
(0.000483988 -0.000264279 0)
(0.000535924 -0.000262625 0)
(0.000587516 -0.000260761 0)
(0.000638727 -0.000258694 0)
(0.000689519 -0.000256429 0)
(0.000739856 -0.000253968 0)
(0.000789697 -0.000251311 0)
(0.000839005 -0.00024846 0)
(0.000887741 -0.000245415 0)
(0.000935867 -0.000242174 0)
(0.000983345 -0.000238738 0)
(0.00103013 -0.000235104 0)
(0.0010762 -0.000231273 0)
(0.0011215 -0.000227242 0)
(0.00116599 -0.000223012 0)
(0.00120964 -0.000218581 0)
(0.00125241 -0.000213948 0)
(0.00129425 -0.000209112 0)
(0.00133513 -0.000204073 0)
(0.001375 -0.000198829 0)
(0.00141383 -0.000193381 0)