/*--------------------------------*- C++ -*----------------------------------*\
| =========                 |                                                 |
| \\      /  F ield         | OpenFOAM: The Open Source CFD Toolbox           |
|  \\    /   O peration     | Version:  2412                                  |
|   \\  /    A nd           | Website:  www.openfoam.com                      |
|    \\/     M anipulation  |                                                 |
\*---------------------------------------------------------------------------*/
FoamFile
{
    version     2.0;
    format      ascii;
    arch        "LSB;label=32;scalar=64";
    class       surfaceScalarField;
    location    "1.4";
    object      alphaPhi0.water;
}
// * * * * * * * * * * * * * * * * * * * * * * * * * * * * * * * * * * * * * //

dimensions      [0 3 -1 0 0 0 0];

oriented        oriented;

internalField   nonuniform List<scalar> 
79600
(
-5.72028e-182
6.2107e-186
4.23545e-182
-1.79147e-178
1.28034e-179
-1.33094e-176
5.90736e-179
-3.40214e-176
1.05178e-178
-4.09108e-176
1.39303e-178
-4.04691e-176
1.63198e-178
-3.77198e-176
1.7821e-178
-3.42114e-176
1.84972e-178
-3.04061e-176
1.8424e-178
-2.65151e-176
1.77062e-178
-2.2687e-176
1.6472e-178
-1.90415e-176
1.48623e-178
-1.56702e-176
1.30197e-178
-1.26355e-176
1.10787e-178
-9.97338e-177
9.15692e-179
-7.6974e-177
7.34895e-179
-5.80192e-177
5.73061e-179
-4.27139e-177
4.3381e-179
-3.06717e-177
3.18221e-179
-2.14322e-177
2.2575e-179
-1.45382e-177
1.5466e-179
-9.55715e-178
1.02091e-179
-6.07258e-178
6.47614e-180
-3.71846e-178
3.93678e-180
-2.18745e-178
2.28681e-180
-1.23244e-178
1.26625e-180
-6.6328e-179
6.67145e-181
-3.40344e-179
3.34578e-181
-1.66575e-179
1.59749e-181
-7.77983e-180
7.24416e-182
-3.45997e-180
3.10468e-182
-1.45837e-180
1.24925e-182
-5.78707e-181
4.68284e-183
-2.14451e-181
1.62308e-183
-7.36143e-182
5.1715e-184
-2.32585e-182
1.51033e-184
-6.74179e-183
4.03712e-185
-1.7904e-183
9.84819e-186
-4.3452e-184
2.17983e-186
-9.58428e-185
4.34505e-187
-1.90656e-185
7.74315e-188
-3.39398e-186
1.22629e-188
-5.37111e-187
1.71729e-189
-7.51395e-188
2.11636e-190
-9.24174e-189
2.28322e-191
-9.93292e-190
2.14275e-192
-9.25891e-191
1.73466e-193
-7.40807e-192
1.19642e-194
-5.00716e-193
6.88577e-196
-2.77968e-194
3.17594e-197
-1.19368e-195
1.06308e-198
-3.31602e-197
1.78074e-200
-5.18849e-201
3.02261e-202
3.15362e-205
5.17397e-204
1.09142e-206
8.89492e-206
2.83297e-208
1.53154e-207
6.54057e-210
2.63515e-209
1.41478e-211
4.52116e-211
2.93108e-213
7.7183e-213
5.87838e-215
1.30804e-214
1.14732e-216
2.19535e-216
2.18474e-218
3.64007e-218
4.06253e-220
5.94803e-220
7.37657e-222
9.55542e-222
1.30707e-223
1.50561e-223
2.25784e-225
2.32137e-225
3.79733e-227
3.49418e-227
6.20898e-229
5.12294e-229
9.85432e-231
7.29921e-231
1.51554e-232
1.00841e-232
2.25466e-234
1.34781e-234
3.23893e-236
1.73903e-236
4.48484e-238
2.16134e-238
5.97489e-240
2.58192e-240
7.64464e-242
2.95815e-242
9.37608e-244
3.2434e-244
1.10026e-245
3.39543e-246
1.23287e-247
3.38585e-248
1.31639e-249
3.20788e-250
1.33642e-251
2.87981e-252
1.28691e-253
2.44238e-254
1.1724e-255
1.95051e-256
1.00755e-257
1.46145e-258
8.14209e-260
1.02319e-260
6.1649e-262
6.66285e-263
4.35603e-264
4.01425e-265
2.85923e-266
2.22406e-267
1.73434e-268
1.1251e-269
9.6631e-271
5.15318e-272
4.91043e-273
2.1153e-274
2.25674e-275
7.68479e-277
9.28506e-278
2.43209e-279
3.37739e-280
6.56821e-282
1.06905e-282
1.47177e-284
2.88443e-285
2.62766e-287
6.45016e-288
3.50754e-290
1.14794e-290
3.11999e-293
1.52552e-293
1.40343e-296
1.34869e-296
2.36849e-301
6.0095e-300
-1.24531e-296
5.44649e-300
-2.95667e-293
1.29501e-296
-3.423e-290
1.50394e-293
-2.61061e-287
1.15027e-290
-1.48044e-284
6.53717e-288
-6.66786e-282
2.94827e-285
-2.48661e-279
1.09994e-282
-7.90171e-277
3.49337e-280
-2.18503e-274
9.64532e-278
-5.3432e-272
2.35267e-275
-1.17025e-269
5.13438e-273
-2.31933e-267
1.01288e-270
-4.19528e-265
1.82164e-268
-6.97585e-263
3.00822e-266
-1.07284e-260
4.58936e-264
-1.53422e-258
6.5026e-262
-2.04958e-256
8.59624e-260
-2.56835e-254
1.06455e-257
-3.02999e-252
1.2394e-255
-3.37641e-250
1.36096e-253
-3.56443e-248
1.41362e-251
-3.57469e-246
1.39255e-249
-3.41432e-244
1.30415e-247
-3.11336e-242
1.16369e-245
-2.71646e-240
9.91399e-244
-2.27293e-238
8.08013e-242
-1.82777e-236
6.31221e-240
-1.41561e-234
4.73527e-238
-1.05828e-232
3.41747e-236
-7.65304e-231
2.37709e-234
-5.36548e-229
1.5964e-232
-3.65506e-227
1.03698e-230
-2.42478e-225
6.52636e-229
-1.5701e-223
3.98624e-227
-9.94622e-222
2.36668e-225
-6.17841e-220
1.36785e-223
-3.77242e-218
7.70587e-222
-2.26964e-216
4.2358e-220
-1.3489e-214
2.27329e-218
-7.93952e-213
1.19135e-216
-4.63973e-211
6.09233e-215
-2.69845e-209
3.03307e-213
-1.56541e-207
1.46267e-211
-9.0771e-206
6.76286e-210
-5.27213e-204
2.93435e-208
-3.0748e-202
1.1363e-206
-1.80675e-200
3.34392e-205
-1.07504e-198
6.30871e-205
-3.24156e-197
-3.28838e-197
-7.05103e-196
-1.20901e-195
-1.2262e-194
-2.83371e-194
-1.77698e-193
-5.11536e-193
-2.19218e-192
-7.56961e-192
-2.33158e-191
-9.45302e-191
-2.15637e-190
-1.01239e-189
-1.74546e-189
-9.3997e-189
-1.24318e-188
-7.62576e-188
-7.82919e-188
-5.43816e-187
-4.38216e-187
-3.42781e-186
-2.19331e-186
-1.92085e-185
-9.88909e-186
-9.6347e-185
-4.04687e-185
-4.36006e-184
-1.51156e-184
-1.79359e-183
-5.16764e-184
-6.74323e-183
-1.61949e-183
-2.32296e-182
-4.66657e-183
-7.34195e-182
-1.24367e-182
-2.13615e-181
-3.08849e-182
-5.75922e-181
-7.20223e-182
-1.4504e-180
-1.58751e-181
-3.4392e-180
-3.3236e-181
-7.72973e-180
-6.62479e-181
-1.65447e-179
-1.2569e-180
-3.37913e-179
-2.26905e-180
-6.58254e-179
-3.90505e-180
-1.22263e-178
-6.42276e-180
-2.16938e-178
-1.01243e-179
-3.68687e-178
-1.53383e-179
-6.0204e-178
-2.23911e-179
-9.47513e-178
-3.15682e-179
-1.44145e-177
-4.30436e-179
-2.12525e-177
-5.68712e-179
-3.04187e-177
-7.2945e-179
-4.23661e-177
-9.09095e-179
-5.75494e-177
-1.10018e-178
-7.63538e-177
-1.2934e-178
-9.89437e-177
-1.4772e-178
-1.25379e-176
-1.63832e-178
-1.55524e-176
-1.76276e-178
-1.89033e-176
-1.83681e-178
-2.25327e-176
-1.84829e-178
-2.63581e-176
-1.78778e-178
-3.02781e-176
-1.64869e-178
-3.41749e-176
-1.42328e-178
-3.78883e-176
-1.09014e-178
-4.10186e-176
-6.18109e-179
-4.19508e-176
-1.32355e-179
-3.51236e-176
-4.13074e-182
-1.35544e-176
5.56552e-182
-1.72569e-178
6.06042e-186
1.34707e-188
-6.65311e-186
9.1062e-178
-3.86744e-175
7.15475e-176
-1.74847e-173
2.4278e-175
-3.9984e-173
3.85116e-175
-4.67385e-173
4.83028e-175
-4.59843e-173
5.49689e-175
-4.29418e-173
5.9079e-175
-3.91311e-173
6.08228e-175
-3.49929e-173
6.03913e-175
-3.07396e-173
5.80615e-175
-2.6526e-173
5.41856e-175
-2.24776e-173
4.91603e-175
-1.86939e-173
4.33936e-175
-1.5248e-173
3.72775e-175
-1.21877e-173
3.11624e-175
-9.53638e-174
2.53397e-175
-7.29634e-174
2.00575e-175
-5.4602e-174
1.54413e-175
-3.99122e-174
1.15399e-175
-2.84293e-174
8.35534e-176
-1.96853e-174
5.85299e-176
-1.32297e-174
3.95767e-176
-8.60665e-175
2.57624e-176
-5.40353e-175
1.6098e-176
-3.2636e-175
9.62871e-177
-1.89036e-175
5.49959e-177
-1.04734e-175
2.99461e-177
-5.5408e-176
1.55553e-177
-2.80106e-176
7.71322e-178
-1.35438e-176
3.64413e-178
-6.25273e-177
1.6331e-178
-2.74399e-177
6.89787e-179
-1.13715e-177
2.72465e-179
-4.41333e-178
9.98696e-180
-1.59055e-178
3.37644e-180
-5.28739e-179
1.04993e-180
-1.61622e-179
3.00023e-181
-4.53914e-180
7.86293e-182
-1.16907e-180
1.88085e-182
-2.74707e-181
4.07836e-183
-5.84437e-182
7.96293e-184
-1.11709e-182
1.39263e-184
-1.90622e-183
2.17316e-185
-2.88927e-184
3.01648e-186
-3.8721e-185
3.71414e-187
-4.56634e-186
4.04569e-188
-4.71231e-187
3.88747e-189
-4.22503e-188
3.28415e-190
-3.25706e-189
2.42807e-191
-2.12124e-190
1.55965e-192
-1.1268e-191
8.59278e-194
-4.45801e-193
3.95785e-195
-8.61137e-195
1.63606e-196
1.1764e-199
6.66497e-198
1.43349e-200
2.6718e-199
9.60364e-202
1.0526e-200
5.31898e-203
4.0707e-202
2.65853e-204
1.54352e-203
1.23971e-205
5.73168e-205
5.47929e-207
2.08183e-206
2.31473e-208
7.38669e-208
9.39081e-210
2.557e-209
3.66863e-211
8.62399e-211
1.38209e-212
2.83004e-212
5.02461e-214
9.02383e-214
1.76309e-215
2.79191e-215
5.96993e-217
8.36989e-217
1.94984e-218
2.42791e-218
6.13885e-220
6.80485e-220
1.86163e-221
1.84009e-221
5.43276e-223
4.79335e-223
1.52412e-224
1.20098e-224
4.10571e-226
2.88948e-226
1.06067e-227
6.66409e-228
2.62423e-229
1.47063e-229
6.20862e-231
3.09928e-231
1.40233e-232
6.22444e-233
3.01853e-234
1.18862e-234
6.1799e-236
2.15285e-236
1.20083e-237
3.68852e-238
2.20939e-239
5.96032e-240
3.83907e-241
9.05407e-242
6.28191e-243
1.28822e-243
9.64889e-245
1.70973e-245
1.38619e-246
2.1069e-247
1.85514e-248
2.39792e-249
2.3022e-250
2.5052e-251
2.63536e-252
2.38539e-253
2.76582e-254
2.0526e-255
2.64241e-256
1.57992e-257
2.27876e-258
1.07419e-259
1.75583e-260
6.34953e-262
1.19369e-262
3.19606e-264
7.04745e-265
1.33184e-266
3.53919e-267
4.41142e-269
1.46981e-269
1.08938e-271
4.84641e-272
1.78571e-274
1.19001e-274
1.46807e-277
1.93714e-277
2.81458e-282
1.5787e-280
-1.38327e-277
1.49935e-280
-1.75617e-274
1.91553e-277
-1.09266e-271
1.19898e-274
-4.47911e-269
4.94038e-272
-1.36391e-266
1.5107e-269
-3.29409e-264
3.66025e-267
-6.57713e-262
7.32389e-265
-1.11717e-259
1.24535e-262
-1.64852e-257
1.83765e-260
-2.14752e-255
2.39125e-258
-2.50132e-253
2.77898e-256
-2.63189e-251
2.91414e-254
-2.52313e-249
2.78097e-252
-2.21981e-247
2.43254e-250
-1.8033e-245
1.96227e-248
-1.35991e-243
1.46754e-246
-9.56465e-242
1.02224e-244
-6.29987e-240
6.65909e-243
-3.90022e-238
4.07135e-241
-2.27703e-236
2.34381e-239
-1.25736e-234
1.27415e-237
-6.58463e-233
6.5579e-236
-3.27836e-231
3.20312e-234
-1.55532e-229
1.48791e-232
-7.04583e-228
6.58605e-231
-3.05381e-226
2.78289e-229
-1.26866e-224
1.12436e-227
-5.06049e-223
4.35012e-226
-1.94131e-221
1.61394e-224
-7.17353e-220
5.74921e-223
-2.5572e-218
1.96863e-221
-8.80698e-217
6.48645e-220
-2.93456e-215
2.05843e-218
-9.47385e-214
6.29643e-217
-2.96746e-212
1.85765e-215
-9.03068e-211
5.28859e-214
-2.67383e-209
1.45313e-212
-7.71291e-208
3.85288e-211
-2.17052e-206
9.85132e-210
-5.96688e-205
2.42557e-208
-1.60446e-203
5.73603e-207
-4.22521e-202
1.29683e-205
-1.09099e-200
2.78e-204
-2.76527e-199
5.56375e-203
-6.88789e-198
1.00631e-201
-1.68801e-196
1.511e-200
-4.07558e-195
1.28355e-199
-8.86836e-194
-8.44064e-195
-1.61071e-192
-4.54697e-193
-2.50662e-191
-1.1574e-191
-3.38661e-190
-2.18335e-190
-4.0019e-189
-3.35261e-189
-4.15578e-188
-4.34396e-188
-3.80571e-187
-4.83596e-187
-3.08244e-186
-4.6754e-186
-2.21435e-185
-3.9542e-185
-1.4149e-184
-2.94235e-184
-8.06704e-184
-1.93568e-183
-4.12038e-183
-1.13111e-182
-1.89554e-182
-5.90162e-182
-7.90755e-182
-2.76724e-181
-3.01177e-181
-1.17524e-180
-1.05221e-180
-4.55515e-180
-3.37824e-180
-1.61927e-179
-9.97696e-180
-5.28881e-179
-2.71838e-179
-1.58857e-178
-6.87504e-179
-4.4021e-178
-1.62643e-178
-1.13313e-177
-3.62701e-178
-2.73229e-177
-7.67309e-178
-6.22255e-177
-1.54677e-177
-1.34719e-176
-2.97658e-177
-2.78505e-176
-5.46439e-177
-5.50703e-176
-9.56372e-177
-1.04056e-175
-1.59853e-176
-1.87744e-175
-2.55781e-176
-3.24041e-175
-3.92916e-176
-5.36419e-175
-5.81101e-176
-8.54336e-175
-8.29616e-176
-1.31327e-174
-1.14599e-175
-1.95423e-174
-1.5337e-175
-2.82258e-174
-1.9926e-175
-3.96322e-174
-2.51789e-175
-5.42272e-174
-3.09727e-175
-7.24734e-174
-3.70629e-175
-9.47401e-174
-4.31622e-175
-1.21109e-173
-4.89255e-175
-1.51566e-173
-5.39668e-175
-1.85893e-173
-5.78844e-175
-2.23641e-173
-6.02909e-175
-2.64133e-173
-6.08469e-175
-3.06445e-173
-5.92915e-175
-3.49457e-173
-5.54408e-175
-3.91881e-173
-4.90573e-175
-4.32002e-173
-3.93891e-175
-4.65657e-173
-2.4839e-175
-4.76505e-173
-7.17971e-176
-4.0783e-173
-8.59825e-178
-1.75251e-173
-1.10448e-188
-3.67315e-175
-5.34354e-186
3.51041e-185
-2.09062e-182
5.91959e-175
-1.66292e-172
3.43723e-173
-5.78079e-171
1.06633e-172
-1.23951e-170
1.63791e-172
-1.42464e-170
2.02743e-172
-1.39727e-170
2.2954e-172
-1.30713e-170
2.46539e-172
-1.19617e-170
2.54384e-172
-1.07583e-170
2.53674e-172
-9.51584e-171
2.4535e-172
-8.27648e-171
2.30676e-172
-7.07587e-171
2.1112e-172
-5.94321e-171
1.88232e-172
-4.90081e-171
1.63538e-172
-3.96426e-171
1.38438e-172
-3.14251e-171
1.1414e-172
-2.43861e-171
9.17396e-173
-1.85341e-171
7.182e-173
-1.37781e-171
5.46594e-173
-9.99391e-172
4.03583e-173
-7.05597e-172
2.88745e-173
-4.84214e-172
1.997e-173
-3.22099e-172
1.33147e-173
-2.07046e-172
8.53298e-174
-1.28188e-172
5.2413e-174
-7.62015e-173
3.07831e-174
-4.33788e-173
1.72607e-174
-2.36092e-173
9.24907e-175
-1.22988e-173
4.74167e-175
-6.14082e-174
2.3222e-175
-2.93469e-174
1.08189e-175
-1.3367e-174
4.76462e-176
-5.76484e-175
1.96767e-176
-2.33387e-175
7.55787e-177
-8.79011e-176
2.6829e-177
-3.05807e-176
8.77776e-178
-9.79817e-177
2.64592e-178
-2.89058e-177
7.33833e-179
-7.84133e-178
1.86415e-179
-1.946e-178
4.30768e-180
-4.38289e-179
8.99368e-181
-8.88623e-180
1.68784e-181
-1.61142e-180
2.8372e-182
-2.60063e-181
4.26103e-183
-3.7189e-182
5.70612e-184
-4.69095e-183
6.80282e-185
-5.19287e-184
7.21208e-186
-5.01347e-185
6.79396e-187
-4.18493e-186
5.68392e-188
-2.97835e-187
4.22073e-189
-1.75922e-188
2.77892e-190
-8.08477e-190
1.61845e-191
-2.27883e-191
8.52951e-193
3.8793e-196
4.39703e-194
1.13218e-196
2.21557e-195
1.04422e-197
1.09042e-196
7.49785e-199
5.23815e-198
4.7507e-200
2.45421e-199
2.77293e-201
1.12061e-200
1.5206e-202
4.98245e-202
7.91578e-204
2.15523e-203
3.93517e-205
9.06165e-205
1.87485e-206
3.69966e-206
8.57876e-208
1.46529e-207
3.77464e-209
5.62386e-209
1.59805e-210
2.08943e-210
6.51119e-212
7.50607e-212
2.55293e-213
2.60423e-213
9.62886e-215
8.71553e-215
3.49168e-216
2.80994e-216
1.21649e-217
8.71565e-218
4.06838e-219
2.59703e-219
1.30479e-220
7.42274e-221
4.00841e-222
2.03167e-222
1.17804e-223
5.31596e-224
3.30746e-225
1.32718e-225
8.85713e-227
3.1551e-227
2.25843e-228
7.12633e-229
5.47281e-230
1.52558e-230
1.25774e-231
3.08722e-232
2.73491e-233
5.88827e-234
5.61242e-235
1.05507e-235
1.08385e-236
1.76959e-237
1.96346e-238
2.76684e-239
3.32469e-240
4.01427e-241
5.24093e-242
5.37577e-243
7.65601e-244
6.60433e-245
1.03099e-245
7.39034e-247
1.27209e-247
7.46902e-249
1.4279e-249
6.74812e-251
1.44586e-251
5.38207e-253
1.30727e-253
3.72955e-255
1.04219e-255
2.19934e-257
7.21066e-258
1.07299e-259
4.24073e-260
4.15782e-262
2.06102e-262
1.20018e-264
7.94693e-265
2.29706e-267
2.27991e-267
2.20015e-270
4.33155e-270
4.2023e-275
4.11182e-273
-2.11515e-270
3.97602e-273
-2.29158e-267
4.33917e-270
-1.218e-264
2.32186e-267
-4.26487e-262
8.17708e-265
-1.1089e-259
2.13621e-262
-2.28579e-257
4.41959e-260
-3.89324e-255
7.54709e-258
-5.63815e-253
1.09458e-255
-7.08957e-251
1.37686e-253
-7.86562e-249
1.52639e-251
-7.79815e-247
1.51038e-249
-6.98024e-245
1.34776e-247
-5.68955e-243
1.09381e-245
-4.25341e-241
8.13179e-244
-2.93441e-239
5.57188e-242
-1.87818e-237
3.53736e-240
-1.12049e-235
2.09035e-238
-6.25627e-234
1.15446e-236
-3.28126e-232
5.98027e-235
-1.62183e-230
2.91493e-233
-7.57674e-229
1.34075e-231
-3.35455e-227
5.83439e-230
-1.41096e-225
2.40758e-228
-5.65053e-224
9.44094e-227
-2.15897e-222
3.52476e-225
-7.88509e-221
1.25509e-223
-2.75761e-219
4.26909e-222
-9.24982e-218
1.38906e-220
-2.9804e-216
4.32904e-219
-9.23809e-215
1.29372e-217
-2.75832e-213
3.71107e-216
-7.94374e-212
1.02269e-214
-2.2093e-210
2.70951e-213
-5.94081e-209
6.90518e-212
-1.54628e-207
1.69337e-210
-3.8999e-206
3.9964e-209
-9.54113e-205
9.07483e-208
-2.26655e-203
1.98149e-206
-5.23328e-202
4.15533e-205
-1.17553e-200
8.35156e-204
-2.57116e-199
1.6031e-202
-5.48059e-198
2.92174e-201
-1.13939e-196
5.00456e-200
-2.312e-195
7.90208e-199
-4.58213e-194
1.10278e-197
-8.87572e-193
1.20478e-196
-1.68147e-191
4.50327e-196
-2.88747e-190
-2.30811e-191
-4.38311e-189
-8.33361e-190
-5.89556e-188
-1.82048e-188
-7.0347e-187
-3.08412e-187
-7.45115e-186
-4.33001e-186
-7.0101e-185
-5.17806e-185
-5.86308e-184
-5.35047e-184
-4.36485e-183
-4.81989e-183
-2.89716e-182
-3.8095e-182
-1.71804e-181
-2.65551e-181
-9.12619e-181
-1.64014e-180
-4.35831e-180
-9.01595e-180
-1.88111e-179
-4.43359e-179
-7.3886e-179
-1.9633e-178
-2.659e-178
-7.89351e-178
-8.80584e-178
-2.90444e-177
-2.68693e-177
-9.82831e-177
-7.55711e-177
-3.06227e-176
-1.9648e-176
-8.78803e-176
-4.75273e-176
-2.33016e-175
-1.07832e-175
-5.74974e-175
-2.31307e-175
-1.33218e-174
-4.72049e-175
-2.92298e-174
-9.20364e-175
-6.11321e-174
-1.7169e-174
-1.22382e-173
-3.06083e-174
-2.34841e-173
-5.2098e-174
-4.31333e-173
-8.47968e-174
-7.57447e-173
-1.32297e-173
-1.27389e-172
-1.98416e-173
-2.05726e-172
-2.86893e-173
-3.20028e-172
-4.01025e-173
-4.81108e-172
-5.43197e-173
-7.01116e-172
-7.13858e-173
-9.93157e-172
-9.12031e-173
-1.36943e-171
-1.13498e-172
-1.84246e-171
-1.37697e-172
-2.42466e-171
-1.62719e-172
-3.12529e-171
-1.87371e-172
-3.94373e-171
-2.1027e-172
-4.8773e-171
-2.2991e-172
-5.91763e-171
-2.4476e-172
-7.05001e-171
-2.53373e-172
-8.2533e-171
-2.54513e-172
-9.50026e-171
-2.47256e-172
-1.07585e-170
-2.30978e-172
-1.19909e-170
-2.04839e-172
-1.31492e-170
-1.65952e-172
-1.41178e-170
-1.07643e-172
-1.44433e-170
-3.40272e-173
-1.25329e-170
-5.56327e-175
-5.74587e-171
-2.93954e-185
-1.57812e-172
-1.7768e-182
2.08145e-182
-1.20168e-179
1.33602e-172
-3.24852e-170
6.34246e-171
-9.21569e-169
1.86753e-170
-1.88272e-168
2.82416e-170
-2.13816e-168
3.48032e-170
-2.09384e-168
3.94008e-170
-1.96289e-168
4.24224e-170
-1.8036e-168
4.39583e-170
-1.63105e-168
4.4085e-170
-1.45224e-168
4.29343e-170
-1.27276e-168
4.06931e-170
-1.09753e-168
3.75862e-170
-9.30729e-169
3.38572e-170
-7.75669e-169
2.97519e-170
-6.34786e-169
2.55025e-170
-5.09638e-169
2.13156e-170
-4.00987e-169
1.73914e-170
-3.09415e-169
1.38401e-170
-2.33843e-169
1.07211e-170
-1.72659e-169
8.06769e-171
-1.24245e-169
5.89104e-171
-8.70282e-170
4.16399e-171
-5.91706e-170
2.84102e-171
-3.89258e-170
1.86539e-171
-2.46941e-170
1.17525e-171
-1.50582e-170
7.08781e-172
-8.8029e-171
4.08606e-172
-4.92585e-171
2.25469e-172
-2.64234e-171
1.19278e-172
-1.36133e-171
6.04244e-173
-6.72873e-172
2.91948e-173
-3.17803e-172
1.33688e-173
-1.42489e-172
5.75376e-174
-6.0106e-173
2.30725e-174
-2.36269e-173
8.56201e-175
-8.58918e-174
2.93265e-175
-2.87955e-174
9.27334e-176
-8.90636e-175
2.70483e-176
-2.53943e-175
7.24464e-177
-6.64032e-176
1.76886e-177
-1.57878e-176
3.90871e-178
-3.38349e-177
7.7752e-179
-6.49244e-178
1.38736e-179
-1.10988e-178
2.21501e-180
-1.68284e-179
3.15807e-181
-2.25273e-180
4.01495e-182
-2.64875e-181
4.54728e-183
-2.71882e-182
4.58684e-184
-2.41655e-183
4.12195e-185
-1.83661e-184
3.30281e-186
-1.16611e-185
2.36249e-187
-5.86467e-187
1.51058e-188
-1.96026e-188
8.70372e-190
7.51986e-194
4.89043e-191
1.49346e-193
2.67836e-192
1.62078e-194
1.42911e-193
1.29856e-195
7.42534e-195
9.03389e-197
3.75467e-196
5.74391e-198
1.84657e-197
3.41417e-199
8.8268e-199
1.91964e-200
4.09795e-200
1.02786e-201
1.84635e-201
5.26242e-203
8.06654e-203
2.58256e-204
3.41429e-204
1.21669e-205
1.39879e-205
5.50723e-207
5.54136e-207
2.39595e-208
2.12054e-208
1.00191e-209
7.83009e-210
4.02616e-211
2.78664e-211
1.55407e-212
9.54683e-213
5.75838e-214
3.14439e-214
2.04662e-215
9.94293e-216
6.97068e-217
3.01403e-217
2.27272e-218
8.74471e-219
7.08463e-220
2.42417e-220
2.10859e-221
6.40908e-222
5.98288e-223
1.61275e-223
1.6156e-224
3.85414e-225
4.14427e-226
8.7263e-227
1.00775e-227
1.86694e-228
2.31768e-229
3.76322e-230
5.02847e-231
7.12378e-232
1.02629e-232
1.26186e-233
1.96417e-234
2.083e-235
3.51249e-236
3.18961e-237
5.8456e-238
4.50673e-239
9.0123e-240
5.83988e-241
1.28042e-241
6.89065e-243
1.66626e-243
7.34086e-245
1.97201e-245
6.98907e-247
2.10464e-247
5.87227e-249
2.00502e-249
4.28545e-251
1.68369e-251
2.66059e-253
1.22661e-253
1.3661e-255
7.59351e-256
5.56938e-258
3.88333e-258
1.69072e-260
1.575e-260
3.40161e-263
4.75104e-263
3.42214e-266
9.48638e-266
6.50179e-271
9.45686e-269
-3.32848e-266
9.24606e-269
-3.42693e-263
9.59317e-266
-1.73132e-260
4.88074e-263
-5.76136e-258
1.63402e-260
-1.42332e-255
4.05695e-258
-2.78692e-253
7.97458e-256
-4.50773e-251
1.29344e-253
-6.19756e-249
1.78125e-251
-7.39634e-247
2.12688e-249
-7.78607e-245
2.2375e-247
-7.32214e-243
2.10034e-245
-6.21514e-241
1.77741e-243
-4.80245e-239
1.36758e-241
-3.40248e-237
9.63599e-240
-2.22391e-235
6.25559e-238
-1.34814e-233
3.76148e-236
-7.61498e-232
2.10458e-234
-4.0243e-230
1.10012e-232
-1.99702e-228
5.39189e-231
-9.33584e-227
2.48569e-229
-4.1236e-225
1.08092e-227
-1.72545e-223
4.44523e-226
-6.85604e-222
1.73279e-224
-2.59267e-220
6.41584e-223
-9.34972e-219
2.26065e-221
-3.22133e-217
7.59319e-220
-1.06219e-215
2.43495e-218
-3.35732e-214
7.46493e-217
-1.01871e-212
2.19061e-215
-2.9715e-211
6.15998e-214
-8.34322e-210
1.6614e-212
-2.25764e-208
4.30121e-211
-5.89438e-207
1.06955e-209
-1.48648e-205
2.55567e-208
-3.62462e-204
5.86947e-207
-8.55416e-203
1.2956e-205
-1.95573e-201
2.74763e-204
-4.33552e-200
5.59376e-203
-9.32696e-199
1.09162e-201
-1.94872e-197
2.037e-200
-3.9572e-196
3.62021e-199
-7.81549e-195
6.08708e-198
-1.50219e-193
9.57144e-197
-2.81147e-192
1.3765e-195
-5.12627e-191
1.72195e-194
-9.11006e-190
1.60148e-193
-1.57861e-188
1.40274e-193
-2.4678e-187
-2.0129e-188
-3.44644e-186
-6.09066e-187
-4.29426e-185
-1.21407e-185
-4.76831e-184
-1.91194e-184
-4.71483e-183
-2.51205e-183
-4.15044e-182
-2.81979e-182
-3.25401e-181
-2.7392e-181
-2.27452e-180
-2.32209e-180
-1.41968e-179
-1.72865e-179
-7.92881e-179
-1.13603e-178
-3.9725e-178
-6.62181e-178
-1.79204e-177
-3.43896e-177
-7.31898e-177
-1.59944e-176
-2.72618e-176
-6.70797e-176
-9.32818e-176
-2.55925e-175
-2.94468e-175
-8.95848e-175
-8.58196e-175
-2.89126e-174
-2.30877e-174
-8.60883e-174
-5.74938e-174
-2.36409e-173
-1.33443e-173
-6.00563e-173
-2.91172e-173
-1.4222e-172
-6.02239e-173
-3.1695e-172
-1.18817e-172
-6.70646e-172
-2.24495e-172
-1.35611e-171
-4.06676e-172
-2.63108e-171
-7.05172e-172
-4.90299e-171
-1.16888e-171
-8.75893e-171
-1.85485e-171
-1.49781e-170
-2.82458e-171
-2.45573e-170
-4.13969e-171
-3.87053e-170
-5.85671e-171
-5.88328e-170
-8.0211e-171
-8.65324e-170
-1.06604e-170
-1.23545e-169
-1.37638e-170
-1.71705e-169
-1.72988e-170
-2.32587e-169
-2.12065e-170
-3.0781e-169
-2.53786e-170
-3.9899e-169
-2.96173e-170
-5.07232e-169
-3.37178e-170
-6.31997e-169
-3.74502e-170
-7.72575e-169
-4.05712e-170
-9.27489e-169
-4.28392e-170
-1.09441e-168
-4.40311e-170
-1.27018e-168
-4.39612e-170
-1.45084e-168
-4.24967e-170
-1.63181e-168
-3.95534e-170
-1.80794e-168
-3.50132e-170
-1.97258e-168
-2.8428e-170
-2.10993e-168
-1.87065e-170
-2.15747e-168
-6.24627e-171
-1.89238e-168
-1.26123e-172
-9.12384e-169
-1.7907e-182
-3.09414e-170
-1.04592e-179
6.20398e-180
-3.57161e-177
1.68395e-170
-3.80762e-168
6.72836e-169
-9.00454e-167
1.90442e-168
-1.76522e-166
2.85344e-168
-1.98622e-166
3.51368e-168
-1.94436e-166
3.98631e-168
-1.82748e-166
4.30822e-168
-1.68623e-166
4.48683e-168
-1.53319e-166
4.5277e-168
-1.37401e-166
4.4416e-168
-1.21328e-166
4.24472e-168
-1.05516e-166
3.95725e-168
-9.03321e-167
3.60165e-168
-7.60765e-167
3.20117e-168
-6.29806e-167
2.77834e-168
-5.12048e-167
2.35395e-168
-4.0844e-167
1.94944e-168
-3.19942e-167
1.57678e-168
-2.45795e-167
1.24303e-168
-1.8472e-167
9.53107e-169
-1.35465e-167
7.10171e-169
-9.68461e-168
5.12919e-169
-6.72994e-168
3.58042e-169
-4.53113e-168
2.40804e-169
-2.94551e-168
1.55573e-169
-1.84263e-168
9.63163e-170
-1.10628e-168
5.70658e-170
-6.36494e-169
3.2412e-170
-3.51584e-169
1.76848e-170
-1.86893e-169
9.2615e-171
-9.55361e-170
4.63776e-171
-4.67855e-170
2.20664e-171
-2.18065e-170
9.88961e-172
-9.58449e-171
4.13632e-172
-3.93219e-171
1.60281e-172
-1.4937e-171
5.73994e-173
-5.23949e-172
1.90129e-173
-1.69897e-172
5.82335e-174
-5.09172e-173
1.64168e-174
-1.40295e-173
4.22627e-175
-3.5211e-174
9.8578e-176
-7.97497e-175
2.07162e-176
-1.61873e-175
3.90804e-177
-2.92968e-176
6.60053e-178
-4.70645e-177
9.95898e-179
-6.67873e-178
1.33998e-179
-8.32667e-179
1.60591e-180
-9.06341e-180
1.71347e-181
-8.54381e-181
1.62814e-182
-6.89167e-182
1.37904e-183
-4.65557e-183
1.0428e-184
-2.51184e-184
7.05364e-186
-9.34719e-186
4.28134e-187
-5.09526e-188
2.51614e-188
8.92673e-191
1.4408e-189
1.08092e-191
8.03122e-191
9.24257e-193
4.35451e-192
6.7822e-194
2.29511e-193
4.5241e-195
1.1752e-194
2.81208e-196
5.84246e-196
1.64963e-197
2.81813e-197
9.19927e-199
1.31794e-198
4.89803e-200
5.97122e-200
2.49666e-201
2.61883e-201
1.22035e-202
1.11084e-202
5.72548e-204
4.55288e-204
2.57957e-205
1.80132e-205
1.1162e-206
6.87242e-207
4.63801e-208
2.52559e-208
1.84989e-209
8.9297e-210
7.0785e-211
3.03378e-211
2.59653e-212
9.89051e-213
9.12254e-214
3.08965e-214
3.06658e-215
9.23375e-216
9.85126e-217
2.63567e-217
3.02026e-218
7.17221e-219
8.8239e-220
1.85694e-220
2.45253e-221
4.56437e-222
6.47296e-223
1.06259e-223
1.61894e-224
2.33677e-225
3.82834e-226
4.84024e-227
8.53765e-228
9.41275e-229
1.79055e-229
1.71237e-230
3.52034e-231
2.90229e-232
6.4653e-233
4.5619e-234
1.10473e-234
6.6148e-236
1.74823e-236
8.7943e-238
2.54882e-238
1.06438e-239
3.40285e-240
1.16284e-241
4.13063e-242
1.13509e-243
4.52051e-244
9.7758e-246
4.41491e-246
7.31107e-248
3.79977e-248
4.65053e-250
2.83654e-250
2.44596e-252
1.79891e-252
1.02121e-254
9.42213e-255
3.17407e-257
3.91291e-257
6.53661e-260
1.2083e-259
6.72881e-263
2.46909e-262
1.2879e-267
2.51817e-265
-6.60944e-263
2.4861e-265
-6.64681e-260
2.52008e-262
-3.27975e-257
1.2525e-259
-1.06579e-254
4.09552e-257
-2.57067e-252
9.92924e-255
-4.91329e-250
1.90543e-252
-7.75566e-248
3.0165e-250
-1.0404e-245
4.05372e-248
-1.21121e-243
4.72218e-246
-1.24351e-241
4.84541e-244
-1.14024e-239
4.43529e-242
-9.43488e-238
3.65916e-240
-7.10516e-236
2.7441e-238
-4.90487e-234
1.88403e-236
-3.12294e-232
1.19149e-234
-1.84369e-230
6.97754e-233
-1.01394e-228
3.80112e-231
-5.21561e-227
1.93406e-229
-2.51853e-225
9.22414e-228
-1.14536e-223
4.13674e-226
-4.91986e-222
1.74943e-224
-2.00136e-220
6.99429e-223
-7.72854e-219
2.64968e-221
-2.83932e-217
9.53111e-220
-9.94359e-216
3.26135e-218
-3.32569e-214
1.06337e-216
-1.06405e-212
3.30869e-215
-3.26189e-211
9.83778e-214
-9.59466e-210
2.7985e-212
-2.71164e-208
7.62418e-211
-7.37265e-207
1.9911e-209
-1.93072e-205
4.98821e-208
-4.87529e-204
1.1995e-206
-1.18828e-202
2.76968e-205
-2.79837e-201
6.14187e-204
-6.37323e-200
1.30787e-202
-1.40496e-198
2.67314e-201
-3.00042e-197
5.23917e-200
-6.2122e-196
9.83058e-199
-1.24788e-194
1.76123e-197
-2.43364e-193
2.99985e-196
-4.61069e-192
4.82302e-195
-8.49087e-191
7.22797e-194
-1.52077e-189
9.85375e-193
-2.65088e-188
1.15496e-191
-4.50118e-187
9.63876e-191
-7.41201e-186
-4.1343e-188
-1.09494e-184
-9.68836e-186
-1.446e-183
-2.62584e-184
-1.7038e-182
-4.87473e-183
-1.78853e-181
-7.21102e-182
-1.67117e-180
-8.92203e-181
-1.38968e-179
-9.43808e-180
-1.02905e-178
-8.64162e-179
-6.79435e-178
-6.90545e-178
-4.00744e-177
-4.84722e-177
-2.11631e-176
-3.00542e-176
-1.00338e-175
-1.65413e-175
-4.28706e-175
-8.11872e-175
-1.6603e-174
-3.57196e-174
-5.87488e-174
-1.41883e-173
-1.91422e-173
-5.13657e-173
-5.76823e-173
-1.71049e-172
-1.60775e-172
-5.26534e-172
-4.14182e-172
-1.49831e-171
-9.88814e-172
-3.93733e-171
-2.20386e-171
-9.58277e-171
-4.62802e-171
-2.17788e-170
-9.23583e-171
-4.66881e-170
-1.76258e-170
-9.52759e-170
-3.2289e-170
-1.86285e-169
-5.68261e-170
-3.50286e-169
-9.58757e-170
-6.33902e-169
-1.5481e-169
-1.10138e-168
-2.39567e-169
-1.83388e-168
-3.56153e-169
-2.93089e-168
-5.10185e-169
-4.50808e-168
-7.06385e-169
-6.69542e-168
-9.48063e-169
-9.63503e-168
-1.23656e-168
-1.34778e-167
-1.5688e-168
-1.83802e-167
-1.9399e-168
-2.44612e-167
-2.34288e-168
-3.18459e-167
-2.76596e-168
-4.06629e-167
-3.18787e-168
-5.09907e-167
-3.58801e-168
-6.27377e-167
-3.94401e-168
-7.58131e-167
-4.23278e-168
-9.00624e-167
-4.43196e-168
-1.05263e-166
-4.52141e-168
-1.21124e-166
-4.4849e-168
-1.37296e-166
-4.31138e-168
-1.53378e-166
-3.99452e-168
-1.68933e-166
-3.52482e-168
-1.83401e-166
-2.86149e-168
-1.95445e-166
-1.90104e-168
-1.99694e-166
-6.62622e-169
-1.76762e-166
-1.60334e-170
-8.90275e-167
-5.47139e-180
-3.64529e-168
-3.16674e-177
1.21946e-177
-6.9399e-175
1.43328e-168
-3.04468e-166
4.85649e-167
-6.04961e-165
1.32672e-166
-1.14172e-164
1.9741e-166
-1.27466e-164
2.43265e-166
-1.24835e-164
2.76844e-166
-1.17688e-164
3.00514e-166
-1.09069e-164
3.14679e-166
-9.97176e-165
3.19593e-166
-8.9949e-165
3.15844e-166
-8.00243e-165
3.04382e-166
-7.01876e-165
2.86436e-166
-6.06587e-165
2.63413e-166
-5.16235e-165
2.36807e-166
-4.32315e-165
2.08106e-166
-3.55929e-165
1.78725e-166
-2.87821e-165
1.50235e-166
-2.28874e-165
1.23506e-166
-1.78741e-165
9.90851e-167
-1.36724e-165
7.7415e-167
-1.02188e-165
5.88636e-167
-7.45718e-166
4.34448e-167
-5.29731e-166
3.10314e-167
-3.65101e-166
2.13816e-167
-2.43275e-166
1.41683e-167
-1.56182e-166
9.00646e-168
-9.63395e-167
5.48523e-168
-5.70128e-167
3.20728e-168
-3.24402e-167
1.80508e-168
-1.77981e-167
9.77347e-169
-9.41172e-168
5.07285e-169
-4.78034e-168
2.50826e-169
-2.3171e-168
1.17084e-169
-1.06163e-168
5.10889e-170
-4.54842e-169
2.06765e-170
-1.8065e-169
7.74349e-171
-6.63426e-170
2.68755e-171
-2.25693e-170
8.6468e-172
-7.11546e-171
2.5668e-172
-2.06786e-171
6.96985e-173
-5.48406e-172
1.71657e-173
-1.31403e-172
3.81187e-174
-2.82431e-173
7.60376e-175
-5.4179e-174
1.35866e-175
-9.23288e-175
2.16916e-176
-1.3906e-175
3.08762e-177
-1.84041e-176
3.91219e-178
-2.12619e-177
4.40879e-179
-2.12666e-178
4.41891e-180
-1.81994e-179
3.94212e-181
-1.30542e-180
3.13452e-182
-7.50976e-182
2.22581e-183
-3.04066e-183
1.41511e-184
-3.08192e-185
8.63947e-186
3.47832e-188
5.13322e-187
4.60896e-189
2.96677e-188
4.1527e-190
1.66683e-189
3.18252e-191
9.09719e-191
2.20862e-192
4.81988e-192
1.42494e-193
2.47732e-193
8.66161e-195
1.23438e-194
4.99819e-196
5.95841e-196
2.75053e-197
2.78421e-197
1.44757e-198
1.25841e-198
7.29861e-200
5.49699e-200
3.52917e-201
2.31861e-201
1.63747e-202
9.43447e-203
7.29158e-204
3.69963e-204
3.11579e-205
1.39663e-205
1.27723e-206
5.06982e-207
5.01989e-208
1.76748e-208
1.89034e-209
5.91008e-210
6.81446e-211
1.89274e-211
2.34925e-212
5.79671e-213
7.73625e-214
1.69489e-214
2.43031e-215
4.72261e-216
7.27248e-217
1.25155e-217
2.06955e-218
3.14779e-219
5.59045e-220
7.49588e-221
1.43057e-221
1.68565e-222
3.46004e-223
3.56929e-224
7.88978e-225
7.09368e-226
1.69138e-226
1.31847e-227
3.39812e-228
2.28255e-229
6.37561e-230
3.66366e-231
1.11263e-231
5.42334e-233
1.79779e-233