/*--------------------------------*- C++ -*----------------------------------*\
| =========                 |                                                 |
| \\      /  F ield         | OpenFOAM: The Open Source CFD Toolbox           |
|  \\    /   O peration     | Version:  2412                                  |
|   \\  /    A nd           | Website:  www.openfoam.com                      |
|    \\/     M anipulation  |                                                 |
\*---------------------------------------------------------------------------*/
FoamFile
{
    version     2.0;
    format      ascii;
    arch        "LSB;label=32;scalar=64";
    class       volScalarField;
    location    "1.4";
    object      alpha.water;
}
// * * * * * * * * * * * * * * * * * * * * * * * * * * * * * * * * * * * * * //

dimensions      [0 0 0 0 0 0 0];

internalField   nonuniform List<scalar> 
40000
(
1.47475e-174
1.37813e-170
7.11017e-169
1.63567e-168
1.905e-168
1.86847e-168
1.73765e-168
1.574e-168
1.39689e-168
1.21625e-168
1.03906e-168
8.70737e-169
7.15323e-169
5.75633e-169
4.53326e-169
3.49e-169
2.62341e-169
1.92539e-169
1.37774e-169
9.58999e-170
6.47808e-170
4.23927e-170
2.68066e-170
1.63328e-170
9.55949e-171
5.35864e-171
2.86938e-171
1.46486e-171
7.13161e-172
3.31135e-172
1.4627e-172
6.11608e-173
2.40465e-173
8.82034e-174
2.99568e-174
9.36553e-175
2.68727e-175
7.06608e-176
1.69771e-176
3.70548e-177
7.29182e-178
1.28431e-178
2.01254e-179
2.79171e-180
3.41161e-181
3.65365e-182
3.40737e-183
2.74403e-184
1.88468e-185
1.08129e-186
4.97677e-188
1.66411e-189
2.78749e-191
4.7364e-193
8.12467e-195
1.40122e-196
2.42294e-198
4.19125e-200
7.23762e-202
1.24498e-203
2.1284e-205
3.60777e-207
6.04873e-209
1.00065e-210
1.62952e-212
2.60606e-214
4.0838e-216
6.25627e-218
9.34898e-220
1.35971e-221
1.92048e-223
2.62857e-225
3.47901e-227
4.44339e-229
5.46518e-231
6.46001e-233
7.32321e-235
7.94485e-237
8.23047e-239
8.12277e-241
7.61795e-243
6.77097e-245
5.68668e-247
4.49824e-249
3.33906e-251
2.3165e-253
1.49506e-255
8.92922e-258
4.90508e-260
2.4607e-262
1.11784e-264
4.55174e-267
1.64059e-269
5.15182e-272
1.38065e-274
3.07013e-277
5.43951e-280
7.20437e-283
6.35491e-286
2.8284e-289
2.56333e-289
6.10141e-286
7.10133e-283
5.44941e-280
3.11074e-277
1.41078e-274
5.29885e-272
1.69625e-269
4.72619e-267
1.16474e-264
2.57135e-262
5.13796e-260
9.37183e-258
1.57176e-255
2.43863e-253
3.51894e-251
4.74466e-249
6.00216e-247
7.14999e-245
8.04681e-243
8.58131e-241
8.69512e-239
8.39227e-237
7.73363e-235
6.8195e-233
5.7665e-231
4.6856e-229
3.66609e-227
2.7677e-225
2.02029e-223
1.42889e-221
9.81312e-220
6.55811e-218
4.27433e-216
2.72295e-214
1.6993e-212
1.04125e-210
6.27938e-209
3.73597e-207
2.19836e-205
1.28261e-203
7.43828e-202
4.29798e-200
2.47989e-198
1.43178e-196
8.28925e-195
4.82405e-193
2.83152e-191
1.68473e-189
5.08513e-188
1.1084e-186
1.93354e-185
2.8137e-184
3.48923e-183
3.73438e-182
3.47909e-181
2.83984e-180
2.04187e-179
1.29957e-178
7.35943e-178
3.731e-177
1.7059e-176
7.08771e-176
2.6911e-175
9.36398e-175
2.99069e-174
8.79425e-174
2.39508e-173
6.08698e-173
1.45486e-172
3.29196e-172
7.08688e-172
1.45509e-171
2.84901e-171
5.31831e-171
9.48435e-171
1.62007e-170
2.65867e-170
4.20443e-170
6.42513e-170
9.51252e-170
1.36677e-169
1.91024e-169
2.60294e-169
3.46301e-169
4.49864e-169
5.71328e-169
7.10143e-169
8.64732e-169
1.03244e-168
1.20951e-168
1.39121e-168
1.57206e-168
1.74495e-168
1.89379e-168
1.95423e-168
1.69026e-168
7.2484e-169
1.32458e-170
1.44326e-174
1.96509e-177
2.48004e-167
8.91851e-166
1.87908e-165
2.14065e-165
2.0908e-165
1.94825e-165
1.77354e-165
1.58455e-165
1.39058e-165
1.19867e-165
1.01455e-165
8.42703e-166
6.86419e-166
5.47817e-166
4.27923e-166
3.26801e-166
2.44033e-166
1.77941e-166
1.26406e-166
8.72776e-167
5.8475e-167
3.79188e-167
2.37303e-167
1.42886e-167
8.25304e-168
4.56113e-168
2.40765e-168
1.21453e-168
5.85831e-169
2.69665e-169
1.17922e-169
4.86718e-170
1.88129e-170
6.75673e-171
2.2412e-171
6.8461e-172
1.92406e-172
4.96525e-173
1.17085e-173
2.50559e-174
4.83339e-175
8.36058e-176
1.29174e-176
1.77715e-177
2.17106e-178
2.34879e-179
2.24388e-180
1.8866e-181
1.38958e-182
8.90136e-184
4.89568e-185
2.25339e-186
9.31802e-188
3.80122e-189
1.52752e-190
6.03902e-192
2.34616e-193
8.94671e-195
3.34486e-196
1.22456e-197
4.38456e-199
1.53344e-200
5.23158e-202
1.73881e-203
5.62274e-205
1.7666e-206
5.38567e-208
1.59097e-209
4.54788e-211
1.25624e-212
3.34833e-214
8.59868e-216
2.12428e-217
5.04036e-219
1.14668e-220
2.49666e-222
5.19243e-224
1.02936e-225
1.94076e-227
3.47145e-229
5.87512e-231
9.38004e-233
1.40816e-234
1.98047e-236
2.59882e-238
3.16706e-240
3.56536e-242
3.68516e-244
3.47222e-246
2.9571e-248
2.25316e-250
1.51673e-252
8.87799e-255
4.42588e-257
1.82688e-259
5.99454e-262
1.46657e-264
2.38153e-267
1.9385e-270
1.84103e-270
2.35485e-267
1.47749e-264
6.10994e-262
1.87737e-259
4.5763e-257
9.22396e-255
1.58193e-252
2.35741e-250
3.10198e-248
3.65021e-246
3.88108e-244
3.76056e-242
3.34464e-240
2.74738e-238
2.09545e-236
1.49091e-234
9.93646e-233
6.22601e-231
3.67972e-229
2.05748e-227
1.0913e-225
5.50444e-224
2.6462e-222
1.21502e-220
5.3388e-219
2.249e-217
9.0984e-216
3.5406e-214
1.32738e-212
4.80136e-211
1.67807e-209
5.67465e-208
1.8593e-206
5.91061e-205
1.82546e-203
5.48471e-202
1.60531e-200
4.58319e-199
1.27807e-197
3.48566e-196
9.30909e-195
2.43753e-193
6.26501e-192
1.58237e-190
3.93175e-189
9.62192e-188
2.3223e-186
5.05666e-185
9.19978e-184
1.43559e-182
1.94684e-181
2.31153e-180
2.41431e-179
2.22603e-178
1.81715e-177
1.31702e-176
8.49926e-176
4.89934e-175
2.53279e-174
1.18062e-173
4.99597e-173
1.9324e-172
6.86416e-172
2.24341e-171
6.75289e-171
1.87773e-170
4.85299e-170
1.17485e-169
2.68495e-169
5.8298e-169
1.20807e-168
2.39385e-168
4.53315e-168
8.19931e-168
1.41916e-167
2.35649e-167
3.76513e-167
5.80622e-167
8.66658e-167
1.25532e-166
1.76734e-166
2.42414e-166
3.2468e-166
4.25222e-166
5.44488e-166
6.82462e-166
8.38197e-166
1.0097e-165
1.19388e-165
1.38658e-165
1.58272e-165
1.77645e-165
1.96028e-165
2.11758e-165
2.18321e-165
1.91846e-165
8.95226e-166
2.35623e-167
1.65188e-177
2.51722e-174
1.04237e-164
2.99234e-163
5.96258e-163
6.69643e-163
6.52475e-163
6.09164e-163
5.56907e-163
5.00471e-163
4.42301e-163
3.84346e-163
3.28268e-163
2.75424e-163
2.2685e-163
1.83262e-163
1.45069e-163
1.12401e-163
8.52705e-164
6.32541e-164
4.57752e-164
3.224e-164
2.20662e-164
1.46383e-164
9.38432e-165
5.79576e-165
3.43796e-165
1.95379e-165
1.06202e-165
5.52629e-166
2.75577e-166
1.31483e-166
5.97658e-167
2.5717e-167
1.0391e-167
3.91012e-168
1.36154e-168
4.37499e-169
1.29675e-169
3.5405e-170
8.86397e-171
2.02092e-171
4.16747e-172
7.73318e-173
1.28667e-173
1.91465e-174
2.54308e-175
3.0102e-176
3.1717e-177
2.97247e-178
2.47653e-179
1.83325e-180
1.20444e-181
7.00692e-183
3.69243e-184
1.90527e-185
9.61926e-187
4.74864e-188
2.29053e-189
1.07876e-190
4.95686e-192
2.22037e-193
9.68744e-195
4.11311e-196
1.69787e-197
6.80751e-199
2.64843e-200
9.98738e-202
3.64679e-203
1.28789e-204
4.39389e-206
1.44641e-207
4.58828e-209
1.40067e-210
4.10887e-212
1.15651e-213
3.11824e-215
8.03967e-217
1.9784e-218
4.63717e-220
1.03296e-221
2.18151e-223
4.35625e-225
8.20114e-227
1.45086e-228
2.40317e-230
3.71172e-232
5.32088e-234
7.04214e-236
8.55225e-238
9.46238e-240
9.45751e-242
8.45204e-244
6.66931e-246
4.57322e-248
2.66913e-250
1.28901e-252
4.94506e-255
1.41332e-257
2.67837e-260
2.53927e-263
2.45538e-263
2.68296e-260
1.43922e-257
5.08771e-255
1.33584e-252
2.78121e-250
4.7856e-248
7.00294e-246
8.89965e-244
9.98133e-242
1.00056e-239
9.0577e-238
7.46827e-236
5.64907e-234
3.94424e-232
2.5556e-230
1.54379e-228
8.73033e-227
4.63885e-225
2.32352e-223
1.10033e-221
4.93962e-220
2.10727e-218
8.56189e-217
3.31995e-215
1.23091e-213
4.37137e-212
1.48942e-210
4.87623e-209
1.5362e-207
4.6633e-206
1.36578e-204
3.86401e-203
1.05724e-201
2.80077e-200
7.19144e-199
1.7916e-197
4.33505e-196
1.01976e-194
2.33432e-193
5.20447e-192
1.13116e-190
2.39858e-189
4.96599e-188
1.00459e-186
1.98701e-185
3.84519e-184
7.28509e-183
1.25238e-181
1.90509e-180
2.57046e-179
3.0798e-178
3.27891e-177
3.10382e-176
2.6146e-175
1.96244e-174
1.3146e-173
7.87591e-173
4.23114e-172
2.04573e-171
8.94913e-171
3.56651e-170
1.30378e-169
4.39103e-169
1.3642e-168
3.91144e-168
1.03803e-167
2.56634e-167
5.95926e-167
1.31016e-166
2.74449e-166
5.50111e-166
1.05674e-165
1.94334e-165
3.41836e-165
5.76127e-165
9.32703e-165
1.4548e-164
2.193e-164
3.20428e-164
4.54997e-164
6.28827e-164
8.47843e-164
1.11782e-163
1.44304e-163
1.82352e-163
2.25812e-163
2.74301e-163
3.27144e-163
3.83361e-163
4.41684e-163
5.00601e-163
5.58398e-163
6.12918e-163
6.59393e-163
6.79196e-163
6.03471e-163
2.97818e-163
9.89415e-165
2.14782e-174
1.26107e-171
2.07989e-162
4.96059e-161
9.45939e-161
1.05108e-160
1.0229e-160
9.57095e-161
8.78569e-161
7.93858e-161
7.06234e-161
6.18396e-161
5.32739e-161
4.51296e-161
3.75674e-161
3.0705e-161
2.46173e-161
1.93397e-161
1.48957e-161
1.12335e-161
8.27513e-162
5.94027e-162
4.1497e-162
2.81347e-162
1.84572e-162
1.16787e-162
7.10549e-163
4.14634e-163
2.31708e-163
1.24153e-163
6.38814e-164
3.15242e-164
1.48593e-164
6.64755e-165
2.79888e-165
1.09941e-165
4.00145e-166
1.34589e-166
4.18415e-167
1.20125e-167
3.17044e-168
7.6363e-169
1.66639e-169
3.27695e-170
5.78649e-171
9.15203e-172
1.29396e-172
1.63297e-173
1.83775e-174
1.84382e-175
1.64973e-176
1.31745e-177
9.40157e-179
6.00328e-180
3.45785e-181
1.94423e-182
1.06665e-183
5.70722e-185
2.97676e-186
1.51266e-187
7.4844e-189
3.60336e-190
1.68689e-191
7.67303e-193
3.38844e-194
1.45151e-195
6.02619e-197
2.42248e-198
9.41993e-200
3.53961e-201
1.28384e-202
4.48968e-204
1.51195e-205
4.89679e-207
1.52313e-208
4.54326e-210
1.29751e-211
3.54177e-213
9.22334e-215
2.28684e-216
5.38651e-218
1.20242e-219
2.53709e-221
5.04512e-223
9.42438e-225
1.6478e-226
2.68565e-228
4.06145e-230
5.66885e-232
7.25831e-234
8.46431e-236
8.91408e-238
8.39156e-240
6.9729e-242
5.03357e-244
3.09181e-246
1.5709e-248
6.3383e-251
1.90455e-253
3.79297e-256
3.77626e-259
3.69203e-259
3.83551e-256
1.9564e-253
6.57514e-251
1.64092e-248
3.24644e-246
5.30681e-244
7.37536e-242
8.89943e-240
9.47422e-238
9.01246e-236
7.73995e-234
6.05254e-232
4.34078e-230
2.87276e-228
1.76377e-226
1.00929e-224
5.40512e-223
2.71886e-221
1.28878e-219
5.77371e-218
2.45114e-216
9.88477e-215
3.79497e-213
1.38987e-211
4.86485e-210
1.63022e-208
5.23837e-207
1.61646e-205
4.79686e-204
1.37068e-202
3.77601e-201
1.00404e-199
2.57963e-198
6.41073e-197
1.5425e-195
3.59683e-194
8.13534e-193
1.78634e-191
3.81096e-190
7.9053e-189
1.5956e-187
3.13574e-186
6.00383e-185
1.12053e-183
2.03953e-182
3.62194e-181
6.27814e-180
9.82747e-179
1.37568e-177
1.71983e-176
1.918e-175
1.90665e-174
1.68911e-173
1.33407e-172
9.40337e-172
5.92466e-171
3.34354e-170
1.69451e-169
7.74048e-169
3.20464e-168
1.21135e-167
4.21099e-167
1.35207e-166
4.01269e-166
1.10064e-165
2.79803e-165
6.63831e-165
1.48263e-164
3.14331e-164
6.36612e-164
1.23667e-163
2.30707e-163
4.12685e-163
7.06971e-163
1.16171e-162
1.83572e-162
2.79807e-162
4.12699e-162
5.90805e-162
8.23108e-162
1.11754e-161
1.48213e-161
1.92471e-161
2.45059e-161
3.05762e-161
3.74253e-161
4.49821e-161
5.31343e-161
6.17286e-161
7.05724e-161
7.94419e-161
8.80879e-161
9.62016e-161
1.03102e-160
1.06107e-160
9.51619e-161
4.91629e-161
1.98099e-162
1.0985e-171
3.63273e-169
2.54466e-160
5.11516e-159
9.38459e-159
1.03389e-158
1.00597e-158
9.43708e-159
8.69899e-159
7.90266e-159
7.07589e-159
6.2422e-159
5.42314e-159
4.63757e-159
3.90094e-159
3.22511e-159
2.61826e-159
2.08514e-159
1.63017e-159
1.24955e-159
9.36757e-160
6.85192e-160
4.88426e-160
3.38365e-160
2.27102e-160
1.47188e-160
9.18272e-161
5.50056e-161
3.15899e-161
1.74218e-161
9.24501e-162
4.7161e-162
2.3038e-162
1.07082e-162
4.69461e-163
1.92325e-163
7.30885e-164
2.57009e-164
8.36907e-165
2.52282e-165
7.00768e-166
1.77947e-166
4.09853e-167
8.51395e-168
1.5893e-168
2.65887e-169
3.97784e-170
5.31232e-171
6.32549e-172
6.71235e-173
6.3496e-174
5.3595e-175
4.04271e-176
2.73056e-177
1.65662e-178
9.74156e-180
5.58722e-181
3.12268e-182
1.69943e-183
9.00031e-185
4.63592e-186
2.32102e-187
1.12877e-188
5.32867e-190
2.44003e-191
1.08291e-192
4.65427e-194
1.93548e-195
7.78032e-197
3.0203e-198
1.13108e-199
4.0817e-201
1.41769e-202
4.73328e-204
1.51704e-205
4.66067e-207
1.37038e-208
3.84974e-210
1.0314e-211
2.62998e-213
6.36892e-215
1.46125e-216
3.16798e-218
6.47109e-220
1.24137e-221
2.22836e-223
3.72781e-225
5.78497e-227
8.28379e-229
1.08788e-230
1.30092e-232
1.40459e-234
1.3553e-236
1.15406e-238
8.53525e-241
5.37011e-243
2.79419e-245
1.1543e-247
3.55041e-250
7.23601e-253
7.37012e-256
7.27617e-256
7.38514e-253
3.68005e-250
1.20805e-247
2.94421e-245
5.68725e-243
9.07513e-241
1.23094e-238
1.44929e-236
1.50516e-234
1.39647e-232
1.16945e-230
8.91536e-229
6.23196e-227
4.01892e-225
2.40382e-223
1.33973e-221
6.98608e-220
3.4208e-218
1.57801e-216
6.87783e-215
2.83986e-213
1.1135e-211
4.15506e-210
1.47854e-208
5.02637e-207
1.63524e-205
5.09913e-204
1.52627e-202
4.39115e-201
1.21587e-199
3.24392e-198
8.34862e-197
2.07479e-195
4.98398e-194
1.15832e-192
2.60686e-191
5.68593e-190
1.20289e-188
2.47011e-187
4.92688e-186
9.55158e-185
1.80088e-183
3.30403e-182
5.9019e-181
1.0271e-179
1.74297e-178
2.87134e-177
4.24783e-176
5.62354e-175
6.64907e-174
7.01091e-173
6.5867e-172
5.51275e-171
4.11273e-170
2.73856e-169
1.63066e-168
8.70253e-168
4.17401e-167
1.80605e-166
7.09096e-166
2.54648e-165
8.43032e-165
2.58407e-164
7.33501e-164
1.92674e-163
4.69616e-163
1.06997e-162
2.30003e-162
4.70518e-162
9.21835e-162
1.73634e-161
3.14711e-161
5.47778e-161
9.14161e-161
1.46495e-160
2.26001e-160
3.36705e-160
4.86028e-160
6.81856e-160
9.32285e-160
1.24377e-159
1.62291e-159
2.07627e-159
2.6078e-159
3.21327e-159
3.88817e-159
4.62464e-159
5.41123e-159
6.23306e-159
7.07199e-159
7.9074e-159
8.71678e-159
9.47272e-159
1.01145e-158
1.03992e-158
9.40429e-159
5.06148e-159
2.43582e-160
3.22052e-169
7.11857e-167
2.15438e-158
3.6676e-157
6.48941e-157
7.09684e-157
6.90877e-157
6.50071e-157
6.01843e-157
5.49733e-157
4.95405e-157
4.40292e-157
3.85745e-157
3.32975e-157
2.83006e-157
2.3666e-157
1.94539e-157
1.57043e-157
1.2462e-157
9.70874e-158
7.40694e-158
5.52043e-158
4.01561e-158
2.84273e-158
1.95227e-158
1.29625e-158
8.29431e-159
5.10125e-159
3.0114e-159
1.70966e-159
9.35787e-160
4.93522e-160
2.49878e-160
1.20692e-160
5.51087e-161
2.35522e-161
9.34779e-162
3.43734e-162
1.17276e-162
3.71338e-163
1.08607e-163
2.90879e-164
7.07361e-165
1.55262e-165
3.06448e-166
5.42358e-167
8.58528e-168
1.21287e-168
1.52676e-169
1.71107e-170
1.70723e-171
1.51765e-172
1.20368e-173
8.53426e-175
5.42311e-176
3.31258e-177
1.97125e-178
1.14226e-179
6.44114e-181
3.53218e-182
1.88241e-183
9.74306e-185
4.8944e-186
2.38469e-187
1.12612e-188
5.1503e-190
2.27944e-191
9.75449e-193
4.0325e-194
1.60888e-195
6.18888e-197
2.29283e-198
8.17149e-200
2.7981e-201
9.1935e-203
2.89423e-204
8.71659e-206
2.50724e-207
6.8753e-209
1.79379e-210
4.44319e-212
1.04239e-213
2.31012e-215
4.82227e-217
9.45103e-219
1.7328e-220
2.96e-222
4.68928e-224
6.85323e-226
9.18343e-228
1.12029e-229
1.23364e-231
1.21376e-233
1.05365e-235
7.94253e-238
5.09227e-240
2.69948e-242
1.13593e-244
3.55823e-247
7.38398e-250
7.65606e-253
7.63685e-253
7.61266e-250
3.72507e-247
1.20058e-244
2.87225e-242
5.44523e-240
8.52592e-238
1.13451e-235
1.31016e-233
1.33429e-231
1.21369e-229
9.96241e-228
7.44265e-226
5.09704e-224
3.2196e-222
1.88575e-220
1.02891e-218
5.2512e-217
2.51592e-215
1.13527e-213
4.83873e-212
1.95314e-210
7.48407e-209
2.72829e-207
9.481e-206
3.14643e-204
9.98877e-203
3.03814e-201
8.86597e-200
2.48569e-198
6.70356e-197
1.74102e-195
4.35926e-194
1.05335e-192
2.45863e-191
5.54838e-190
1.2116e-188
2.56224e-187
5.25139e-186
1.04383e-184
2.01364e-183
3.77233e-182
6.86738e-181
1.21565e-179
2.0939e-178
3.51175e-177
5.73773e-176
9.02497e-175
1.27154e-173
1.60042e-172
1.79604e-171
1.79468e-170
1.59576e-169
1.26276e-168
8.90152e-168
5.59963e-167
3.15069e-166
1.58977e-165
7.21433e-165
2.95578e-164
1.10008e-163
3.75153e-163
1.18231e-162
3.4587e-162
9.38784e-162
2.36097e-161
5.51581e-161
1.20661e-160
2.49599e-160
4.92634e-160
9.33564e-160
1.70479e-159
3.00157e-159
5.08263e-159
8.26122e-159
1.29078e-158
1.94375e-158
2.83014e-158
3.9978e-158
5.49611e-158
7.37492e-158
9.6681e-158
1.24119e-157
1.5644e-157
1.93837e-157
2.35878e-157
2.82173e-157
3.32138e-157
3.84974e-157
4.39684e-157
4.95088e-157
5.49869e-157
6.02624e-157
6.51668e-157
6.93236e-157
7.11968e-157
6.48776e-157
3.62855e-157
2.07283e-158
6.40179e-167
1.0309e-164
1.34636e-156
1.94276e-155
3.3186e-155
3.60482e-155
3.51274e-155
3.31629e-155
3.08427e-155
2.83292e-155
2.56965e-155
2.30089e-155
2.03288e-155
1.77135e-155
1.52126e-155
1.28675e-155
1.07102e-155
8.76417e-156
7.0594e-156
5.59011e-156
4.3404e-156
3.29649e-156
2.44733e-156
1.77079e-156
1.24471e-156
8.46988e-157
5.56095e-157
3.51327e-157
2.13284e-157
1.24706e-157
7.04337e-158
3.84175e-158
2.0169e-158
1.0128e-158
4.81929e-159
2.15018e-159
8.91963e-160
3.43259e-160
1.22816e-160
4.08902e-161
1.26073e-161
3.56589e-162
9.16766e-163
2.12919e-163
4.45032e-164
8.34629e-165
1.40045e-165
2.09682e-166
2.79563e-167
3.31492e-168
3.49442e-169
3.27621e-170
2.73504e-171
2.03665e-172
1.35592e-173
8.62092e-175
5.33258e-176
3.20822e-177
1.87652e-178
1.0665e-179
5.88604e-181
3.15246e-182
1.63738e-183
8.24193e-185
4.01774e-186
1.89536e-187
8.64623e-189
3.81096e-190
1.6216e-191
6.65507e-193
2.63172e-194
1.00173e-195
3.66608e-197
1.28844e-198
4.34288e-200
1.40194e-201
4.32773e-203
1.27541e-204
3.58196e-206
9.56791e-208
2.42552e-209
5.82181e-211
1.3196e-212
2.81647e-214
5.64219e-216
1.05707e-217
1.84466e-219
2.98454e-221
4.45347e-223
6.09157e-225
7.58347e-227
8.51988e-229
8.55037e-231
7.56923e-233
5.81736e-235
3.80185e-237
2.05395e-239
8.80643e-242
2.81018e-244
5.93959e-247
6.27111e-250
6.32713e-250
6.1925e-247
2.97465e-244
9.40998e-242
2.20917e-239
4.10915e-237
6.31123e-235
8.23621e-233
9.32589e-231
9.31044e-229
8.29996e-227
6.67541e-225
4.88516e-223
3.27638e-221
2.02624e-219
1.16162e-217
6.202e-216
3.09639e-214
1.45081e-212
6.40019e-211
2.66603e-209
1.05138e-207
3.93469e-206
1.40039e-204
4.74931e-203
1.53758e-201
4.75982e-200
1.41107e-198
4.01166e-197
1.09517e-195
2.87437e-194
7.261e-193
1.76725e-191
4.14828e-190
9.39957e-189
2.05773e-187
4.35575e-186
8.92199e-185
1.76971e-183
3.40161e-182
6.3402e-181
1.14669e-179
2.01375e-178
3.43601e-177
5.69964e-176
9.19563e-175
1.44336e-173
2.16652e-172
2.90547e-171
3.47303e-170
3.69391e-169
3.49202e-168
2.9332e-167
2.19034e-166
1.45616e-165
8.63787e-165
4.58472e-164
2.1838e-163
9.36308e-163
3.62762e-162
1.27819e-161
4.13441e-161
1.23911e-160
3.4564e-160
8.96364e-160
2.15666e-159
4.82608e-159
1.01304e-158
2.01562e-158
3.83665e-158
7.02992e-158
1.24407e-157
2.12684e-157
3.50201e-157
5.54121e-157
8.43777e-157
1.23981e-156
1.7637e-156
2.43749e-156
3.2833e-156
4.32332e-156
5.5688e-156
7.03348e-156
8.73339e-156
1.06748e-155
1.28284e-155
1.51712e-155
1.76718e-155
2.02898e-155
2.29763e-155
2.5675e-155
2.83246e-155
3.08607e-155
3.32075e-155
3.51931e-155
3.60997e-155
3.3133e-155
1.92309e-155
1.30145e-156
9.37804e-165
1.15584e-162
6.44393e-155
7.8731e-154
1.29884e-153
1.4018e-153
1.36774e-153
1.29587e-153
1.21093e-153
1.1186e-153
1.02138e-153
9.21485e-154
8.21095e-154
7.22261e-154
6.2681e-154
5.36309e-154
4.52031e-154
3.74984e-154
3.06615e-154
2.46813e-154
1.95056e-154
1.50985e-154
1.14428e-154
8.4649e-155
6.09245e-155
4.25082e-155
2.86538e-155
1.86078e-155
1.16248e-155
7.00445e-156
4.08457e-156
2.3054e-156
1.25567e-156
6.5596e-157
3.25529e-157
1.51762e-157
6.58678e-158
2.65572e-158
9.97629e-159
3.49716e-159
1.13836e-159
3.40571e-160
9.27232e-161
2.28276e-161
5.06289e-162
1.00843e-162
1.79796e-163
2.8604e-164
4.05015e-165
5.09527e-166
5.69077e-167
5.6431e-168
4.97251e-169
3.89942e-170
2.72706e-171
1.81086e-172
1.16826e-173
7.3209e-175
4.45486e-176
2.63126e-177
1.50774e-178
8.37647e-180
4.50908e-181
2.35028e-182
1.18539e-183
5.78098e-185
2.72411e-186
1.23935e-187
5.43941e-189
2.30102e-190
9.37321e-192
3.673e-193
1.38308e-194
4.99866e-196
1.73178e-197
5.7433e-199
1.8206e-200
5.5073e-202
1.58695e-203
4.34754e-205
1.12993e-206
2.77948e-208
6.45441e-210
1.41084e-211
2.8936e-213
5.54852e-215
9.90686e-217
1.63953e-218
2.50171e-220
3.49821e-222
4.4509e-224
5.10936e-226
5.23799e-228
4.7356e-230
3.71615e-232
2.47919e-234
1.36697e-236
5.98042e-239
1.94688e-241
4.19709e-244
4.51881e-247
4.61713e-247
4.43036e-244
2.08618e-241
6.46799e-239
1.48796e-236
2.71148e-234
4.07915e-232
5.21302e-230
5.77911e-228
5.64736e-226
4.92663e-224
3.87651e-222
2.77469e-220
1.81964e-218
1.10005e-216
6.16302e-215
3.21463e-213
1.56744e-211
7.17028e-210
3.08721e-208
1.25467e-206
4.82571e-205
1.76068e-203
6.10683e-202
2.01751e-200
6.35998e-199
1.91621e-197
5.52621e-196
1.5276e-194
4.05267e-193
1.03307e-191
2.5331e-190
5.98054e-189
1.36083e-187
2.98691e-186
6.32924e-185
1.29576e-183
2.56486e-182
4.91213e-181
9.10831e-180
1.63628e-178
2.84977e-177
4.81464e-176
7.89521e-175
1.2572e-173
1.94453e-172
2.92195e-171
4.17425e-170
5.31387e-169
6.01528e-168
6.04607e-167
5.39175e-166
4.26628e-165
2.99813e-164
1.87484e-163
1.04615e-162
5.2261e-162
2.34514e-161
9.4827e-161
3.46842e-160
1.15514e-159
3.53866e-159
1.00724e-158
2.67593e-158
6.62325e-158
1.52299e-157
3.2614e-157
6.56407e-157
1.25543e-156
2.30336e-156
4.07855e-156
6.9907e-156
1.1597e-155
1.85559e-155
2.85637e-155
4.23641e-155
6.07087e-155
8.43429e-155
1.14011e-154
1.50436e-154
1.94357e-154
2.45954e-154
3.05583e-154
3.73771e-154
4.50648e-154
5.34792e-154
6.25204e-154
7.20634e-154
8.19538e-154
9.2011e-154
1.02031e-153
1.11799e-153
1.2109e-153
1.29649e-153
1.36877e-153
1.40214e-153
1.29584e-153
7.79965e-154
6.25441e-155
1.0613e-162
1.03204e-160
2.41274e-153
2.49053e-152
3.9681e-152
4.25576e-152
4.15849e-152
3.95486e-152
3.71382e-152
3.45075e-152
3.17219e-152
2.88398e-152
2.592e-152
2.30193e-152
2.01893e-152
1.74757e-152
1.49171e-152
1.25459e-152
1.0415e-152
8.52342e-153
6.85727e-153
5.41067e-153
4.18721e-153
3.16798e-153
2.33575e-153
1.67202e-153
1.158e-153
7.73634e-154
4.97791e-154
3.09354e-154
1.86394e-154
1.08938e-154
6.15988e-155
3.35009e-155
1.73545e-155
8.46335e-156
3.84796e-156
1.6276e-156
6.42827e-157
2.37619e-157
8.17974e-158
2.5932e-158
7.49078e-159
1.95886e-159
4.62052e-160
9.79888e-161
1.86146e-161
3.15582e-162
4.75994e-163
6.3734e-164
7.56649e-165
7.96237e-166
7.43083e-167
6.15757e-168
4.5389e-169
3.15939e-170
2.13343e-171
1.39734e-172
8.87529e-174
5.46488e-175
3.26071e-176
1.88432e-177
1.05404e-178
5.70361e-180
2.98371e-181
1.50794e-182
7.35754e-184
3.46322e-185
1.57141e-186
6.86748e-188
2.88812e-189
1.16767e-190
4.53377e-192
1.68862e-193
6.02561e-195
2.05721e-196
6.71005e-198
2.08757e-199
6.18389e-201
1.7408e-202
4.64713e-204
1.17369e-205
2.79728e-207
6.27321e-209
1.31956e-210
2.59418e-212
4.74737e-214
8.04996e-216
1.25818e-217
1.8016e-219
2.34665e-221
2.75703e-223
2.89204e-225
2.67469e-227
2.14658e-229
1.46427e-231
8.25342e-234
3.69042e-236
1.22762e-238
2.70368e-241
2.97312e-244
3.08063e-244
2.89336e-241
1.33337e-238
4.04503e-236
9.10359e-234
1.62258e-231
2.38702e-229
2.98238e-227
3.23163e-225
3.08595e-223
2.63006e-221
2.02123e-219
1.41263e-217
9.0431e-216
5.33497e-214
2.91585e-212
1.48325e-210
7.05085e-209
3.14342e-207
1.31852e-205
5.21843e-204
1.95383e-202
6.93654e-201
2.34007e-199
7.51595e-198
2.30236e-196
6.73748e-195
1.88624e-193
5.0589e-192
1.30142e-190
3.21497e-189
7.63463e-188
1.74451e-186
3.83902e-185
8.14312e-184
1.66618e-182
3.29101e-181
6.27934e-180
1.15815e-178
2.06616e-177
3.56764e-176
5.96588e-175
9.66672e-174
1.51843e-172
2.31293e-171
3.41724e-170
4.89757e-169
6.63613e-168
7.9915e-167
8.53744e-166
8.08174e-165
6.77613e-164
5.03451e-163
3.31929e-162
1.94668e-161
1.01896e-160
4.77876e-160
2.0156e-159
7.67066e-159
2.64365e-158
8.30706e-158
2.40607e-157
6.49449e-157
1.641e-156
3.87141e-156
8.49736e-156
1.73945e-155
3.35376e-155
6.16128e-155
1.08887e-154
1.86195e-154
3.08871e-154
4.96798e-154
7.71777e-154
1.15481e-153
1.66698e-153
2.32835e-153
3.15768e-153
4.17344e-153
5.39283e-153
6.83488e-153
8.49631e-153
1.03828e-152
1.25085e-152
1.48746e-152
1.74294e-152
2.01403e-152
2.29693e-152
2.58711e-152
2.87945e-152
3.16831e-152
3.44779e-152
3.712e-152
3.95423e-152
4.15838e-152
4.25354e-152
3.95759e-152
2.46949e-152
2.35011e-153
9.54996e-161
7.47026e-159
7.14615e-152
6.21269e-151
9.55737e-151
1.01864e-150
9.96991e-151
9.51926e-151
8.98469e-151
8.39868e-151
7.77435e-151
7.12362e-151
6.45883e-151
5.79212e-151
5.13481e-151
4.49718e-151
3.88821e-151
3.31598e-151
2.79518e-151
2.32603e-151
1.90536e-151
1.53283e-151
1.21166e-151
9.37951e-152
7.08832e-152
5.20961e-152
3.71046e-152
2.55284e-152
1.69372e-152
1.08677e-152
6.77234e-153
4.10209e-153
2.40995e-153
1.36566e-153
7.39246e-154
3.77604e-154
1.80114e-154
8.00499e-155
3.3295e-155
1.30006e-155
4.7417e-156
1.59614e-156
4.90218e-157
1.36477e-157
3.43232e-158
7.77169e-159
1.57772e-159
2.85933e-160
4.60922e-161
6.59114e-162
8.34734e-163
9.35594e-164
9.28202e-165
8.15833e-166
6.36254e-167
4.66017e-168
3.30591e-169
2.27116e-170
1.5108e-171
9.72896e-173
6.06299e-174
3.65499e-175
2.13036e-176
1.19992e-177
6.52732e-179
3.42713e-180
1.73564e-181
8.47276e-183
3.98387e-184
1.80283e-185
7.84519e-187
3.27977e-188
1.31593e-189
5.06162e-191
1.86417e-192
6.56516e-194
2.2077e-195
7.07752e-197
2.15931e-198
6.25765e-200
1.71895e-201
4.46543e-203
1.09422e-204
2.52201e-206
5.45025e-208
1.10044e-209
2.06754e-211
3.59825e-213
5.7704e-215
8.4754e-217
1.13206e-218
1.36352e-220
1.46593e-222
1.3892e-224
1.14213e-226
7.97931e-229
4.60526e-231
2.10803e-233
7.1771e-236
1.61745e-238
1.81957e-241
1.91491e-241
1.7575e-238
7.91336e-236
2.34515e-233
5.15482e-231
8.9715e-229
1.28848e-226
1.57126e-224
1.66136e-222
1.54769e-220
1.28647e-218
9.63994e-217
6.56737e-215
4.0969e-213
2.35458e-211
1.25329e-209
6.20674e-208
2.87143e-206
1.24539e-204
5.08009e-203
1.95448e-201
7.11046e-200
2.45177e-198
8.02949e-197
2.50237e-195
7.43409e-194
2.10865e-192
5.71886e-191
1.48498e-189
3.69626e-188
8.82915e-187
2.02596e-185
4.46993e-184
9.49076e-183
1.94077e-181
3.82505e-180
7.27085e-179
1.33383e-177
2.3629e-176
4.04462e-175
6.69327e-174
1.07139e-172
1.65959e-171
2.48856e-170
3.61319e-169
5.08027e-168
6.91774e-167
8.85643e-166
1.00505e-164
1.00945e-163
8.966e-163
7.04236e-162
4.89586e-161
3.01818e-160
1.65479e-159
8.10074e-159
3.55665e-158
1.40647e-157
5.02611e-157
1.62875e-156
4.8191e-156
1.31725e-155
3.36584e-155
8.07552e-155
1.81303e-154
3.79285e-154
7.4124e-154
1.36769e-153
2.41143e-153
4.10176e-153
6.76774e-153
1.08549e-152
1.69098e-152
2.54766e-152
3.70157e-152
5.1958e-152
7.06837e-152
9.35227e-152
1.20808e-151
1.52827e-151
1.89971e-151
2.3193e-151
2.78728e-151
3.30684e-151
3.87792e-151
4.48599e-151
5.12298e-151
5.77997e-151
6.44676e-151
7.11206e-151
7.76376e-151
8.3895e-151
8.97721e-151
9.51342e-151
9.96435e-151
1.01762e-150
9.53107e-151
6.16569e-151
6.98243e-152
6.95863e-159
4.43181e-157
1.68003e-150
1.22503e-149
1.81849e-149
1.92608e-149
1.88854e-149
1.81069e-149
1.71811e-149
1.61612e-149
1.50673e-149
1.39182e-149
1.27336e-149
1.15337e-149
1.03375e-149
9.16298e-150
8.02619e-150
6.94245e-150
5.94355e-150
5.03033e-150
4.1964e-150
3.44293e-150
2.78088e-150
2.20359e-150
1.70805e-150
1.28999e-150
9.45902e-151
6.71105e-151
4.59773e-151
3.05032e-151
1.96845e-151
1.23704e-151
7.55824e-152
4.46723e-152
2.52982e-152
1.35554e-152
6.79568e-153
3.1797e-153
1.39549e-153
5.76727e-154
2.23346e-154
8.00095e-155
2.61894e-155
7.78207e-156
2.0926e-156
5.07442e-157
1.10447e-157
2.14708e-158
3.71222e-159
5.69037e-160
7.71726e-161
9.24948e-162
9.79483e-163
9.16917e-164
7.59702e-165
5.87863e-166
4.3979e-167
3.18075e-168
2.22378e-169
1.50269e-170
9.81208e-172
6.18913e-173
3.76973e-174
2.21621e-175
1.25695e-176
6.87382e-178
3.6224e-179
1.83839e-180
8.9788e-182
4.2171e-183
1.90312e-184
8.24486e-186
3.42562e-187
1.36353e-188
5.19339e-190
1.89031e-191
6.56591e-193
2.17302e-194
6.84067e-196
2.04448e-197
5.78922e-199
1.54958e-200
3.91082e-202
9.2801e-204
2.06396e-205
4.28723e-207
8.28399e-209
1.48222e-210
2.44303e-212
3.68685e-214
5.05838e-216
6.25654e-218
6.90556e-220
6.71664e-222
5.66628e-224
4.06105e-226
2.40389e-228
1.1283e-230
3.9381e-233
9.09612e-236
1.04849e-238
1.12274e-238
1.00531e-235
4.41549e-233
1.27619e-230
2.73522e-228
4.64071e-226
6.49588e-224
7.71874e-222
7.95053e-220
7.21334e-218
5.83795e-216
4.25815e-214
2.82294e-212
1.71317e-210
9.57541e-209
4.95511e-207
2.38492e-205
1.07192e-203
4.51502e-202
1.78789e-200
6.67475e-199
2.35529e-197
7.87343e-196
2.49859e-194
7.54143e-193
2.16862e-191
5.95055e-190
1.56025e-188
3.91427e-187
9.40683e-186
2.16789e-184
4.79576e-183
1.01928e-181
2.08306e-180
4.09642e-179
7.75711e-178
1.41534e-176
2.48969e-175
4.22459e-174
6.91831e-173
1.09393e-171
1.67082e-170
2.46582e-169
3.51719e-168
4.84948e-167
6.46377e-166
8.32851e-165
1.00322e-163
1.06836e-162
1.00464e-161
8.33866e-161
6.1115e-160
3.96048e-159
2.27466e-158
1.16186e-157
5.30171e-157
2.17244e-156
8.03174e-156
2.68828e-155
8.17166e-155
2.27145e-154
5.84685e-154
1.41148e-153
3.20936e-153
6.84363e-153
1.3621e-152
2.53753e-152
4.47541e-152
7.56563e-152
1.23739e-151
1.96783e-151
3.04783e-151
4.59194e-151
6.69982e-151
9.4397e-151
1.28702e-150
1.70383e-150
2.19793e-150
2.77358e-150
3.43376e-150
4.18519e-150
5.01714e-150
5.92824e-150
6.92487e-150
8.00652e-150
9.1417e-150
1.0315e-149
1.15105e-149
1.27103e-149
1.38954e-149
1.50456e-149
1.6141e-149
1.71628e-149
1.80903e-149
1.88684e-149
1.92363e-149
1.81356e-149
1.21681e-149
1.64615e-150
4.15251e-157
2.16789e-155
3.1237e-149
1.89985e-148
2.71819e-148
2.86078e-148
2.8106e-148
2.70671e-148
2.58276e-148
2.44548e-148
2.29716e-148
2.13997e-148
1.97632e-148
1.80872e-148
1.63963e-148
1.47142e-148
1.30627e-148
1.14639e-148
9.97099e-149
8.58548e-149
7.29622e-149
6.10701e-149
5.04252e-149
4.09248e-149
3.25619e-149
2.5297e-149
1.91236e-149
1.40153e-149
9.9339e-150
6.82744e-150
4.57048e-150
2.98429e-150
1.89867e-150
1.17184e-150
6.95236e-151
3.91492e-151
2.06741e-151
1.02089e-151
4.73897e-152
2.07783e-152
8.56474e-153
3.27371e-153
1.14522e-153
3.64279e-154
1.05068e-154
2.738e-155
6.41245e-156
1.34217e-156
2.49864e-157
4.12229e-158
6.01195e-159
7.73861e-160
8.78595e-161
8.79928e-162
7.78048e-163
6.38812e-164
5.0606e-165