/*--------------------------------*- C++ -*----------------------------------*\
| =========                 |                                                 |
| \\      /  F ield         | OpenFOAM: The Open Source CFD Toolbox           |
|  \\    /   O peration     | Version:  2412                                  |
|   \\  /    A nd           | Website:  www.openfoam.com                      |
|    \\/     M anipulation  |                                                 |
\*---------------------------------------------------------------------------*/
FoamFile
{
    version     2.0;
    format      ascii;
    arch        "LSB;label=32;scalar=64";
    class       volScalarField;
    location    "1.4";
    object      p;
}
// * * * * * * * * * * * * * * * * * * * * * * * * * * * * * * * * * * * * * //

dimensions      [1 -1 -2 0 0 0 0];

internalField   nonuniform List<scalar> 
40000
(
0
0.000112926
0.000292133
0.000535757
0.000841581
0.00119712
0.00159999
0.00205738
0.00257405
0.00314804
0.00377523
0.0044538
0.00518438
0.00596789
0.0068042
0.00769229
0.00863104
0.00961961
0.0106574
0.0117438
0.0128781
0.0140594
0.0152868
0.0165594
0.0178761
0.019236
0.0206382
0.0220815
0.0235646
0.0250866
0.0266461
0.028242
0.029873
0.0315377
0.0332348
0.0349628
0.0367205
0.0385062
0.0403185
0.0421558
0.0440166
0.0458993
0.0478022
0.0497236
0.0516619
0.0536153
0.0555821
0.0575605
0.0595487
0.0615447
0.0635468
0.0655531
0.0675615
0.0695701
0.071577
0.0735803
0.075578
0.0775682
0.0795489
0.0815181
0.0834737
0.0854137
0.0873359
0.0892383
0.0911189
0.0929756
0.0948066
0.0966098
0.0983833
0.100125
0.101833
0.103505
0.105139
0.106734
0.108288
0.109798
0.111263
0.112681
0.114051
0.11537
0.116638
0.117852
0.119012
0.120115
0.12116
0.122146
0.123072
0.123936
0.124738
0.125475
0.126148
0.126756
0.127297
0.127771
0.128177
0.128515
0.128784
0.128984
0.129115
0.129176
0.129167
0.129089
0.128941
0.128724
0.128437
0.128082
0.127659
0.127168
0.12661
0.125986
0.125296
0.124542
0.123725
0.122844
0.121902
0.1209
0.119838
0.11872
0.117545
0.116315
0.115032
0.113697
0.112312
0.110879
0.1094
0.107875
0.106308
0.104699
0.103051
0.101365
0.0996438
0.0978891
0.0961028
0.094287
0.0924436
0.0905746
0.088682
0.0867678
0.0848342
0.0828831
0.0809166
0.0789367
0.0769455
0.0749448
0.0729366
0.070923
0.068906
0.0668877
0.0648701
0.0628549
0.0608441
0.0588396
0.056843
0.0548565
0.0528818
0.0509206
0.0489747
0.0470458
0.0451358
0.0432463
0.0413787
0.0395349
0.0377164
0.0359247
0.0341613
0.0324276
0.0307251
0.0290553
0.0274195
0.0258191
0.0242551
0.0227289
0.0212416
0.0197945
0.0183888
0.0170253
0.0157052
0.0144294
0.013199
0.0120147
0.0108778
0.00978873
0.00874831
0.00775744
0.00681692
0.0059274
0.00508936
0.00430337
0.0035702
0.0028904
0.00226426
0.00169214
0.00117457
0.000711893
0.000304177
-4.86678e-05
-0.000346637
-0.00058869
-0.000770228
-0.000881233
-3.92411
-3.92399
-3.92382
-3.92359
-3.92329
-3.92293
-3.92252
-3.92206
-3.92155
-3.92097
-3.92035
-3.91967
-3.91893
-3.91815
-3.91731
-3.91642
-3.91548
-3.91449
-3.91345
-3.91236
-3.91123
-3.91004
-3.90882
-3.90754
-3.90622
-3.90486
-3.90345
-3.90201
-3.90052
-3.899
-3.89744
-3.89584
-3.8942
-3.89254
-3.89084
-3.8891
-3.88734
-3.88555
-3.88374
-3.8819
-3.88003
-3.87815
-3.87624
-3.87431
-3.87237
-3.87042
-3.86844
-3.86646
-3.86447
-3.86247
-3.86046
-3.85845
-3.85644
-3.85443
-3.85242
-3.85041
-3.84841
-3.84641
-3.84443
-3.84245
-3.84049
-3.83855
-3.83662
-3.83471
-3.83283
-3.83097
-3.82913
-3.82733
-3.82555
-3.8238
-3.82209
-3.82041
-3.81878
-3.81718
-3.81562
-3.81411
-3.81264
-3.81121
-3.80984
-3.80852
-3.80725
-3.80603
-3.80487
-3.80376
-3.80271
-3.80173
-3.8008
-3.79993
-3.79913
-3.79839
-3.79771
-3.7971
-3.79656
-3.79609
-3.79568
-3.79534
-3.79507
-3.79487
-3.79474
-3.79468
-3.79469
-3.79477
-3.79491
-3.79513
-3.79542
-3.79577
-3.7962
-3.79669
-3.79725
-3.79788
-3.79857
-3.79932
-3.80014
-3.80103
-3.80197
-3.80297
-3.80404
-3.80516
-3.80634
-3.80757
-3.80886
-3.8102
-3.81158
-3.81302
-3.8145
-3.81603
-3.8176
-3.81922
-3.82087
-3.82256
-3.82428
-3.82604
-3.82783
-3.82965
-3.8315
-3.83337
-3.83527
-3.83719
-3.83913
-3.84108
-3.84305
-3.84504
-3.84703
-3.84904
-3.85105
-3.85307
-3.85509
-3.85711
-3.85914
-3.86115
-3.86317
-3.86518
-3.86718
-3.86917
-3.87115
-3.87311
-3.87506
-3.877
-3.87891
-3.8808
-3.88267
-3.88452
-3.88634
-3.88814
-3.88991
-3.89164
-3.89335
-3.89502
-3.89666
-3.89826
-3.89983
-3.90136
-3.90285
-3.9043
-3.90571
-3.90707
-3.90839
-3.90967
-3.91091
-3.91209
-3.91323
-3.91432
-3.91536
-3.91636
-3.9173
-3.91819
-3.91903
-3.91982
-3.92055
-3.92123
-3.92186
-3.92243
-3.92295
-3.92341
-3.92382
-3.92417
-3.92447
-3.92471
-3.92488
-3.92499
-7.8483
-7.84817
-7.84799
-7.84776
-7.84747
-7.84711
-7.8467
-7.84624
-7.84572
-7.84515
-7.84452
-7.84384
-7.8431
-7.84232
-7.84148
-7.84059
-7.83964
-7.83865
-7.83761
-7.83652
-7.83538
-7.83419
-7.83296
-7.83168
-7.83036
-7.829
-7.82759
-7.82614
-7.82465
-7.82312
-7.82155
-7.81995
-7.81831
-7.81664
-7.81494
-7.8132
-7.81143
-7.80964
-7.80782
-7.80597
-7.8041
-7.80221
-7.8003
-7.79837
-7.79642
-7.79446
-7.79248
-7.79049
-7.7885
-7.78649
-7.78448
-7.78246
-7.78044
-7.77842
-7.77641
-7.77439
-7.77238
-7.77038
-7.76839
-7.76641
-7.76445
-7.7625
-7.76056
-7.75865
-7.75676
-7.75489
-7.75305
-7.75124
-7.74945
-7.7477
-7.74598
-7.7443
-7.74266
-7.74105
-7.73949
-7.73797
-7.7365
-7.73507
-7.73369
-7.73237
-7.73109
-7.72987
-7.7287
-7.72759
-7.72654
-7.72555
-7.72462
-7.72375
-7.72294
-7.7222
-7.72152
-7.72091
-7.72037
-7.71989
-7.71948
-7.71914
-7.71887
-7.71867
-7.71854
-7.71848
-7.71849
-7.71856
-7.71871
-7.71893
-7.71922
-7.71958
-7.72
-7.7205
-7.72106
-7.72169
-7.72238
-7.72314
-7.72396
-7.72485
-7.72579
-7.7268
-7.72787
-7.729
-7.73018
-7.73142
-7.73271
-7.73405
-7.73544
-7.73688
-7.73837
-7.73991
-7.74148
-7.7431
-7.74476
-7.74645
-7.74818
-7.74995
-7.75175
-7.75357
-7.75542
-7.7573
-7.75921
-7.76113
-7.76308
-7.76504
-7.76701
-7.76901
-7.77101
-7.77302
-7.77504
-7.77706
-7.77909
-7.78112
-7.78315
-7.78517
-7.78719
-7.78921
-7.79121
-7.79321
-7.79519
-7.79716
-7.79912
-7.80106
-7.80298
-7.80487
-7.80675
-7.8086
-7.81043
-7.81223
-7.814
-7.81574
-7.81745
-7.81913
-7.82077
-7.82238
-7.82395
-7.82548
-7.82698
-7.82843
-7.82984
-7.83121
-7.83254
-7.83382
-7.83505
-7.83624
-7.83739
-7.83848
-7.83952
-7.84052
-7.84146
-7.84236
-7.8432
-7.84399
-7.84472
-7.8454
-7.84603
-7.84661
-7.84713
-7.84759
-7.848
-7.84835
-7.84864
-7.84888
-7.84906
-7.84918
-11.7725
-11.7724
-11.7722
-11.772
-11.7717
-11.7714
-11.7709
-11.7705
-11.77
-11.7694
-11.7688
-11.7681
-11.7673
-11.7665
-11.7657
-11.7648
-11.7639
-11.7629
-11.7618
-11.7607
-11.7596
-11.7584
-11.7572
-11.7559
-11.7545
-11.7532
-11.7518
-11.7503
-11.7488
-11.7473
-11.7457
-11.7441
-11.7425
-11.7408
-11.7391
-11.7373
-11.7356
-11.7338
-11.7319
-11.7301
-11.7282
-11.7263
-11.7244
-11.7224
-11.7205
-11.7185
-11.7165
-11.7145
-11.7125
-11.7105
-11.7085
-11.7065
-11.7044
-11.7024
-11.7004
-11.6984
-11.6964
-11.6943
-11.6923
-11.6904
-11.6884
-11.6864
-11.6845
-11.6826
-11.6807
-11.6788
-11.6769
-11.6751
-11.6733
-11.6716
-11.6698
-11.6682
-11.6665
-11.6649
-11.6633
-11.6618
-11.6603
-11.6589
-11.6575
-11.6562
-11.6549
-11.6537
-11.6525
-11.6514
-11.6503
-11.6493
-11.6484
-11.6475
-11.6467
-11.646
-11.6453
-11.6447
-11.6441
-11.6436
-11.6432
-11.6429
-11.6426
-11.6424
-11.6423
-11.6422
-11.6422
-11.6423
-11.6425
-11.6427
-11.643
-11.6433
-11.6437
-11.6442
-11.6448
-11.6454
-11.6461
-11.6469
-11.6477
-11.6486
-11.6496
-11.6506
-11.6517
-11.6528
-11.654
-11.6552
-11.6565
-11.6579
-11.6593
-11.6607
-11.6622
-11.6637
-11.6653
-11.667
-11.6686
-11.6703
-11.6721
-11.6738
-11.6756
-11.6775
-11.6793
-11.6812
-11.6831
-11.6851
-11.687
-11.689
-11.691
-11.693
-11.695
-11.697
-11.699
-11.7011
-11.7031
-11.7051
-11.7072
-11.7092
-11.7112
-11.7132
-11.7153
-11.7173
-11.7193
-11.7212
-11.7232
-11.7251
-11.7271
-11.729
-11.7309
-11.7327
-11.7345
-11.7364
-11.7381
-11.7399
-11.7416
-11.7433
-11.7449
-11.7465
-11.7481
-11.7497
-11.7512
-11.7526
-11.754
-11.7554
-11.7567
-11.758
-11.7593
-11.7604
-11.7616
-11.7627
-11.7637
-11.7647
-11.7657
-11.7666
-11.7674
-11.7682
-11.769
-11.7696
-11.7703
-11.7708
-11.7714
-11.7718
-11.7722
-11.7726
-11.7729
-11.7731
-11.7733
-11.7734
-15.6968
-15.6967
-15.6965
-15.6963
-15.696
-15.6957
-15.6952
-15.6948
-15.6943
-15.6937
-15.693
-15.6924
-15.6916
-15.6908
-15.69
-15.6891
-15.6881
-15.6871
-15.6861
-15.685
-15.6838
-15.6826
-15.6814
-15.6801
-15.6788
-15.6774
-15.676
-15.6745
-15.673
-15.6715
-15.6699
-15.6683
-15.6666
-15.665
-15.6632
-15.6615
-15.6597
-15.6579
-15.6561
-15.6542
-15.6523
-15.6504
-15.6485
-15.6465
-15.6446
-15.6426
-15.6406
-15.6386
-15.6366
-15.6346
-15.6325
-15.6305
-15.6285
-15.6264
-15.6244
-15.6224
-15.6203
-15.6183
-15.6163
-15.6143
-15.6123
-15.6103
-15.6084
-15.6065
-15.6046
-15.6027
-15.6008
-15.599
-15.5972
-15.5954
-15.5937
-15.592
-15.5903
-15.5887
-15.5871
-15.5856
-15.5841
-15.5827
-15.5813
-15.5799
-15.5786
-15.5774
-15.5762
-15.5751
-15.574
-15.573
-15.5721
-15.5712
-15.5704
-15.5697
-15.569
-15.5684
-15.5678
-15.5673
-15.5669
-15.5666
-15.5663
-15.5661
-15.566
-15.5659
-15.5659
-15.566
-15.5661
-15.5664
-15.5666
-15.567
-15.5674
-15.5679
-15.5685
-15.5691
-15.5698
-15.5706
-15.5714
-15.5723
-15.5733
-15.5743
-15.5754
-15.5765
-15.5777
-15.579
-15.5803
-15.5816
-15.583
-15.5845
-15.586
-15.5875
-15.5891
-15.5908
-15.5924
-15.5942
-15.5959
-15.5977
-15.5995
-15.6013
-15.6032
-15.6051
-15.607
-15.609
-15.6109
-15.6129
-15.6149
-15.6169
-15.6189
-15.621
-15.623
-15.625
-15.6271
-15.6291
-15.6312
-15.6332
-15.6353
-15.6373
-15.6393
-15.6413
-15.6433
-15.6453
-15.6473
-15.6492
-15.6512
-15.6531
-15.655
-15.6569
-15.6587
-15.6605
-15.6623
-15.664
-15.6658
-15.6675
-15.6691
-15.6707
-15.6723
-15.6739
-15.6754
-15.6768
-15.6783
-15.6796
-15.681
-15.6823
-15.6835
-15.6847
-15.6859
-15.687
-15.688
-15.689
-15.69
-15.6909
-15.6917
-15.6925
-15.6932
-15.6939
-15.6946
-15.6951
-15.6957
-15.6961
-15.6965
-15.6969
-15.6972
-15.6974
-15.6976
-15.6977
-19.6212
-19.6211
-19.6209
-19.6207
-19.6204
-19.62
-19.6196
-19.6191
-19.6186
-19.618
-19.6174
-19.6167
-19.616
-19.6152
-19.6143
-19.6134
-19.6125
-19.6115
-19.6104
-19.6093
-19.6082
-19.607
-19.6057
-19.6044
-19.6031
-19.6017
-19.6003
-19.5988
-19.5973
-19.5957
-19.5941
-19.5925
-19.5909
-19.5892
-19.5874
-19.5857
-19.5839
-19.5821
-19.5802
-19.5784
-19.5765
-19.5745
-19.5726
-19.5706
-19.5687
-19.5667
-19.5647
-19.5627
-19.5606
-19.5586
-19.5566
-19.5545
-19.5525
-19.5504
-19.5484
-19.5463
-19.5443
-19.5423
-19.5402
-19.5382
-19.5362
-19.5342
-19.5323
-19.5303
-19.5284
-19.5265
-19.5247
-19.5228
-19.521
-19.5192
-19.5175
-19.5158
-19.5141
-19.5125
-19.5109
-19.5093
-19.5078
-19.5064
-19.505
-19.5036
-19.5023
-19.5011
-19.4999
-19.4988
-19.4977
-19.4967
-19.4958
-19.4949
-19.4941
-19.4933
-19.4926
-19.492
-19.4914
-19.491
-19.4905
-19.4902
-19.4899
-19.4897
-19.4896
-19.4895
-19.4895
-19.4896
-19.4898
-19.49
-19.4903
-19.4906
-19.4911
-19.4916
-19.4921
-19.4928
-19.4935
-19.4943
-19.4951
-19.496
-19.497
-19.498
-19.4991
-19.5002
-19.5014
-19.5027
-19.504
-19.5053
-19.5068
-19.5082
-19.5097
-19.5113
-19.5129
-19.5145
-19.5162
-19.518
-19.5197
-19.5215
-19.5233
-19.5252
-19.5271
-19.529
-19.5309
-19.5329
-19.5348
-19.5368
-19.5388
-19.5408
-19.5429
-19.5449
-19.547
-19.549
-19.5511
-19.5531
-19.5552
-19.5573
-19.5593
-19.5613
-19.5634
-19.5654
-19.5674
-19.5694
-19.5714
-19.5734
-19.5753
-19.5772
-19.5791
-19.581
-19.5829
-19.5847
-19.5865
-19.5883
-19.59
-19.5917
-19.5934
-19.595
-19.5966
-19.5981
-19.5996
-19.6011
-19.6025
-19.6039
-19.6053
-19.6066
-19.6078
-19.609
-19.6102
-19.6113
-19.6123
-19.6133
-19.6143
-19.6152
-19.6161
-19.6169
-19.6176
-19.6183
-19.6189
-19.6195
-19.62
-19.6205
-19.6209
-19.6213
-19.6216
-19.6218
-19.622
-19.6221
-23.5457
-23.5455
-23.5454
-23.5451
-23.5448
-23.5445
-23.544
-23.5436
-23.543
-23.5425
-23.5418
-23.5411
-23.5404
-23.5396
-23.5387
-23.5378
-23.5369
-23.5359
-23.5348
-23.5337
-23.5325
-23.5313
-23.5301
-23.5288
-23.5274
-23.526
-23.5246
-23.5231
-23.5216
-23.52
-23.5184
-23.5168
-23.5151
-23.5134
-23.5117
-23.5099
-23.5081
-23.5063
-23.5044
-23.5025
-23.5006
-23.4987
-23.4968
-23.4948
-23.4928
-23.4908
-23.4888
-23.4867
-23.4847
-23.4827
-23.4806
-23.4785
-23.4765
-23.4744
-23.4723
-23.4703
-23.4682
-23.4662
-23.4642
-23.4621
-23.4601
-23.4581
-23.4562
-23.4542
-23.4523
-23.4504
-23.4485
-23.4466
-23.4448
-23.443
-23.4412
-23.4395
-23.4378
-23.4362
-23.4346
-23.433
-23.4315
-23.4301
-23.4287
-23.4273
-23.426
-23.4248
-23.4236
-23.4224
-23.4213
-23.4203
-23.4194
-23.4185
-23.4177
-23.4169
-23.4162
-23.4156
-23.415
-23.4145
-23.4141
-23.4138
-23.4135
-23.4133
-23.4132
-23.4131
-23.4131
-23.4132
-23.4133
-23.4136
-23.4138
-23.4142
-23.4147
-23.4152
-23.4157
-23.4164
-23.4171
-23.4179
-23.4187
-23.4196
-23.4206
-23.4216
-23.4227
-23.4239
-23.4251
-23.4263
-23.4277
-23.429
-23.4305
-23.4319
-23.4335
-23.435
-23.4366
-23.4383
-23.44
-23.4417
-23.4435
-23.4453
-23.4471
-23.449
-23.4509
-23.4528
-23.4548
-23.4567
-23.4587
-23.4607
-23.4627
-23.4648
-23.4668
-23.4689
-23.4709
-23.473
-23.4751
-23.4772
-23.4792
-23.4813
-23.4834
-23.4854
-23.4875
-23.4895
-23.4915
-23.4935
-23.4955
-23.4975
-23.4995
-23.5014
-23.5033
-23.5052
-23.5071
-23.5089
-23.5107
-23.5125
-23.5142
-23.5159
-23.5176
-23.5193
-23.5209
-23.5224
-23.5239
-23.5254
-23.5269
-23.5283
-23.5296
-23.5309
-23.5322
-23.5334
-23.5345
-23.5357
-23.5367
-23.5377
-23.5387
-23.5396
-23.5405
-23.5413
-23.542
-23.5427
-23.5433
-23.5439
-23.5445
-23.5449
-23.5453
-23.5457
-23.546
-23.5462
-23.5464
-23.5466
-27.4702
-27.47
-27.4699
-27.4696
-27.4693
-27.469
-27.4685
-27.4681
-27.4675
-27.4669
-27.4663
-27.4656
-27.4649
-27.4641
-27.4632
-27.4623
-27.4613
-27.4603
-27.4592
-27.4581
-27.4569
-27.4557
-27.4545
-27.4532
-27.4518
-27.4504
-27.4489
-27.4475
-27.4459
-27.4444
-27.4428
-27.4411
-27.4394
-27.4377
-27.436
-27.4342
-27.4324
-27.4305
-27.4286
-27.4267
-27.4248
-27.4229
-27.4209
-27.4189
-27.4169
-27.4149
-27.4129
-27.4108
-27.4088
-27.4067
-27.4046
-27.4026
-27.4005
-27.3984
-27.3963
-27.3943
-27.3922
-27.3901
-27.3881
-27.386
-27.384
-27.382
-27.38
-27.378
-27.3761
-27.3742
-27.3723
-27.3704
-27.3686
-27.3668
-27.365
-27.3632
-27.3615
-27.3599
-27.3583
-27.3567
-27.3552
-27.3537
-27.3523
-27.3509
-27.3496
-27.3484
-27.3472
-27.346
-27.3449
-27.3439
-27.3429
-27.342
-27.3412
-27.3404
-27.3397
-27.3391
-27.3386
-27.3381
-27.3376
-27.3373
-27.337
-27.3368
-27.3367
-27.3366
-27.3366
-27.3367
-27.3368
-27.3371
-27.3374
-27.3377
-27.3382
-27.3387
-27.3393
-27.3399
-27.3406
-27.3414
-27.3423
-27.3432
-27.3441
-27.3452
-27.3463
-27.3475
-27.3487
-27.3499
-27.3513
-27.3527
-27.3541
-27.3556
-27.3571
-27.3587
-27.3603
-27.362
-27.3637
-27.3655
-27.3672
-27.3691
-27.3709
-27.3728
-27.3747
-27.3766
-27.3786
-27.3806
-27.3826
-27.3846
-27.3866
-27.3887
-27.3908
-27.3928
-27.3949
-27.397
-27.3991
-27.4012
-27.4032
-27.4053
-27.4074
-27.4095
-27.4116
-27.4136
-27.4156
-27.4177
-27.4197
-27.4217
-27.4236
-27.4256
-27.4275
-27.4294
-27.4313
-27.4332
-27.435
-27.4368
-27.4385
-27.4402
-27.4419
-27.4436
-27.4452
-27.4468
-27.4483
-27.4498
-27.4512
-27.4526
-27.454
-27.4553
-27.4566
-27.4578
-27.459
-27.4601
-27.4612
-27.4622
-27.4632
-27.4641
-27.4649
-27.4657
-27.4665
-27.4672
-27.4678
-27.4684
-27.469
-27.4694
-27.4698
-27.4702
-27.4705
-27.4708
-27.4709
-27.4711
-31.3948
-31.3946
-31.3944
-31.3942
-31.3939
-31.3935
-31.3931
-31.3926
-31.3921
-31.3915
-31.3909
-31.3902
-31.3894
-31.3886
-31.3877
-31.3868
-31.3858
-31.3848
-31.3837
-31.3826
-31.3814
-31.3802
-31.3789
-31.3776
-31.3762
-31.3748
-31.3734
-31.3719
-31.3703
-31.3687
-31.3671
-31.3655
-31.3638
-31.362
-31.3603
-31.3585
-31.3566
-31.3548
-31.3529
-31.351
-31.349
-31.3471
-31.3451
-31.3431
-31.3411
-31.339
-31.337
-31.3349
-31.3329
-31.3308
-31.3287
-31.3266
-31.3245
-31.3224
-31.3203
-31.3182
-31.3161
-31.314
-31.312
-31.3099
-31.3079
-31.3058
-31.3038
-31.3018
-31.2999
-31.2979
-31.296
-31.2941
-31.2923
-31.2905
-31.2887
-31.2869
-31.2852
-31.2836
-31.2819
-31.2803
-31.2788
-31.2773
-31.2759
-31.2745
-31.2732
-31.2719
-31.2707
-31.2695
-31.2684
-31.2674
-31.2664
-31.2655
-31.2647
-31.2639
-31.2632
-31.2626
-31.262
-31.2615
-31.2611
-31.2607
-31.2605
-31.2602
-31.2601
-31.26
-31.2601
-31.2601
-31.2603
-31.2605
-31.2608
-31.2612
-31.2616
-31.2621
-31.2627
-31.2634
-31.2641
-31.2649
-31.2658
-31.2667
-31.2677
-31.2687
-31.2698
-31.271
-31.2722
-31.2735
-31.2749
-31.2763
-31.2777
-31.2792
-31.2808
-31.2823
-31.284
-31.2857
-31.2874
-31.2892
-31.291
-31.2928
-31.2947
-31.2966
-31.2985
-31.3004
-31.3024
-31.3044
-31.3064
-31.3085
-31.3105
-31.3126
-31.3147
-31.3168
-31.3189
-31.321
-31.3231
-31.3252
-31.3273
-31.3294
-31.3315
-31.3336
-31.3357
-31.3377
-31.3398
-31.3418
-31.3439
-31.3459
-31.3479
-31.3498
-31.3518
-31.3537
-31.3556
-31.3574
-31.3593
-31.3611
-31.3629
-31.3646
-31.3663
-31.368
-31.3696
-31.3712
-31.3727
-31.3742
-31.3757
-31.3771
-31.3785
-31.3798
-31.3811
-31.3823
-31.3835
-31.3846
-31.3857
-31.3867
-31.3877
-31.3886
-31.3895
-31.3903
-31.391
-31.3917
-31.3924
-31.393
-31.3935
-31.394
-31.3944
-31.3948
-31.3951
-31.3953
-31.3955
-31.3956
-35.3194
-35.3193
-35.3191
-35.3188
-35.3185
-35.3182
-35.3177
-35.3172
-35.3167
-35.3161
-35.3155
-35.3148
-35.314
-35.3132
-35.3123
-35.3114
-35.3104
-35.3094
-35.3083
-35.3071
-35.306
-35.3047
-35.3034
-35.3021
-35.3007
-35.2993
-35.2978
-35.2963
-35.2948
-35.2932
-35.2915
-35.2899
-35.2881
-35.2864
-35.2846
-35.2828
-35.281
-35.2791
-35.2772
-35.2752
-35.2733
-35.2713
-35.2693
-35.2673
-35.2652
-35.2632
-35.2611
-35.259
-35.2569
-35.2548
-35.2527
-35.2506
-35.2485
-35.2464
-35.2443
-35.2422
-35.2401
-35.238
-35.2359
-35.2338
-35.2317
-35.2297
-35.2277
-35.2256
-35.2237
-35.2217
-35.2198
-35.2179
-35.216
-35.2142
-35.2123
-35.2106
-35.2089
-35.2072
-35.2055
-35.2039
-35.2024
-35.2009
-35.1994
-35.198
-35.1967
-35.1954
-35.1942
-35.193
-35.1919
-35.1909
-35.1899
-35.189
-35.1881
-35.1874
-35.1866
-35.186
-35.1854
-35.1849
-35.1845
-35.1841
-35.1839
-35.1836
-35.1835
-35.1834
-35.1834
-35.1835
-35.1837
-35.1839
-35.1842
-35.1846
-35.185
-35.1856
-35.1862
-35.1868
-35.1875
-35.1883
-35.1892
-35.1901
-35.1911
-35.1922
-35.1933
-35.1945
-35.1957
-35.197
-35.1984
-35.1998
-35.2013
-35.2028
-35.2043
-35.2059
-35.2076
-35.2093
-35.211
-35.2128
-35.2146
-35.2165
-35.2184
-35.2203
-35.2222
-35.2242
-35.2262
-35.2282
-35.2303
-35.2323
-35.2344
-35.2365
-35.2386
-35.2407
-35.2428
-35.2449
-35.2471
-35.2492
-35.2513
-35.2534
-35.2556
-35.2577
-35.2598
-35.2619
-35.2639
-35.266
-35.268
-35.2701
-35.2721
-35.2741
-35.276
-35.278
-35.2799
-35.2818
-35.2836
-35.2854
-35.2872
-35.289
-35.2907
-35.2924
-35.294
-35.2956
-35.2972
-35.2987
-35.3002
-35.3016
-35.303
-35.3043
-35.3056
-35.3068
-35.308
-35.3091
-35.3102
-35.3113
-35.3123
-35.3132
-35.3141
-35.3149
-35.3156
-35.3164
-35.317
-35.3176
-35.3181
-35.3186
-35.319
-35.3194
-35.3197
-35.32
-35.3202
-35.3203
-39.2441
-39.244
-39.2438
-39.2435
-39.2432
-39.2429
-39.2424
-39.2419
-39.2414
-39.2408
-39.2401
-39.2394
-39.2387
-39.2378
-39.2369
-39.236
-39.235
-39.234
-39.2329
-39.2317
-39.2305
-39.2293
-39.228
-39.2267
-39.2253
-39.2238
-39.2223
-39.2208
-39.2192
-39.2176
-39.216
-39.2143
-39.2126
-39.2108
-39.209
-39.2072
-39.2053
-39.2034
-39.2015
-39.1995
-39.1976
-39.1956
-39.1935
-39.1915
-39.1894
-39.1874
-39.1853
-39.1832
-39.181
-39.1789
-39.1768
-39.1747
-39.1725
-39.1704
-39.1682
-39.1661
-39.164
-39.1619
-39.1597
-39.1576
-39.1556
-39.1535
-39.1514
-39.1494
-39.1474
-39.1454
-39.1435
-39.1416
-39.1397
-39.1378
-39.136
-39.1342
-39.1325
-39.1307
-39.1291
-39.1275
-39.1259
-39.1244
-39.1229
-39.1215
-39.1202
-39.1189
-39.1176
-39.1165
-39.1153
-39.1143
-39.1133
-39.1124
-39.1115
-39.1107
-39.11
-39.1094
-39.1088
-39.1083
-39.1078
-39.1075
-39.1072
-39.107
-39.1068
-39.1068
-39.1068
-39.1069
-39.107
-39.1073
-39.1076
-39.1079
-39.1084
-39.1089
-39.1095
-39.1102
-39.1109
-39.1117
-39.1126
-39.1135
-39.1145
-39.1156
-39.1167
-39.1179
-39.1192
-39.1205
-39.1219
-39.1233
-39.1248
-39.1263
-39.1279
-39.1295
-39.1312
-39.1329
-39.1347
-39.1365
-39.1383
-39.1402
-39.1421
-39.144
-39.146
-39.148
-39.15
-39.152
-39.1541
-39.1562
-39.1583
-39.1604
-39.1625
-39.1646
-39.1668
-39.1689
-39.1711
-39.1732
-39.1754
-39.1775
-39.1796
-39.1818
-39.1839
-39.186
-39.1881
-39.1902
-39.1923
-39.1943
-39.1963
-39.1983
-39.2003
-39.2023
-39.2042
-39.2061
-39.208
-39.2098
-39.2116
-39.2134
-39.2151
-39.2168
-39.2185
-39.2201
-39.2217
-39.2232
-39.2247
-39.2261
-39.2275
-39.2289
-39.2302
-39.2314
-39.2326
-39.2338
-39.2349
-39.2359
-39.2369
-39.2378
-39.2387
-39.2395
-39.2403
-39.241
-39.2417
-39.2423
-39.2428
-39.2433
-39.2437
-39.2441
-39.2444
-39.2447
-39.2449
-39.245
-43.1689
-43.1687
-43.1686
-43.1683
-43.168
-43.1676
-43.1672
-43.1667
-43.1662
-43.1655
-43.1649
-43.1642
-43.1634
-43.1625
-43.1617
-43.1607
-43.1597
-43.1587
-43.1576
-43.1564
-43.1552
-43.1539
-43.1526
-43.1513
-43.1499
-43.1484
-43.1469
-43.1454
-43.1438
-43.1421
-43.1405
-43.1388
-43.137
-43.1352
-43.1334
-43.1316
-43.1297
-43.1278
-43.1258
-43.1239
-43.1219
-43.1198
-43.1178
-43.1157
-43.1136
-43.1115
-43.1094
-43.1073
-43.1052
-43.103
-43.1009
-43.0987
-43.0965
-43.0944
-43.0922
-43.0901
-43.0879
-43.0858
-43.0836
-43.0815
-43.0794
-43.0773
-43.0752
-43.0732
-43.0711
-43.0691
-43.0672
-43.0652
-43.0633
-43.0614
-43.0596
-43.0578
-43.056
-43.0543
-43.0526
-43.051
-43.0494
-43.0479
-43.0464
-43.045
-43.0436
-43.0423
-43.041
-43.0398
-43.0387
-43.0376
-43.0366
-43.0357
-43.0348
-43.034
-43.0333
-43.0327
-43.0321
-43.0316
-43.0311
-43.0308
-43.0305
-43.0303
-43.0301
-43.03
-43.0301
-43.0301
-43.0303
-43.0305
-43.0308
-43.0312
-43.0317
-43.0322
-43.0328
-43.0335
-43.0342
-43.035
-43.0359
-43.0369
-43.0379
-43.039
-43.0401
-43.0413
-43.0426
-43.0439
-43.0453
-43.0468
-43.0482
-43.0498
-43.0514
-43.053
-43.0547
-43.0565
-43.0582
-43.0601
-43.0619
-43.0638
-43.0657
-43.0677
-43.0697
-43.0717
-43.0737
-43.0758
-43.0779
-43.08
-43.0821
-43.0842
-43.0864
-43.0885
-43.0907
-43.0929
-43.095
-43.0972
-43.0994
-43.1016
-43.1037
-43.1059
-43.108
-43.1102
-43.1123
-43.1144
-43.1165
-43.1186
-43.1206
-43.1226
-43.1246
-43.1266
-43.1286
-43.1305
-43.1324
-43.1342
-43.1361
-43.1378
-43.1396
-43.1413
-43.143
-43.1446
-43.1462
-43.1478
-43.1493
-43.1507
-43.1521
-43.1535
-43.1548
-43.1561
-43.1573
-43.1584
-43.1595
-43.1606
-43.1616
-43.1625
-43.1634
-43.1643
-43.1651
-43.1658
-43.1664
-43.167
-43.1676
-43.1681
-43.1685
-43.1689
-43.1692
-43.1695
-43.1696
-43.1698
-47.0937
-47.0936
-47.0934
-47.0931
-47.0928
-47.0925
-47.092
-47.0915
-47.091
-47.0904
-47.0897
-47.089
-47.0882
-47.0873
-47.0864
-47.0855
-47.0845
-47.0834
-47.0823
-47.0811
-47.0799
-47.0786
-47.0773
-47.0759
-47.0745
-47.073
-47.0715
-47.07
-47.0683
-47.0667
-47.065
-47.0633
-47.0615
-47.0597
-47.0579
-47.056
-47.0541
-47.0522
-47.0502
-47.0482
-47.0462
-47.0441
-47.0421
-47.04
-47.0379
-47.0357
-47.0336
-47.0314
-47.0293
-47.0271
-47.0249
-47.0227
-47.0206
-47.0184
-47.0162
-47.014
-47.0118
-47.0096
-47.0075
-47.0053
-47.0032
-47.0011
-46.999
-46.9969
-46.9948
-46.9928
-46.9908
-46.9889
-46.9869
-46.985
-46.9831
-46.9813
-46.9795
-46.9778
-46.9761
-46.9744
-46.9728
-46.9713
-46.9698
-46.9684
-46.967
-46.9656
-46.9644
-46.9632
-46.962
-46.9609
-46.9599
-46.959
-46.9581
-46.9573
-46.9566
-46.9559
-46.9553
-46.9548
-46.9544
-46.954
-46.9537
-46.9535
-46.9533
-46.9533
-46.9533
-46.9534
-46.9535
-46.9538
-46.9541
-46.9545
-46.9549
-46.9554
-46.9561
-46.9567
-46.9575
-46.9583
-46.9592
-46.9602
-46.9612
-46.9623
-46.9635
-46.9647
-46.966
-46.9673
-46.9687
-46.9702
-46.9717
-46.9732
-46.9749
-46.9765
-46.9782
-46.98
-46.9818
-46.9836
-46.9855
-46.9874
-46.9894
-46.9914
-46.9934
-46.9954
-46.9975
-46.9996
-47.0017
-47.0038
-47.0059
-47.0081
-47.0103
-47.0125
-47.0147
-47.0168
-47.019
-47.0212
-47.0234
-47.0256
-47.0278
-47.03
-47.0322
-47.0343
-47.0365
-47.0386
-47.0407
-47.0428
-47.0449
-47.047
-47.049
-47.051
-47.053
-47.0549
-47.0568
-47.0587
-47.0605
-47.0624
-47.0641
-47.0659
-47.0675
-47.0692
-47.0708
-47.0724
-47.0739
-47.0754
-47.0768
-47.0782
-47.0795
-47.0808
-47.082
-47.0832
-47.0843
-47.0854
-47.0864
-47.0873
-47.0882
-47.0891
-47.0899
-47.0906
-47.0913
-47.0919
-47.0924
-47.0929
-47.0934
-47.0937
-47.094
-47.0943
-47.0945
-47.0946
-51.0186
-51.0185
-51.0183
-51.0181
-51.0177
-51.0174
-51.0169
-51.0164
-51.0159
-51.0152
-51.0146
-51.0138
-51.013
-51.0122
-51.0113
-51.0103
-51.0093
-51.0082
-51.0071
-51.0059
-51.0047
-51.0034
-51.002
-51.0006
-50.9992
-50.9977
-50.9962
-50.9946
-50.993
-50.9913
-50.9896
-50.9879
-50.9861
-50.9842
-50.9824
-50.9805
-50.9785
-50.9766
-50.9746
-50.9726
-50.9705
-50.9685
-50.9664
-50.9642
-50.9621
-50.96
-50.9578
-50.9556
-50.9534
-50.9512
-50.949
-50.9468
-50.9446
-50.9424
-50.9401
-50.9379
-50.9357
-50.9335
-50.9313
-50.9291
-50.927
-50.9248
-50.9227
-50.9206
-50.9185
-50.9165
-50.9145
-50.9125
-50.9105
-50.9086
-50.9067
-50.9048
-50.903
-50.9013
-50.8995
-50.8979
-50.8962
-50.8947
-50.8932
-50.8917
-50.8903
-50.8889
-50.8877
-50.8864
-50.8853
-50.8842
-50.8832
-50.8822
-50.8813
-50.8805
-50.8798
-50.8791
-50.8785
-50.878
-50.8775
-50.8771
-50.8768
-50.8766
-50.8765
-50.8764
-50.8764
-50.8765
-50.8767
-50.8769
-50.8772
-50.8776
-50.8781
-50.8786
-50.8792
-50.8799
-50.8807
-50.8815
-50.8824
-50.8834
-50.8845
-50.8856
-50.8867
-50.888
-50.8893
-50.8906
-50.8921
-50.8935
-50.8951
-50.8966
-50.8983
-50.9
-50.9017
-50.9035
-50.9053
-50.9072
-50.9091
-50.911
-50.913
-50.915
-50.917
-50.9191
-50.9212
-50.9233
-50.9254
-50.9276
-50.9298
-50.932
-50.9342
-50.9364
-50.9386
-50.9408
-50.943
-50.9453
-50.9475
-50.9497
-50.9519
-50.9541
-50.9563
-50.9585
-50.9607
-50.9629
-50.965
-50.9671
-50.9692
-50.9713
-50.9734
-50.9754
-50.9774
-50.9794
-50.9813
-50.9832
-50.9851
-50.9869
-50.9887
-50.9904
-50.9922
-50.9938
-50.9955
-50.997
-50.9986
-51.0001
-51.0015
-51.0029
-51.0042
-51.0055
-51.0068
-51.008
-51.0091
-51.0102
-51.0112
-51.0122
-51.0131
-51.0139
-51.0147
-51.0155
-51.0161
-51.0168
-51.0173
-51.0178
-51.0183
-51.0186
-51.019
-51.0192
-51.0194
-51.0195
-54.9436
-54.9435
-54.9433
-54.943
-54.9427
-54.9423
-54.9419
-54.9414
-54.9408
-54.9402
-54.9395
-54.9388
-54.938
-54.9371
-54.9362
-54.9352
-54.9342
-54.9331
-54.9319
-54.9307
-54.9295
-54.9282
-54.9268
-54.9254
-54.924
-54.9224
-54.9209
-54.9193
-54.9177
-54.916
-54.9142
-54.9125
-54.9106
-54.9088
-54.9069
-54.905
-54.903
-54.901
-54.899
-54.897
-54.8949
-54.8928
-54.8907
-54.8885
-54.8864
-54.8842
-54.882
-54.8798
-54.8776
-54.8753
-54.8731
-54.8708
-54.8686
-54.8663
-54.8641
-54.8619
-54.8596
-54.8574
-54.8552
-54.853
-54.8508
-54.8486
-54.8464
-54.8443
-54.8422
-54.8401
-54.8381
-54.836
-54.834
-54.8321
-54.8302
-54.8283
-54.8265
-54.8247
-54.8229
-54.8212
-54.8196
-54.818
-54.8165
-54.815
-54.8136
-54.8122
-54.8109
-54.8097
-54.8085
-54.8074
-54.8064
-54.8054
-54.8045
-54.8037
-54.8029
-54.8022
-54.8016
-54.8011
-54.8006
-54.8002
-54.7999
-54.7997
-54.7996
-54.7995
-54.7995
-54.7996
-54.7998
-54.8
-54.8003
-54.8007
-54.8012
-54.8017
-54.8024
-54.8031
-54.8038
-54.8047
-54.8056
-54.8066
-54.8077
-54.8088
-54.81
-54.8112
-54.8125
-54.8139
-54.8154
-54.8168
-54.8184
-54.82
-54.8217
-54.8234
-54.8251
-54.8269
-54.8288
-54.8307
-54.8326
-54.8346
-54.8366
-54.8386
-54.8407
-54.8428
-54.8449
-54.847
-54.8492
-54.8514
-54.8536
-54.8558
-54.858
-54.8603
-54.8625
-54.8648
-54.867
-54.8693
-54.8715
-54.8738
-54.876
-54.8783
-54.8805
-54.8827
-54.8849
-54.8871
-54.8893
-54.8915
-54.8936
-54.8957
-54.8978
-54.8998
-54.9019
-54.9038
-54.9058
-54.9077
-54.9096
-54.9115
-54.9133
-54.9151
-54.9168
-54.9185
-54.9202
-54.9218
-54.9233
-54.9248
-54.9263
-54.9277
-54.929
-54.9304
-54.9316
-54.9328
-54.934
-54.9351
-54.9361
-54.9371
-54.938
-54.9389
-54.9397
-54.9404
-54.9411
-54.9417
-54.9423
-54.9428
-54.9432
-54.9436
-54.9439
-54.9442
-54.9444
-54.9445
-58.8687
-58.8686
-58.8684
-58.8681
-58.8678
-58.8674
-58.8669
-58.8664
-58.8658
-58.8652
-58.8645
-58.8638
-58.8629
-58.8621
-58.8611
-58.8602
-58.8591
-58.858
-58.8568
-58.8556
-58.8544
-58.853
-58.8517
-58.8502
-58.8488
-58.8472
-58.8457
-58.844
-58.8424
-58.8407
-58.8389
-58.8371
-58.8353
-58.8334
-58.8315
-58.8295
-58.8276
-58.8255
-58.8235
-58.8214
-58.8193
-58.8172
-58.815
-58.8129
-58.8107
-58.8084
-58.8062
-58.804
-58.8017
-58.7994
-58.7972
-58.7949
-58.7926
-58.7903
-58.7881
-58.7858
-58.7835
-58.7812
-58.779
-58.7768
-58.7745
-58.7723
-58.7701
-58.768
-58.7658
-58.7637
-58.7616
-58.7596
-58.7576
-58.7556
-58.7536
-58.7517
-58.7499
-58.7481
-58.7463
-58.7446
-58.7429
-58.7413
-58.7397
-58.7382
-58.7368
-58.7354
-58.7341
-58.7328
-58.7317
-58.7305
-58.7295
-58.7285
-58.7276
-58.7267
-58.726
-58.7253
-58.7247
-58.7241
-58.7237
-58.7233
-58.723
-58.7228
-58.7226
-58.7225
-58.7225
-58.7226
-58.7228
-58.723
-58.7234
-58.7238
-58.7243
-58.7248
-58.7254
-58.7262
-58.7269
-58.7278
-58.7287
-58.7297
-58.7308
-58.7319
-58.7331
-58.7344
-58.7357
-58.7371
-58.7386
-58.7401
-58.7417
-58.7433
-58.745
-58.7467
-58.7485
-58.7503
-58.7522
-58.7541
-58.7561
-58.7581
-58.7601
-58.7622
-58.7643
-58.7664
-58.7686
-58.7707
-58.7729
-58.7752
-58.7774
-58.7796
-58.7819
-58.7842
-58.7865
-58.7887
-58.791
-58.7933
-58.7956
-58.7979
-58.8002
-58.8024
-58.8047
-58.807
-58.8092
-58.8114
-58.8136
-58.8158
-58.818
-58.8201
-58.8222
-58.8243
-58.8264
-58.8284
-58.8304
-58.8323
-58.8342
-58.8361
-58.838
-58.8398
-58.8415
-58.8432
-58.8449
-58.8465
-58.8481
-58.8496
-58.8511
-58.8525
-58.8539
-58.8552
-58.8565
-58.8577
-58.8589
-58.86
-58.861
-58.862
-58.863
-58.8638
-58.8647
-58.8654
-58.8661
-58.8667
-58.8673
-58.8678
-58.8683
-58.8687
-58.869
-58.8693
-58.8695
-58.8696
-62.7938
-62.7937
-62.7935
-62.7932
-62.7929
-62.7925
-62.792
-62.7915
-62.7909
-62.7903
-62.7896
-62.7888
-62.788
-62.7871
-62.7862
-62.7852
-62.7841
-62.783
-62.7818
-62.7806
-62.7793
-62.778
-62.7766
-62.7751
-62.7736
-62.7721
-62.7705
-62.7688
-62.7672
-62.7654
-62.7636
-62.7618
-62.76
-62.758
-62.7561
-62.7541
-62.7521
-62.7501
-62.748
-62.7459
-62.7437
-62.7416
-62.7394
-62.7372
-62.735
-62.7327
-62.7304
-62.7282
-62.7259
-62.7236
-62.7213
-62.719
-62.7166
-62.7143
-62.712
-62.7097