/*--------------------------------*- C++ -*----------------------------------*\
| =========                 |                                                 |
| \\      /  F ield         | OpenFOAM: The Open Source CFD Toolbox           |
|  \\    /   O peration     | Version:  2412                                  |
|   \\  /    A nd           | Website:  www.openfoam.com                      |
|    \\/     M anipulation  |                                                 |
\*---------------------------------------------------------------------------*/
FoamFile
{
    version     2.0;
    format      ascii;
    arch        "LSB;label=32;scalar=64";
    class       volScalarField;
    location    "1.4";
    object      p_rgh;
}
// * * * * * * * * * * * * * * * * * * * * * * * * * * * * * * * * * * * * * //

dimensions      [1 -1 -2 0 0 0 0];

internalField   nonuniform List<scalar> 
40000
(
1.962
1.96211
1.96229
1.96254
1.96284
1.9632
1.9636
1.96406
1.96457
1.96515
1.96578
1.96645
1.96718
1.96797
1.9688
1.96969
1.97063
1.97162
1.97266
1.97374
1.97488
1.97606
1.97729
1.97856
1.97988
1.98124
1.98264
1.98408
1.98556
1.98709
1.98865
1.99024
1.99187
1.99354
1.99523
1.99696
1.99872
2.00051
2.00232
2.00416
2.00602
2.0079
2.0098
2.01172
2.01366
2.01562
2.01758
2.01956
2.02155
2.02354
2.02555
2.02755
2.02956
2.03157
2.03358
2.03558
2.03758
2.03957
2.04155
2.04352
2.04547
2.04741
2.04934
2.05124
2.05312
2.05498
2.05681
2.05861
2.06038
2.06212
2.06383
2.0655
2.06714
2.06873
2.07029
2.0718
2.07326
2.07468
2.07605
2.07737
2.07864
2.07985
2.08101
2.08211
2.08316
2.08415
2.08507
2.08594
2.08674
2.08748
2.08815
2.08876
2.0893
2.08977
2.09018
2.09051
2.09078
2.09098
2.09111
2.09118
2.09117
2.09109
2.09094
2.09072
2.09044
2.09008
2.08966
2.08917
2.08861
2.08799
2.0873
2.08654
2.08572
2.08484
2.0839
2.0829
2.08184
2.08072
2.07954
2.07831
2.07703
2.0757
2.07431
2.07288
2.0714
2.06988
2.06831
2.0667
2.06505
2.06337
2.06164
2.05989
2.0581
2.05629
2.05444
2.05257
2.05068
2.04877
2.04683
2.04488
2.04292
2.04094
2.03895
2.03694
2.03494
2.03292
2.03091
2.02889
2.02687
2.02485
2.02284
2.02084
2.01884
2.01686
2.01488
2.01292
2.01097
2.00905
2.00714
2.00525
2.00338
2.00153
1.99972
1.99792
1.99616
1.99443
1.99273
1.99106
1.98942
1.98782
1.98626
1.98473
1.98324
1.98179
1.98039
1.97903
1.97771
1.97643
1.9752
1.97401
1.97288
1.97179
1.97075
1.96976
1.96882
1.96793
1.96709
1.9663
1.96557
1.96489
1.96426
1.96369
1.96317
1.96271
1.9623
1.96195
1.96165
1.96141
1.96123
1.96112
1.96189
1.96201
1.96218
1.96241
1.96271
1.96307
1.96348
1.96394
1.96445
1.96503
1.96565
1.96633
1.96707
1.96785
1.96869
1.96958
1.97052
1.97151
1.97255
1.97364
1.97477
1.97596
1.97718
1.97846
1.97978
1.98114
1.98255
1.98399
1.98548
1.987
1.98856
1.99016
1.9918
1.99346
1.99516
1.9969
1.99866
2.00045
2.00226
2.0041
2.00597
2.00785
2.00976
2.01169
2.01363
2.01558
2.01756
2.01954
2.02153
2.02353
2.02554
2.02755
2.02956
2.03157
2.03358
2.03559
2.03759
2.03959
2.04157
2.04355
2.04551
2.04745
2.04938
2.05129
2.05317
2.05503
2.05687
2.05867
2.06045
2.0622
2.06391
2.06559
2.06722
2.06882
2.07038
2.07189
2.07336
2.07479
2.07616
2.07748
2.07875
2.07997
2.08113
2.08224
2.08329
2.08427
2.0852
2.08607
2.08687
2.08761
2.08829
2.0889
2.08944
2.08991
2.09032
2.09066
2.09093
2.09113
2.09126
2.09132
2.09131
2.09123
2.09109
2.09087
2.09058
2.09023
2.0898
2.08931
2.08875
2.08812
2.08743
2.08668
2.08586
2.08497
2.08403
2.08303
2.08196
2.08084
2.07966
2.07843
2.07714
2.0758
2.07442
2.07298
2.0715
2.06997
2.0684
2.06678
2.06513
2.06344
2.06172
2.05996
2.05817
2.05635
2.0545
2.05263
2.05073
2.04881
2.04687
2.04492
2.04295
2.04096
2.03897
2.03696
2.03495
2.03293
2.03091
2.02889
2.02686
2.02485
2.02283
2.02082
2.01882
2.01683
2.01485
2.01289
2.01094
2.009
2.00709
2.0052
2.00333
2.00148
1.99966
1.99786
1.99609
1.99436
1.99265
1.99098
1.98934
1.98774
1.98617
1.98464
1.98315
1.9817
1.98029
1.97893
1.97761
1.97633
1.97509
1.97391
1.97277
1.97168
1.97064
1.96964
1.9687
1.96781
1.96697
1.96618
1.96545
1.96477
1.96414
1.96357
1.96305
1.96259
1.96218
1.96183
1.96153
1.96129
1.96112
1.96101
1.9617
1.96183
1.96201
1.96224
1.96253
1.96289
1.9633
1.96376
1.96428
1.96485
1.96548
1.96616
1.9669
1.96768
1.96852
1.96941
1.97036
1.97135
1.97239
1.97348
1.97462
1.97581
1.97704
1.97832
1.97964
1.981
1.98241
1.98386
1.98535
1.98688
1.98845
1.99005
1.99169
1.99336
1.99506
1.9968
1.99857
2.00036
2.00218
2.00403
2.0059
2.00779
2.0097
2.01163
2.01358
2.01554
2.01752
2.01951
2.0215
2.02351
2.02552
2.02754
2.02956
2.03158
2.03359
2.03561
2.03762
2.03962
2.04161
2.04359
2.04555
2.0475
2.04944
2.05135
2.05324
2.05511
2.05695
2.05876
2.06055
2.0623
2.06402
2.0657
2.06734
2.06895
2.07051
2.07203
2.0735
2.07493
2.07631
2.07763
2.07891
2.08013
2.0813
2.08241
2.08346
2.08445
2.08538
2.08625
2.08706
2.0878
2.08848
2.08909
2.08963
2.09011
2.09052
2.09086
2.09113
2.09133
2.09146
2.09152
2.09151
2.09144
2.09129
2.09107
2.09078
2.09042
2.09
2.0895
2.08894
2.08831
2.08762
2.08686
2.08604
2.08515
2.08421
2.0832
2.08213
2.081
2.07982
2.07858
2.07729
2.07595
2.07456
2.07312
2.07163
2.07009
2.06852
2.0669
2.06524
2.06355
2.06182
2.06005
2.05825
2.05643
2.05458
2.0527
2.05079
2.04887
2.04692
2.04496
2.04299
2.04099
2.03899
2.03698
2.03496
2.03294
2.03091
2.02888
2.02685
2.02483
2.02281
2.02079
2.01879
2.01679
2.01481
2.01284
2.01088
2.00894
2.00702
2.00513
2.00325
2.0014
1.99957
1.99777
1.996
1.99426
1.99255
1.99087
1.98923
1.98762
1.98605
1.98452
1.98302
1.98157
1.98016
1.97879
1.97746
1.97618
1.97495
1.97376
1.97261
1.97152
1.97048
1.96948
1.96854
1.96764
1.9668
1.96601
1.96528
1.9646
1.96397
1.96339
1.96287
1.96241
1.962
1.96165
1.96136
1.96112
1.96094
1.96082
1.96146
1.96158
1.96177
1.96201
1.9623
1.96265
1.96306
1.96352
1.96405
1.96462
1.96525
1.96593
1.96667
1.96746
1.9683
1.96919
1.97014
1.97113
1.97218
1.97327
1.97442
1.97561
1.97684
1.97812
1.97945
1.98082
1.98223
1.98369
1.98518
1.98672
1.98829
1.9899
1.99154
1.99322
1.99493
1.99667
1.99844
2.00024
2.00207
2.00392
2.0058
2.0077
2.00962
2.01156
2.01351
2.01548
2.01747
2.01946
2.02147
2.02348
2.0255
2.02752
2.02955
2.03158
2.0336
2.03563
2.03764
2.03965
2.04165
2.04364
2.04561
2.04757
2.04951
2.05143
2.05333
2.05521
2.05706
2.05888
2.06067
2.06243
2.06415
2.06584
2.06749
2.0691
2.07067
2.0722
2.07368
2.07511
2.0765
2.07783
2.07911
2.08034
2.08151
2.08262
2.08368
2.08468
2.08561
2.08649
2.0873
2.08804
2.08872
2.08934
2.08988
2.09036
2.09077
2.09112
2.09139
2.09159
2.09172
2.09178
2.09177
2.0917
2.09155
2.09133
2.09104
2.09068
2.09025
2.08975
2.08919
2.08856
2.08786
2.0871
2.08627
2.08538
2.08443
2.08342
2.08235
2.08122
2.08003
2.07879
2.07749
2.07614
2.07474
2.07329
2.0718
2.07026
2.06867
2.06705
2.06538
2.06368
2.06194
2.06017
2.05837
2.05653
2.05467
2.05279
2.05087
2.04894
2.04699
2.04502
2.04303
2.04104
2.03903
2.03701
2.03498
2.03295
2.03091
2.02888
2.02684
2.02481
2.02278
2.02076
2.01874
2.01674
2.01475
2.01277
2.01081
2.00886
2.00693
2.00503
2.00315
2.00129
1.99945
1.99765
1.99587
1.99412
1.99241
1.99072
1.98907
1.98746
1.98588
1.98435
1.98285
1.98139
1.97997
1.9786
1.97727
1.97598
1.97475
1.97355
1.97241
1.97131
1.97026
1.96926
1.96832
1.96742
1.96658
1.96579
1.96505
1.96436
1.96373
1.96316
1.96264
1.96217
1.96176
1.96141
1.96111
1.96088
1.9607
1.96057
1.96115
1.96127
1.96145
1.9617
1.962
1.96235
1.96276
1.96322
1.96375
1.96432
1.96495
1.96564
1.96638
1.96717
1.96802
1.96891
1.96986
1.97086
1.97191
1.97301
1.97416
1.97535
1.9766
1.97788
1.97921
1.98059
1.98201
1.98347
1.98497
1.98651
1.98809
1.98971
1.99136
1.99304
1.99476
1.99651
1.99829
2.0001
2.00193
2.0038
2.00568
2.00759
2.00952
2.01146
2.01343
2.01541
2.0174
2.0194
2.02142
2.02344
2.02547
2.02751
2.02954
2.03158
2.03362
2.03565
2.03767
2.03969
2.0417
2.0437
2.04568
2.04765
2.0496
2.05153
2.05344
2.05533
2.05719
2.05902
2.06082
2.06259
2.06432
2.06602
2.06768
2.0693
2.07088
2.07241
2.0739
2.07534
2.07673
2.07807
2.07936
2.08059
2.08177
2.08289
2.08395
2.08496
2.0859
2.08678
2.08759
2.08834
2.08902
2.08964
2.09019
2.09067
2.09109
2.09143
2.0917
2.09191
2.09204
2.0921
2.09209
2.09201
2.09186
2.09164
2.09135
2.09099
2.09056
2.09006
2.0895
2.08886
2.08816
2.08739
2.08656
2.08567
2.08471
2.08369
2.08261
2.08148
2.08028
2.07903
2.07773
2.07637
2.07497
2.07351
2.07201
2.07046
2.06887
2.06723
2.06556
2.06385
2.0621
2.06032
2.05851
2.05666
2.05479
2.0529
2.05098
2.04903
2.04707
2.04509
2.0431
2.04109
2.03907
2.03704
2.035
2.03296
2.03092
2.02887
2.02682
2.02478
2.02274
2.02071
2.01869
2.01667
2.01467
2.01268
2.01071
2.00876
2.00682
2.00491
2.00302
2.00115
1.99931
1.99749
1.99571
1.99395
1.99223
1.99054
1.98888
1.98726
1.98568
1.98413
1.98263
1.98116
1.97974
1.97836
1.97703
1.97574
1.97449
1.97329
1.97214
1.97104
1.96999
1.96899
1.96804
1.96714
1.96629
1.9655
1.96476
1.96407
1.96344
1.96286
1.96234
1.96187
1.96146
1.9611
1.96081
1.96057
1.96039
1.96026
1.96078
1.9609
1.96108
1.96132
1.96162
1.96198
1.96239
1.96286
1.96338
1.96396
1.9646
1.96529
1.96603
1.96683
1.96768
1.96858
1.96953
1.97053
1.97159
1.97269
1.97385
1.97505
1.9763
1.97759
1.97893
1.98031
1.98174
1.98321
1.98471
1.98626
1.98785
1.98947
1.99113
1.99283
1.99456
1.99632
1.9981
1.99992
2.00177
2.00364
2.00554
2.00745
2.00939
2.01135
2.01333
2.01532
2.01732
2.01934
2.02136
2.0234
2.02544
2.02749
2.02954
2.03158
2.03363
2.03568
2.03771
2.03975
2.04177
2.04378
2.04577
2.04775
2.04971
2.05166
2.05358
2.05547
2.05734
2.05919
2.061
2.06278
2.06452
2.06623
2.0679
2.06953
2.07112
2.07266
2.07416
2.07561
2.07701
2.07836
2.07965
2.08089
2.08208
2.08321
2.08428
2.08529
2.08623
2.08712
2.08794
2.08869
2.08938
2.09
2.09055
2.09104
2.09146
2.0918
2.09208
2.09228
2.09241
2.09248
2.09247
2.09239
2.09224
2.09202
2.09172
2.09136
2.09093
2.09042
2.08985
2.08922
2.08851
2.08774
2.0869
2.086
2.08504
2.08401
2.08293
2.08179
2.08058
2.07933
2.07802
2.07665
2.07524
2.07377
2.07226
2.0707
2.0691
2.06746
2.06577
2.06405
2.06229
2.0605
2.05868
2.05682
2.05494
2.05303
2.0511
2.04914
2.04717
2.04518
2.04317
2.04115
2.03912
2.03708
2.03503
2.03298
2.03092
2.02886
2.0268
2.02475
2.0227
2.02065
2.01862
2.01659
2.01458
2.01258
2.0106
2.00863
2.00669
2.00476
2.00286
2.00098
1.99913
1.99731
1.99551
1.99375
1.99201
1.99031
1.98865
1.98702
1.98543
1.98388
1.98236
1.98089
1.97946
1.97808
1.97673
1.97544
1.97418
1.97298
1.97183
1.97072
1.96966
1.96865
1.9677
1.9668
1.96594
1.96515
1.9644
1.96371
1.96308
1.9625
1.96197
1.9615
1.96109
1.96073
1.96043
1.96019
1.96001
1.95988
1.96033
1.96047
1.96064
1.96088
1.96119
1.96155
1.96196
1.96243
1.96296
1.96354
1.96418
1.96487
1.96562
1.96642
1.96727
1.96818
1.96914
1.97015
1.97121
1.97232
1.97348
1.97469
1.97594
1.97725
1.97859
1.97998
1.98142
1.9829
1.98441
1.98597
1.98757
1.9892
1.99087
1.99258
1.99432
1.99609
1.99789
1.99972
2.00158
2.00346
2.00537
2.0073
2.00925
2.01122
2.01321
2.01521
2.01723
2.01926
2.0213
2.02335
2.0254
2.02746
2.02953
2.03159
2.03365
2.03571
2.03776
2.03981
2.04184
2.04387
2.04587
2.04787
2.04984
2.0518
2.05373
2.05564
2.05753
2.05938
2.06121
2.063
2.06475
2.06647
2.06816
2.0698
2.0714
2.07295
2.07446
2.07592
2.07733
2.07869
2.07999
2.08124
2.08244
2.08357
2.08465
2.08567
2.08662
2.08751
2.08834
2.0891
2.08979
2.09042
2.09097
2.09146
2.09188
2.09223
2.09251
2.09271
2.09285
2.09291
2.0929
2.09282
2.09267
2.09245
2.09215
2.09179
2.09135
2.09084
2.09027
2.08963
2.08892
2.08814
2.0873
2.08639
2.08542
2.08439
2.08329
2.08214
2.08093
2.07967
2.07835
2.07697
2.07555
2.07407
2.07255
2.07098
2.06937
2.06771
2.06602
2.06428
2.06251
2.06071
2.05887
2.057
2.05511
2.05319
2.05124
2.04927
2.04729
2.04528
2.04326
2.04122
2.03918
2.03712
2.03506
2.03299
2.03092
2.02885
2.02678
2.02471
2.02265
2.02059
2.01854
2.0165
2.01447
2.01246
2.01047
2.00849
2.00653
2.00459
2.00268
2.00079
1.99893
1.99709
1.99528
1.99351
1.99176
1.99005
1.98838
1.98674
1.98514
1.98357
1.98205
1.98057
1.97913
1.97774
1.97639
1.97508
1.97382
1.97261
1.97145
1.97034
1.96927
1.96826
1.9673
1.96639
1.96554
1.96473
1.96398
1.96329
1.96265
1.96207
1.96154
1.96107
1.96065
1.9603
1.96
1.95975
1.95957
1.95944
1.95982
1.95996
1.96014
1.96038
1.96068
1.96104
1.96146
1.96194
1.96247
1.96305
1.96369
1.96439
1.96514
1.96595
1.96681
1.96772
1.96869
1.96971
1.97077
1.97189
1.97306
1.97428
1.97554
1.97685
1.97821
1.97961
1.98105
1.98254
1.98407
1.98564
1.98725
1.98889
1.99057
1.99229
1.99404
1.99583
1.99764
1.99948
2.00135
2.00325
2.00517
2.00712
2.00908
2.01107
2.01307
2.01509
2.01713
2.01917
2.02123
2.02329
2.02536
2.02744
2.02952
2.0316
2.03367
2.03575
2.03782
2.03988
2.04193
2.04397
2.04599
2.048
2.04999
2.05197
2.05391
2.05584
2.05774
2.05961
2.06144
2.06325
2.06502
2.06676
2.06845
2.0701
2.07172
2.07328
2.0748
2.07627
2.0777
2.07907
2.08038
2.08164
2.08285
2.08399
2.08508
2.0861
2.08706
2.08796
2.08879
2.08956
2.09026
2.09089
2.09145
2.09194
2.09236
2.09271
2.09299
2.0932
2.09334
2.0934
2.09339
2.09331
2.09316
2.09293
2.09264
2.09227
2.09183
2.09132
2.09074
2.09009
2.08938
2.08859
2.08774
2.08683
2.08585
2.08481
2.08371
2.08255
2.08133
2.08005
2.07872
2.07734
2.0759
2.07441
2.07288
2.0713
2.06967
2.068
2.0663
2.06455
2.06276
2.06094
2.05909
2.05721
2.0553
2.05336
2.0514
2.04942
2.04742
2.0454
2.04336
2.04131
2.03925
2.03718
2.0351
2.03301
2.03093
2.02884
2.02675
2.02467
2.02259
2.02051
2.01845
2.0164
2.01435
2.01233
2.01032
2.00832
2.00635
2.0044
2.00247
2.00057
1.99869
1.99684
1.99502
1.99323
1.99147
1.98975
1.98806
1.98641
1.9848
1.98323
1.98169
1.9802
1.97876
1.97735
1.97599
1.97468
1.97341
1.97219
1.97102
1.9699
1.96883
1.96781
1.96684
1.96593
1.96507
1.96426
1.9635
1.96281
1.96216
1.96158
1.96104
1.96057
1.96015
1.95979
1.95949
1.95925
1.95906
1.95893
1.95925
1.95938
1.95957
1.95981
1.96012
1.96048
1.9609
1.96138
1.96191
1.9625
1.96315
1.96385
1.96461
1.96542
1.96629
1.96721
1.96818
1.9692
1.97028
1.97141
1.97258
1.97381
1.97508
1.9764
1.97777
1.97918
1.98064
1.98214
1.98368
1.98526
1.98688
1.98854
1.99023
1.99197
1.99373
1.99553
1.99736
1.99922
2.0011
2.00302
2.00496
2.00692
2.0089
2.0109
2.01292
2.01496
2.01701
2.01907
2.02115
2.02323
2.02532
2.02741
2.02951
2.0316
2.0337
2.03579
2.03788
2.03996
2.04202
2.04408
2.04613
2.04815
2.05016
2.05215
2.05412
2.05606
2.05797
2.05986
2.06171
2.06353
2.06532
2.06707
2.06878
2.07045
2.07207
2.07366
2.07519
2.07667
2.07811
2.07949
2.08082
2.08209
2.0833
2.08446
2.08555
2.08659
2.08755
2.08846
2.0893
2.09007
2.09078
2.09141
2.09198
2.09248
2.0929
2.09326
2.09354
2.09375
2.09389
2.09395
2.09394
2.09386
2.09371
2.09348
2.09318
2.09281
2.09236
2.09185
2.09127
2.09061
2.08989
2.0891
2.08824
2.08732
2.08634
2.08529
2.08418
2.083
2.08177
2.08049
2.07914
2.07775
2.0763
2.0748
2.07325
2.07165
2.07001
2.06833
2.06661
2.06485
2.06305
2.06121
2.05934
2.05744
2.05552
2.05356
2.05159
2.04959
2.04757
2.04553
2.04347
2.0414
2.03932
2.03724
2.03514
2.03304
2.03093
2.02883
2.02672
2.02462
2.02252
2.02043
2.01835
2.01628
2.01422
2.01217
2.01015
2.00814
2.00615
2.00418
2.00223
2.00031
1.99842
1.99656
1.99472
1.99292
1.99115
1.98941
1.98771
1.98605
1.98442
1.98284
1.98129
1.97979
1.97833
1.97691
1.97554
1.97422
1.97294
1.97171
1.97053
1.9694
1.96833
1.9673
1.96632
1.9654
1.96453
1.96372
1.96296
1.96226
1.96161
1.96102
1.96048
1.96001
1.95959
1.95922
1.95892
1.95867
1.95849
1.95836
1.95861
1.95874
1.95893
1.95918
1.95948
1.95985
1.96027
1.96075
1.96129
1.96188
1.96254
1.96324
1.96401
1.96483
1.9657
1.96663
1.96761
1.96864
1.96973
1.97086
1.97205
1.97328
1.97457
1.9759
1.97728
1.9787
1.98017
1.98169
1.98324
1.98484
1.98647
1.98814
1.98986
1.9916
1.99338
1.9952
1.99704
1.99892
2.00082
2.00276
2.00471
2.00669
2.00869
2.01071
2.01275
2.01481
2.01688
2.01896
2.02105
2.02316
2.02526
2.02738
2.02949
2.03161
2.03373
2.03584
2.03795
2.04004
2.04213
2.04421
2.04627
2.04832
2.05035
2.05236
2.05434
2.0563
2.05823
2.06014
2.06201
2.06385
2.06565
2.06742
2.06915
2.07083
2.07247
2.07407
2.07562
2.07712
2.07856
2.07996
2.0813
2.08258
2.08381
2.08497
2.08608
2.08712
2.0881
2.08902
2.08986
2.09064
2.09136
2.092
2.09257
2.09307
2.0935
2.09386
2.09414
2.09436
2.09449
2.09456
2.09455
2.09447
2.09431
2.09408
2.09378
2.09341
2.09296
2.09244
2.09185
2.09119
2.09046
2.08966
2.0888
2.08787
2.08687
2.08581
2.08469
2.08351
2.08227
2.08097
2.07961
2.0782
2.07674
2.07522
2.07366
2.07205
2.0704
2.0687
2.06696
2.06518
2.06336
2.06151
2.05962
2.0577
2.05576
2.05379
2.05179
2.04977
2.04773
2.04567
2.0436
2.04151
2.03941
2.0373
2.03519
2.03306
2.03094
2.02881
2.02669
2.02456
2.02245
2.02034
2.01823
2.01614
2.01407
2.012
2.00996
2.00793
2.00592
2.00393
2.00197
2.00003
1.99812
1.99624
1.99439
1.99257
1.99078
1.98903
1.98732
1.98564
1.984
1.9824
1.98084
1.97932
1.97785
1.97642
1.97504
1.9737
1.97242
1.97118
1.96999
1.96885
1.96776
1.96673
1.96574
1.96482
1.96394
1.96312
1.96235
1.96165
1.96099
1.9604
1.95986
1.95938
1.95895
1.95859
1.95828
1.95803
1.95784
1.95771
1.9579
1.95803
1.95822
1.95847
1.95878
1.95915
1.95957
1.96006
1.9606
1.9612
1.96186
1.96257
1.96335
1.96417
1.96505
1.96599
1.96698
1.96802
1.96912
1.97026
1.97146
1.97271
1.974
1.97535
1.97674
1.97818
1.97966
1.98119
1.98276
1.98437
1.98602
1.98771
1.98944
1.9912
1.993
1.99483
1.9967
1.99859
2.00052
2.00247
2.00444
2.00644
2.00846
2.0105
2.01257
2.01464
2.01673
2.01884
2.02095
2.02308
2.02521
2.02734
2.02948
2.03162
2.03376
2.03589
2.03802
2.04014
2.04225
2.04435
2.04644
2.0485
2.05055
2.05258
2.05459
2.05657
2.05852
2.06045
2.06234
2.0642
2.06602
2.0678
2.06955
2.07125
2.07291
2.07452
2.07609
2.0776
2.07906
2.08047
2.08183
2.08313
2.08436
2.08554
2.08666
2.08771
2.0887
2.08963
2.09048
2.09127
2.09199
2.09264
2.09322
2.09372
2.09416
2.09452
2.09481
2.09502
2.09516
2.09523
2.09522
2.09513
2.09498
2.09475
2.09444
2.09406
2.09361
2.09308
2.09249
2.09182
2.09109
2.09028
2.08941
2.08847
2.08746
2.08639
2.08526
2.08406
2.08281
2.0815
2.08013
2.0787
2.07722
2.07569
2.07411
2.07249
2.07081
2.0691
2.06734
2.06554
2.0637
2.06183
2.05993
2.05799
2.05602
2.05403
2.05201
2.04997
2.04791
2.04583
2.04374
2.04163
2.03951
2.03737
2.03524
2.03309
2.03094
2.0288
2.02665
2.0245
2.02237
2.02023
2.01811
2.016
2.0139
2.01181
2.00975
2.0077
2.00567
2.00366
2.00168
1.99972
1.99779
1.99589
1.99402
1.99218
1.99038
1.98861
1.98688
1.98518
1.98353
1.98191
1.98034
1.97881
1.97732
1.97588
1.97449
1.97314
1.97184
1.97059
1.96939
1.96824
1.96714
1.9661
1.9651
1.96417
1.96328
1.96246
1.96168
1.96097
1.96031
1.95971
1.95916
1.95868
1.95825
1.95788
1.95757
1.95732
1.95713
1.957
1.95712
1.95725
1.95744
1.9577
1.95801
1.95838
1.95881
1.9593
1.95985
1.96046
1.96112
1.96184
1.96262
1.96345
1.96434
1.96529
1.96629
1.96734
1.96845
1.9696
1.97081
1.97207
1.97338
1.97474
1.97615
1.9776
1.9791
1.98064
1.98223
1.98386
1.98552
1.98723
1.98898
1.99076
1.99258
1.99443
1.99632
1.99823
2.00018
2.00215
2.00415
2.00617
2.00821
2.01028
2.01236
2.01446
2.01657
2.0187
2.02084
2.02299
2.02514
2.0273
2.02947
2.03163
2.03379
2.03595
2.0381
2.04025
2.04238
2.0445
2.04661
2.0487
2.05078
2.05283
2.05486
2.05686
2.05884
2.06078
2.0627
2.06458
2.06642
2.06822
2.06999
2.07171
2.07339
2.07502
2.0766
2.07813
2.07961
2.08104
2.08241
2.08372
2.08497
2.08616
2.08729
2.08836
2.08936
2.09029
2.09116
2.09195
2.09268
2.09334
2.09392
2.09443
2.09487
2.09524
2.09553
2.09575
2.09589
2.09595
2.09594
2.09586
2.0957
2.09547
2.09516
2.09478
2.09432
2.09379
2.09319
2.09251
2.09177
2.09095
2.09007
2.08912
2.0881
2.08702
2.08587
2.08467
2.0834
2.08207
2.08069
2.07925
2.07775
2.0762
2.07461
2.07296
2.07127
2.06953
2.06776
2.06594
2.06408
2.06219
2.06026
2.0583
2.05631
2.0543
2.05226
2.05019
2.04811
2.04601
2.04389
2.04175
2.03961
2.03745
2.03529
2.03312
2.03095
2.02878
2.02661
2.02444
2.02228
2.02012
2.01797
2.01584
2.01371
2.01161
2.00952
2.00744
2.00539
2.00336
2.00136
1.99938
1.99743
1.99551
1.99362
1.99176
1.98994
1.98815
1.9864
1.98469
1.98301
1.98138
1.97979
1.97824
1.97674
1.97529
1.97388
1.97251
1.9712
1.96994
1.96873
1.96757
1.96646
1.9654
1.9644
1.96345
1.96256
1.96173
1.96095
1.96023
1.95956
1.95895
1.9584
1.95791
1.95748
1.95711
1.9568
1.95654
1.95635
1.95622
1.95627
1.95641
1.9566
1.95685
1.95717
1.95754
1.95798
1.95847
1.95903
1.95964
1.96031
1.96104
1.96183
1.96267
1.96357
1.96452
1.96553
1.9666
1.96772
1.96889
1.97011
1.97138
1.97271
1.97408
1.9755
1.97697
1.97849
1.98005
1.98165
1.9833
1.98498
1.98671
1.98848
1.99028
1.99212
1.994
1.9959
1.99784
1.99981
2.0018
2.00382
2.00587
2.00794
2.01003
2.01214
2.01426
2.0164
2.01855
2.02072
2.02289
2.02507
2.02726
2.02945
2.03164
2.03383
2.03601
2.03819
2.04036
2.04252
2.04467
2.04681
2.04892
2.05102
2.0531
2.05515
2.05718
2.05918
2.06115
2.06308
2.06499
2.06685
2.06868
2.07046
2.07221
2.07391
2.07556
2.07716
2.07871
2.0802
2.08165
2.08303
2.08436
2.08563
2.08683
2.08798
2.08905
2.09007
2.09101
2.09189
2.09269
2.09343
2.09409
2.09468
2.0952
2.09565
2.09602
2.09631
2.09653
2.09667
2.09674
2.09673
2.09665
2.09649
2.09625
2.09594
2.09555
2.09509
2.09455
2.09394
2.09326
2.09251
2.09168
2.09079
2.08983
2.0888
2.0877
2.08654
2.08532
2.08404
2.08269
2.08129
2.07984
2.07832
2.07676
2.07514
2.07348
2.07176
2.07001
2.06821
2.06637
2.06449
2.06257
2.06062
2.05864
2.05663
2.05459
2.05252
2.05043
2.04832
2.0462
2.04405
2.04189
2.03972
2.03754
2.03535
2.03316
2.03096
2.02876
2.02656
2.02437
2.02218
2.01999
2.01782
2.01566
2.01351
2.01138
2.00926
2.00717
2.00509
2.00304
2.00101
1.99901
1.99704
1.99509
1.99318
1.9913
1.98946
1.98765
1.98588
1.98414
1.98245
1.9808
1.97919
1.97763
1.97611
1.97464
1.97321
1.97184
1.97051
1.96923
1.96801
1.96683
1.96571
1.96465
1.96364
1.96268
1.96178
1.96093
1.96015
1.95942
1.95874
1.95813
1.95758
1.95708
1.95664
1.95627
1.95595
1.9557
1.95551
1.95537
1.95535
1.95549
1.95568
1.95594
1.95626
1.95664
1.95708
1.95758
1.95814
1.95876
1.95944
1.96017
1.96097
1.96182
1.96273
1.9637
1.96472
1.96579
1.96692
1.96811
1.96935
1.97063
1.97197
1.97336
1.9748
1.97629
1.97782
1.9794
1.98102
1.98269
1.9844
1.98615
1.98794
1.98976
1.99162
1.99352
1.99545
1.99741
1.99941
2.00143
2.00347
2.00555
2.00764
2.00976
2.01189
2.01404
2.01621
2.01839
2.02059
2.02279
2.025
2.02721
2.02943
2.03165
2.03386
2.03608
2.03828
2.04048
2.04267
2.04485
2.04701
2.04916
2.05128
2.05339
2.05547
2.05752
2.05955
2.06154
2.0635
2.06543
2.06732
2.06917
2.07098
2.07274
2.07446
2.07613
2.07776
2.07933
2.08084
2.0823
2.08371
2.08505
2.08633
2.08755
2.08871
2.0898
2.09083
2.09179
2.09267
2.09349
2.09423
2.09491
2.09551
2.09603
2.09648
2.09686
2.09715
2.09737
2.09752
2.09759
2.09758
2.09749
2.09733
2.09709
2.09677
2.09638
2.09591
2.09537
2.09475
2.09406
2.0933
2.09247
2.09156
2.09059
2.08955
2.08844
2.08726
2.08603
2.08473
2.08337
2.08195
2.08047
2.07894
2.07735
2.07572
2.07403
2.0723
2.07052
2.0687
2.06683
2.06493
2.06299
2.06101
2.05901
2.05697
2.0549
2.05281
2.05069
2.04856
2.0464
2.04423
2.04204
2.03984
2.03763
2.03541
2.03319
2.03096
2.02874
2.02651
2.02429
2.02207
2.01986
2.01766
2.01547
2.01329
2.01113
2.00899
2.00687
2.00477
2.00269
2.00063
1.99861
1.99661
1.99464
1.9927
1.9908
1.98893
1.9871
1.98531
1.98356
1.98184
1.98017
1.97855
1.97696
1.97543
1.97394
1.97249
1.9711
1.96976
1.96847
1.96723
1.96604
1.96491
1.96383
1.96281
1.96184
1.96093
1.96007
1.95928
1.95854
1.95786
1.95724
1.95668
1.95618
1.95574
1.95536
1.95504
1.95478
1.95459
1.95445
1.95436
1.9545
1.9547
1.95496
1.95528
1.95566
1.95611
1.95662
1.95718
1.95781
1.95849
1.95924
1.96004
1.96091
1.96183
1.9628
1.96384
1.96493
1.96607
1.96727
1.96852
1.96983
1.97118
1.97259
1.97405
1.97555
1.97711
1.97871
1.98035
1.98204
1.98377
1.98554
1.98735
1.9892
1.99109
1.99301
1.99497
1.99696
1.99897
2.00102
2.0031
2.0052
2.00732
2.00946
2.01163
2.01381
2.01601
2.01822
2.02044
2.02267
2.02491
2.02716
2.02941
2.03166
2.0339
2.03615
2.03839
2.04062
2.04283
2.04504
2.04723
2.04941
2.05156
2.0537
2.0558
2.05789
2.05994
2.06196
2.06395
2.0659
2.06782
2.0697
2.07153
2.07332
2.07506
2.07676
2.0784
2.07999
2.08153
2.08301
2.08443
2.08579
2.08709
2.08833
2.0895
2.09061
2.09165
2.09262
2.09352
2.09434
2.0951
2.09578
2.09639
2.09692
2.09737
2.09775
2.09806
2.09828
2.09843
2.0985
2.09849
2.0984
2.09823
2.09799
2.09767
2.09727
2.0968
2.09625
2.09563
2.09493
2.09415
2.09331
2.09239
2.0914
2.09035
2.08923
2.08804
2.08678
2.08547
2.08409
2.08265
2.08115
2.0796
2.07799
2.07634
2.07463
2.07287
2.07107
2.06922
2.06733
2.0654
2.06343
2.06143
2.0594
2.05733
2.05524
2.05311
2.05097
2.0488
2.04662
2.04441
2.0422
2.03997
2.03773
2.03548
2.03323
2.03097
2.02871
2.02645
2.0242
2.02195
2.01971
2.01748
2.01526
2.01306
2.01087
2.00869
2.00654
2.00441
2.00231
2.00023
1.99817
1.99615
1.99415
1.99219
1.99026
1.98837
1.98652
1.9847
1.98292
1.98119
1.9795
1.97785
1.97624
1.97469
1.97318
1.97172
1.97031
1.96895
1.96764
1.96639
1.96519
1.96404
1.96295
1.96191
1.96093
1.96001
1.95915
1.95834
1.95759
1.95691
1.95628
1.95571
1.95521
1.95476
1.95438
1.95405
1.95379
1.9536
1.95346
1.9533
1.95344
1.95364
1.9539
1.95423
1.95462
1.95507
1.95558
1.95615
1.95679
1.95748
1.95824
1.95905
1.95993
1.96086
1.96185
1.96289
1.964
1.96516
1.96637
1.96764
1.96896
1.97034
1.97176
1.97324
1.97476
1.97634
1.97796
1.97962
1.98134
1.98309
1.98489
1.98672
1.9886
1.99051
1.99246
1.99444
1.99646
1.99851
2.00059
2.00269
2.00482
2.00697
2.00915
2.01134
2.01356
2.01579
2.01803
2.02029
2.02255
2.02482
2.0271
2.02938
2.03166
2.03394
2.03622
2.03849
2.04075
2.04301
2.04525
2.04747
2.04968
2.05186
2.05403
2.05617
2.05828
2.06036
2.06241
2.06443
2.06641
2.06836
2.07026
2.07212
2.07393
2.0757
2.07742
2.07909
2.0807
2.08226
2.08376
2.0852
2.08658
2.0879
2.08916
2.09035
2.09147
2.09252
2.0935
2.09442
2.09525
2.09602
2.09671
2.09733
2.09787
2.09833
2.09871
2.09902
2.09925
2.0994
2.09947
2.09946
2.09937
2.0992
2.09895
2.09863
2.09823
2.09775
2.09719
2.09656
2.09585
2.09506
2.09421
2.09328
2.09228
2.09121
2.09007
2.08886
2.08759
2.08625
2.08486
2.0834
2.08188
2.08031
2.07868
2.077
2.07526
2.07348
2.07165
2.06978
2.06786
2.0659
2.06391
2.06188
2.05981
2.05772
2.05559
2.05344
2.05127
2.04907
2.04685
2.04461
2.04237
2.0401
2.03783
2.03555
2.03326
2.03097
2.02868
2.02639
2.02411
2.02183
2.01955
2.01729
2.01504
2.0128
2.01058
2.00838
2.00619
2.00403
2.0019
1.99979
1.9977
1.99565
1.99363
1.99164
1.98968
1.98777
1.98588
1.98404
1.98224
1.98048
1.97877
1.9771
1.97547
1.9739
1.97237
1.97089
1.96946
1.96808
1.96676
1.96549
1.96427
1.96311
1.962
1.96095
1.95996
1.95903
1.95815
1.95734
1.95658
1.95589
1.95525
1.95468
1.95416
1.95371
1.95332
1.953
1.95273
1.95253
1.9524
1.95217
1.95231
1.95251
1.95278
1.95311
1.9535
1.95396
1.95447
1.95506
1.9557
1.9564
1.95717
1.95799
1.95888
1.95982
1.96082
1.96189
1.963
1.96418
1.96541
1.9667
1.96804
1.96943
1.97087
1.97237
1.97392
1.97551
1.97716
1.97885
1.98058
1.98236
1.98419
1.98605
1.98795
1.98989
1.99187
1.99389
1.99593
1.99801
2.00012
2.00225
2.00442
2.0066
2.00881
2.01104
2.01329
2.01555
2.01783
2.02012
2.02242
2.02473
2.02704
2.02935
2.03167
2.03399
2.0363
2.0386
2.0409
2.04319
2.04546
2.04772
2.04996
2.05218
2.05438
2.05655
2.05869
2.06081
2.06289
2.06494
2.06695
2.06892
2.07086
2.07274
2.07459
2.07638
2.07812
2.07982
2.08145
2.08304
2.08456
2.08602
2.08743
2.08876
2.09004
2.09124
2.09238
2.09345
2.09445
2.09537
2.09623
2.097
2.0977
2.09833
2.09887
2.09934
2.09973
2.10004
2.10028
2.10043
2.1005
2.10049
2.1004
2.10023
2.09998
2.09965
2.09924
2.09875
2.09819
2.09755
2.09683
2.09603
2.09516
2.09422
2.0932
2.09212
2.09096
2.08974
2.08845
2.08709
2.08568
2.0842
2.08266
2.08106
2.07941
2.0777
2.07594
2.07413
2.07227
2.07037
2.06843
2.06644
2.06441
2.06235
2.06026
2.05813
2.05597
2.05379
2.05158
2.04935
2.0471
2.04483
2.04254
2.04025
2.03794
2.03562
2.0333
2.03098
2.02865
2.02633
2.024
2.02169
2.01938
2.01708
2.0148
2.01253
2.01027
2.00803
2.00582
2.00363
2.00146
1.99932
1.9972
1.99512
1.99307
1.99105
1.98906
1.98712
1.98521
1.98334
1.98151
1.97973
1.97799
1.9763
1.97465
1.97305
1.9715
1.97
1.96855
1.96715
1.96581
1.96452
1.96329
1.96211
1.96099
1.95993
1.95892
1.95798
1.95709
1.95626
1.9555
1.95479
1.95415
1.95357
1.95305
1.95259
1.9522
1.95187
1.9516
1.9514
1.95126
1.95096
1.9511
1.95131
1.95158
1.95191
1.95231
1.95277
1.9533
1.95389
1.95454
1.95525
1.95603
1.95686
1.95776
1.95872
1.95973
1.96081
1.96194
1.96314
1.96438
1.96569
1.96705
1.96846
1.96993
1.97145
1.97302
1.97464
1.9763
1.97802
1.97978
1.98159
1.98344
1.98533
1.98726
1.98923
1.99124
1.99329
1.99537
1.99748
1.99962
2.00179
2.00398
2.0062
2.00845
2.01071
2.013
2.0153
2.01761
2.01994
2.02227
2.02462
2.02697
2.02932
2.03168
2.03403
2.03638
2.03872
2.04106
2.04338
2.04569
2.04798
2.05026
2.05252
2.05475
2.05696
2.05913
2.06128
2.0634
2.06548
2.06752
2.06953
2.07149
2.07341
2.07528
2.0771
2.07887
2.08059
2.08226
2.08386
2.08541
2.0869
2.08832
2.08968
2.09097
2.0922
2.09335
2.09444
2.09545
2.09639
2.09725
2.09804
2.09875
2.09939
2.09994
2.10042
2.10082
2.10113
2.10137
2.10152
2.10159
2.10158
2.10149
2.10132
2.10106
2.10073
2.10032
2.09982
2.09925
2.0986
2.09787
2.09706
2.09618
2.09522
2.09419
2.09309
2.09191
2.09067
2.08936
2.08798
2.08654
2.08504
2.08348
2.08186
2.08018
2.07844
2.07666
2.07482
2.07293
2.071
2.06903
2.06701
2.06495
2.06286
2.06073
2.05857
2.05637
2.05416
2.05191
2.04964
2.04736
2.04505
2.04273
2.0404
2.03805
2.0357
2.03334
2.03098
2.02861
2.02625
2.02389
2.02154
2.0192
2.01686
2.01454
2.01223
2.00994
2.00767
2.00542
2.00319
2.00099
1.99881
1.99666
1.99455
1.99246
1.99041
1.9884
1.98642
1.98449
1.98259
1.98074
1.97892
1.97716
1.97544
1.97377
1.97214
1.97057
1.96905
1.96758
1.96616
1.9648
1.96349
1.96224
1.96105
1.95991
1.95884
1.95782
1.95686
1.95596
1.95512
1.95434
1.95363
1.95298
1.95239
1.95186
1.9514
1.951
1.95066
1.95039
1.95019
1.95005
1.94968
1.94982
1.95003
1.9503
1.95064
1.95104
1.95151
1.95205
1.95264
1.9533
1.95403
1.95481
1.95566
1.95657
1.95754
1.95857
1.95967
1.96082
1.96203
1.96329
1.96462
1.966
1.96743
1.96892
1.97046
1.97206
1.9737
1.9754
1.97714
1.97893
1.98076
1.98264
1.98456
1.98653
1.98853
1.99057
1.99265
1.99476
1.99691
1.99908
2.00129
2.00352
2.00578
2.00806
2.01036
2.01269
2.01502
2.01738
2.01974
2.02212
2.0245
2.02689
2.02929
2.03168
2.03407
2.03646
2.03884
2.04122
2.04358
2.04593
2.04826
2.05058
2.05287
2.05514
2.05738
2.0596
2.06179
2.06394
2.06605
2.06813
2.07017
2.07216
2.07411
2.07601
2.07787
2.07967
2.08141
2.0831
2.08474
2.08631
2.08782
2.08927
2.09065
2.09196
2.09321
2.09438
2.09548
2.09651
2.09746
2.09834
2.09914