/*--------------------------------*- C++ -*----------------------------------*\
| =========                 |                                                 |
| \\      /  F ield         | OpenFOAM: The Open Source CFD Toolbox           |
|  \\    /   O peration     | Version:  2412                                  |
|   \\  /    A nd           | Website:  www.openfoam.com                      |
|    \\/     M anipulation  |                                                 |
\*---------------------------------------------------------------------------*/
FoamFile
{
    version     2.0;
    format      ascii;
    arch        "LSB;label=32;scalar=64";
    class       surfaceScalarField;
    location    "1.4";
    object      phi;
}
// * * * * * * * * * * * * * * * * * * * * * * * * * * * * * * * * * * * * * //

dimensions      [0 3 -1 0 0 0 0];

oriented        oriented;

internalField   nonuniform List<scalar> 
79600
(
-4.25857e-12
4.31385e-12
2.82919e-12
-7.08797e-12
1.76048e-11
-1.47853e-11
3.55569e-11
-1.79545e-11
5.45243e-11
-1.89508e-11
7.37452e-11
-1.92066e-11
9.29735e-11
-1.92301e-11
1.12129e-10
-1.91656e-11
1.31183e-10
-1.90589e-11
1.50117e-10
-1.89305e-11
1.68911e-10
-1.8789e-11
1.87549e-10
-1.8635e-11
2.06015e-10
-1.8466e-11
2.24294e-10
-1.82806e-11
2.42374e-10
-1.80789e-11
2.60236e-10
-1.78616e-11
2.77867e-10
-1.7629e-11
2.95248e-10
-1.73809e-11
3.12366e-10
-1.71171e-11
3.29203e-10
-1.68374e-11
3.45744e-10
-1.65418e-11
3.61974e-10
-1.62305e-11
3.77877e-10
-1.59036e-11
3.93438e-10
-1.55611e-11
4.08642e-10
-1.52033e-11
4.23472e-10
-1.48301e-11
4.37915e-10
-1.44418e-11
4.51954e-10
-1.40386e-11
4.65576e-10
-1.36209e-11
4.78765e-10
-1.31889e-11
4.91508e-10
-1.27428e-11
5.0379e-10
-1.22827e-11
5.15598e-10
-1.1809e-11
5.26919e-10
-1.13218e-11
5.3774e-10
-1.08212e-11
5.48047e-10
-1.03076e-11
5.57828e-10
-9.78131e-12
5.6707e-10
-9.24283e-12
5.75762e-10
-8.69268e-12
5.83893e-10
-8.13123e-12
5.9145e-10
-7.55877e-12
5.98425e-10
-6.97563e-12
6.04806e-10
-6.38226e-12
6.10585e-10
-5.77919e-12
6.15751e-10
-5.16698e-12
6.20296e-10
-4.54623e-12
6.24213e-10
-3.91756e-12
6.27494e-10
-3.28156e-12
6.30132e-10
-2.63876e-12
6.32122e-10
-1.98967e-12
6.33457e-10
-1.3349e-12
6.34133e-10
-6.7583e-13
6.34139e-10
-5.72668e-15
6.33482e-10
6.579e-13
6.32151e-10
1.33062e-12
6.30146e-10
2.00431e-12
6.27468e-10
2.67716e-12
6.2412e-10
3.34844e-12
6.20102e-10
4.01786e-12
6.15417e-10
4.68495e-12
6.10067e-10
5.34909e-12
6.04057e-10
6.00956e-12
5.97391e-10
6.66562e-12
5.90074e-10
7.31651e-12
5.82113e-10
7.96142e-12
5.73514e-10
8.59945e-12
5.64284e-10
9.22964e-12
5.54432e-10
9.85104e-12
5.43969e-10
1.04627e-11
5.32904e-10
1.10639e-11
5.21248e-10
1.16537e-11
5.09016e-10
1.22315e-11
4.96219e-10
1.27966e-11
4.82871e-10
1.33481e-11
4.68986e-10
1.38855e-11
4.54579e-10
1.44077e-11
4.39665e-10
1.49142e-11
4.24261e-10
1.54042e-11
4.08382e-10
1.5877e-11
3.92048e-10
1.63323e-11
3.75277e-10
1.67695e-11
3.58088e-10
1.71883e-11
3.40499e-10
1.7588e-11
3.22531e-10
1.7968e-11
3.04203e-10
1.83277e-11
2.85535e-10
1.86666e-11
2.6655e-10
1.89844e-11
2.47268e-10
1.92808e-11
2.27712e-10
1.95558e-11
2.07902e-10
1.9809e-11
1.87862e-10
2.00403e-11
1.67612e-10
2.02491e-11
1.47177e-10
2.04352e-11
1.26577e-10
2.05983e-11
1.05837e-10
2.07382e-11
8.49796e-11
2.0855e-11
6.40294e-11
2.09487e-11
4.30095e-11
2.10195e-11
2.19427e-11
2.1067e-11
8.52043e-13
2.10911e-11
-2.02397e-11
2.10918e-11
-4.13091e-11
2.1069e-11
-6.23325e-11
2.10227e-11
-8.32861e-11
2.09532e-11
-1.04147e-10
2.08606e-11
-1.24891e-10
2.07449e-11
-1.45497e-10
2.06059e-11
-1.65942e-10
2.04437e-11
-1.86201e-10
2.02586e-11
-2.06253e-10
2.0051e-11
-2.26074e-10
1.98212e-11
-2.45643e-10
1.95691e-11
-2.64938e-10
1.92951e-11
-2.83938e-10
1.89993e-11
-3.02621e-10
1.86821e-11
-3.20965e-10
1.8344e-11
-3.38951e-10
1.79855e-11
-3.56558e-10
1.76066e-11
-3.73767e-10
1.72078e-11
-3.90558e-10
1.67896e-11
-4.06912e-10
1.63531e-11
-4.22811e-10
1.58985e-11
-4.38237e-10
1.54265e-11
-4.53175e-10
1.49374e-11
-4.67606e-10
1.44316e-11
-4.81517e-10
1.39099e-11
-4.94891e-10
1.33732e-11
-5.07713e-10
1.28222e-11
-5.19972e-10
1.22577e-11
-5.31653e-10
1.16804e-11
-5.42744e-10
1.10908e-11
-5.53236e-10
1.049e-11
-5.63117e-10
9.87862e-12
-5.72377e-10
9.25744e-12
-5.81007e-10
8.62749e-12
-5.88998e-10
7.98991e-12
-5.96344e-10
7.34559e-12
-6.03039e-10
6.69522e-12
-6.09078e-10
6.0392e-12
-6.14457e-10
5.37826e-12
-6.19171e-10
4.71363e-12
-6.23217e-10
4.04612e-12
-6.26593e-10
3.37642e-12
-6.29298e-10
2.70512e-12
-6.3133e-10
2.03227e-12
-6.32688e-10
1.35838e-12
-6.33374e-10
6.85441e-13
-6.33395e-10
1.93159e-14
-6.32748e-10
-6.4881e-13
-6.3144e-10
-1.30791e-12
-6.29478e-10
-1.96284e-12
-6.26868e-10
-2.61186e-12
-6.23613e-10
-3.25446e-12
-6.19722e-10
-3.89057e-12
-6.15203e-10
-4.51876e-12
-6.10063e-10
-5.1391e-12
-6.04311e-10
-5.75208e-12
-5.97956e-10
-6.35606e-12
-5.91004e-10
-6.94992e-12
-5.83469e-10
-7.53322e-12
-5.75361e-10
-8.10592e-12
-5.66691e-10
-8.66829e-12
-5.57472e-10
-9.2189e-12
-5.47715e-10
-9.75726e-12
-5.3743e-10
-1.02841e-11
-5.26633e-10
-1.07981e-11
-5.15334e-10
-1.12984e-11
-5.03547e-10
-1.17861e-11
-4.91286e-10
-1.22609e-11
-4.78565e-10
-1.27213e-11
-4.65398e-10
-1.31677e-11
-4.51797e-10
-1.36005e-11
-4.3778e-10
-1.40183e-11
-4.2336e-10
-1.44204e-11
-4.08551e-10
-1.4808e-11
-3.93371e-10
-1.51803e-11
-3.77833e-10
-1.55368e-11
-3.61953e-10
-1.58784e-11
-3.45747e-10
-1.62051e-11
-3.29231e-10
-1.65163e-11
-3.12418e-10
-1.68117e-11
-2.95326e-10
-1.7091e-11
-2.77972e-10
-1.73542e-11
-2.60372e-10
-1.76007e-11
-2.42541e-10
-1.78304e-11
-2.24495e-10
-1.80441e-11
-2.06253e-10
-1.82421e-11
-1.87829e-10
-1.84237e-11
-1.69238e-10
-1.85897e-11
-1.50498e-10
-1.87403e-11
-1.31623e-10
-1.88749e-11
-1.12626e-10
-1.89948e-11
-9.35232e-11
-1.91017e-11
-7.43316e-11
-1.91915e-11
-5.50976e-11
-1.92333e-11
-3.60221e-11
-1.90758e-11
-1.7858e-11
-1.81632e-11
-2.86845e-12
-1.49858e-11
4.30447e-12
-7.16967e-12
4.30875e-12
6.69732e-12
-2.38349e-12
3.63582e-11
-3.6732e-11
7.96681e-11
-5.80906e-11
1.28438e-10
-6.67467e-11
1.78951e-10
-6.94817e-11
2.29902e-10
-7.01532e-11
2.8086e-10
-7.01729e-11
3.31659e-10
-6.9956e-11
3.82218e-10
-6.96184e-11
4.32481e-10
-6.91987e-11
4.82405e-10
-6.87141e-11
5.31945e-10
-6.81722e-11
5.81059e-10
-6.75755e-11
6.29704e-10
-6.69235e-11
6.77842e-10
-6.62156e-11
7.25433e-10
-6.54516e-11
7.72436e-10
-6.46317e-11
8.18812e-10
-6.37562e-11
8.6452e-10
-6.2825e-11
9.0952e-10
-6.18381e-11
9.53774e-10
-6.07955e-11
9.9724e-10
-5.96971e-11
1.03988e-09
-5.85431e-11
1.08165e-09
-5.73336e-11
1.12252e-09
-5.60692e-11
1.16244e-09
-5.47503e-11
1.20138e-09
-5.33774e-11
1.23929e-09
-5.19508e-11
1.27614e-09
-5.04713e-11
1.31189e-09
-4.89393e-11
1.3465e-09
-4.73553e-11
1.37994e-09
-4.57197e-11
1.41216e-09
-4.4033e-11
1.44313e-09
-4.22958e-11
1.47282e-09
-4.0509e-11
1.50119e-09
-3.86736e-11
1.52819e-09
-3.67905e-11
1.55381e-09
-3.48608e-11
1.578e-09
-3.28856e-11
1.60074e-09
-3.08661e-11
1.62198e-09
-2.88034e-11
1.6417e-09
-2.66985e-11
1.65987e-09
-2.4553e-11
1.67646e-09
-2.23684e-11
1.69144e-09
-2.01464e-11
1.70478e-09
-1.78889e-11
1.71646e-09
-1.55976e-11
1.72645e-09
-1.32743e-11
1.73473e-09
-1.0921e-11
1.74128e-09
-8.53944e-12
1.74608e-09
-6.13107e-12
1.7491e-09
-3.69649e-12
1.75033e-09
-1.23494e-12
1.74974e-09
1.24572e-12
1.74733e-09
3.74346e-12
1.74308e-09
6.24844e-12
1.737e-09
8.75807e-12
1.72908e-09
1.12708e-11
1.71931e-09
1.37852e-11
1.7077e-09
1.62989e-11
1.69424e-09
1.88095e-11
1.67893e-09
2.13141e-11
1.66179e-09
2.38097e-11
1.64281e-09
2.62932e-11
1.62201e-09
2.87611e-11
1.5994e-09
3.12101e-11
1.57499e-09
3.36366e-11
1.5488e-09
3.60372e-11
1.52086e-09
3.84084e-11
1.49117e-09
4.07469e-11
1.45977e-09
4.30493e-11
1.42669e-09
4.53122e-11
1.39196e-09
4.75321e-11
1.3556e-09
4.97058e-11
1.31766e-09
5.18298e-11
1.27816e-09
5.3901e-11
1.23716e-09
5.59162e-11
1.19469e-09
5.78727e-11
1.1508e-09
5.97674e-11
1.10553e-09
6.15976e-11
1.05894e-09
6.33605e-11
1.01107e-09
6.50532e-11
9.61986e-10
6.66727e-11
9.11736e-10
6.82165e-11
8.60381e-10
6.96819e-11
8.07979e-10
7.10669e-11
7.54592e-10
7.23694e-11
7.00284e-10
7.35877e-11
6.45119e-10
7.47198e-11
5.89164e-10
7.5764e-11
5.32485e-10
7.67185e-11
4.75151e-10
7.75818e-11
4.17232e-10
7.83525e-11
3.58798e-10
7.90294e-11
2.99921e-10
7.96117e-11
2.40675e-10
8.00986e-11
1.81134e-10
8.04895e-11
1.2137e-10
8.07836e-11
6.14569e-11
8.09802e-11
1.46895e-12
8.10789e-11
-5.85203e-11
8.10802e-11
-1.18437e-10
8.09843e-11
-1.78205e-10
8.07909e-11
-2.37753e-10
8.05003e-11
-2.97005e-10
8.01129e-11
-3.55889e-10
7.9629e-11
-4.14334e-10
7.90493e-11
-4.72266e-10
7.83748e-11
-5.29615e-10
7.76066e-11
-5.8631e-10
7.67461e-11
-6.42284e-10
7.57946e-11
-6.97468e-10
7.47533e-11
-7.51797e-10
7.36236e-11
-8.05207e-10
7.24076e-11
-8.57632e-10
7.11071e-11
-9.09013e-10
6.97241e-11
-9.59289e-10
6.82606e-11
-1.0084e-09
6.67191e-11
-1.0563e-09
6.5102e-11
-1.10292e-09
6.34119e-11
-1.14822e-09
6.16519e-11
-1.19215e-09
5.98243e-11
-1.23465e-09
5.79316e-11
-1.27569e-09
5.59765e-11
-1.31522e-09
5.39623e-11
-1.35321e-09
5.18921e-11
-1.3896e-09
4.97693e-11
-1.42438e-09
4.7597e-11
-1.4575e-09
4.53783e-11
-1.48894e-09
4.31168e-11
-1.51867e-09
4.08156e-11
-1.54666e-09
3.84782e-11
-1.57289e-09
3.6108e-11
-1.59735e-09
3.37086e-11
-1.62001e-09
3.12835e-11
-1.64085e-09
2.88362e-11
-1.65988e-09
2.63696e-11
-1.67707e-09
2.3887e-11
-1.69242e-09
2.13914e-11
-1.70593e-09
1.88861e-11
-1.71759e-09
1.63747e-11
-1.72741e-09
1.38604e-11
-1.73538e-09
1.13455e-11
-1.7415e-09
8.83204e-12
-1.74579e-09
6.32171e-12
-1.74825e-09
3.81594e-12
-1.74889e-09
1.31756e-12
-1.7477e-09
-1.16422e-12
-1.74473e-09
-3.62553e-12
-1.73998e-09
-6.05943e-12
-1.73347e-09
-8.46734e-12
-1.72524e-09
-1.08486e-11
-1.71529e-09
-1.32007e-11
-1.70366e-09
-1.55229e-11
-1.69036e-09
-1.7814e-11
-1.67543e-09
-2.00716e-11
-1.65889e-09
-2.22943e-11
-1.64076e-09
-2.44799e-11
-1.62108e-09
-2.6626e-11
-1.59988e-09
-2.87319e-11
-1.57719e-09
-3.07962e-11
-1.55304e-09
-3.28174e-11
-1.52746e-09
-3.47942e-11
-1.5005e-09
-3.67243e-11
-1.47217e-09
-3.86076e-11
-1.44252e-09
-4.0444e-11
-1.41159e-09
-4.22309e-11
-1.37941e-09
-4.39683e-11
-1.34601e-09
-4.56564e-11
-1.31144e-09
-4.72939e-11
-1.27573e-09
-4.88791e-11
-1.23892e-09
-5.04116e-11
-1.20105e-09
-5.18911e-11
-1.16215e-09
-5.33162e-11
-1.12227e-09
-5.46868e-11
-1.08145e-09
-5.60032e-11
-1.03972e-09
-5.72648e-11
-9.97119e-10
-5.84721e-11
-9.53697e-10
-5.9626e-11
-9.0949e-10
-6.07244e-11
-8.64534e-10
-6.17662e-11
-8.18872e-10
-6.27518e-11
-7.72546e-10
-6.36809e-11
-7.25593e-10
-6.45524e-11
-6.78056e-10
-6.53667e-11
-6.29974e-10
-6.61245e-11
-5.81389e-10
-6.68268e-11
-5.3234e-10
-6.74727e-11
-4.82866e-10
-6.80621e-11
-4.33008e-10
-6.85966e-11
-3.82806e-10
-6.90759e-11
-3.32299e-10
-6.95002e-11
-2.81528e-10
-6.98703e-11
-2.30548e-10
-7.01714e-11
-1.79474e-10
-7.03053e-11
-1.2871e-10
-6.9839e-11
-7.96253e-11
-6.72501e-11
-3.61263e-11
-5.84904e-11
-6.54521e-12
-3.67588e-11
-2.23395e-12
1.37827e-11
-1.6176e-11
5.64147e-11
-7.93586e-11
1.14323e-10
-1.15974e-10
1.78123e-10
-1.30539e-10
2.43705e-10
-1.35074e-10
3.09676e-10
-1.36134e-10
3.75609e-10
-1.36104e-10
4.41344e-10
-1.35684e-10
5.06791e-10
-1.3506e-10
5.71881e-10
-1.34288e-10
6.36555e-10
-1.33389e-10
7.00757e-10
-1.32374e-10
7.64433e-10
-1.31249e-10
8.27527e-10
-1.30016e-10
8.8999e-10
-1.28675e-10
9.51767e-10
-1.27228e-10
1.01281e-09
-1.25673e-10
1.07307e-09
-1.24012e-10
1.13249e-09
-1.22244e-10
1.19102e-09
-1.2037e-10
1.24861e-09
-1.18389e-10
1.30522e-09
-1.16302e-10
1.36078e-09
-1.14108e-10
1.41526e-09
-1.11808e-10
1.46859e-09
-1.09403e-10
1.52074e-09
-1.06893e-10
1.57164e-09
-1.04279e-10
1.62125e-09
-1.01562e-10
1.66952e-09
-9.87414e-11
1.7164e-09
-9.58189e-11
1.76184e-09
-9.2795e-11
1.80579e-09
-8.96704e-11
1.8482e-09
-8.64459e-11
1.88903e-09
-8.31226e-11
1.92822e-09
-7.97019e-11
1.96573e-09
-7.61853e-11
2.00151e-09
-7.25745e-11
2.03552e-09
-6.88711e-11
2.06771e-09
-6.50768e-11
2.09804e-09
-6.11935e-11
2.12646e-09
-5.72233e-11
2.15293e-09
-5.31684e-11
2.1774e-09
-4.90311e-11
2.19985e-09
-4.48142e-11
2.22022e-09
-4.05208e-11
2.23849e-09
-3.61538e-11
2.2546e-09
-3.17165e-11
2.26854e-09
-2.72121e-11
2.28026e-09
-2.26442e-11
2.28974e-09
-1.80162e-11
2.29694e-09
-1.33316e-11
2.30184e-09
-8.59369e-12
2.30441e-09
-3.8063e-12
2.30464e-09
1.02406e-12
2.30248e-09
5.89966e-12
2.29793e-09
1.07965e-11
2.29098e-09
1.57141e-11
2.2816e-09
2.06489e-11
2.26978e-09
2.55967e-11
2.25553e-09
3.05525e-11
2.23883e-09
3.55106e-11
2.21968e-09
4.04651e-11
2.19808e-09
4.54099e-11
2.17403e-09
5.03385e-11
2.14755e-09
5.52441e-11
2.11864e-09
6.01198e-11
2.08732e-09
6.49588e-11
2.0536e-09
6.97541e-11
2.01751e-09
7.44988e-11
1.97907e-09
7.91859e-11
1.93831e-09
8.38083e-11
1.89526e-09
8.8359e-11
1.84996e-09
9.28309e-11
1.80245e-09
9.72169e-11
1.75277e-09
1.0151e-10
1.70097e-09
1.05703e-10
1.64709e-09
1.0979e-10
1.5912e-09
1.13764e-10
1.53335e-09
1.17618e-10
1.4736e-09
1.21346e-10
1.41202e-09
1.24942e-10
1.34867e-09
1.284e-10
1.28363e-09
1.31712e-10
1.21697e-09
1.34874e-10
1.14877e-09
1.3788e-10
1.07911e-09
1.40724e-10
1.00808e-09
1.43403e-10
9.35756e-10
1.45911e-10
8.62232e-10
1.48244e-10
7.87598e-10
1.50398e-10
7.11949e-10
1.52368e-10
6.35379e-10
1.54151e-10
5.57985e-10
1.55745e-10
4.79867e-10
1.57145e-10
4.01125e-10
1.58351e-10
3.21863e-10
1.59359e-10
2.42183e-10
1.60169e-10
1.62189e-10
1.60778e-10
8.1984e-11
1.61185e-10
1.67288e-12
1.61389e-10
-7.86395e-11
1.61392e-10
-1.58848e-10
1.61192e-10
-2.38847e-10
1.6079e-10
-3.18533e-10
1.60187e-10
-3.97803e-10
1.59383e-10
-4.76554e-10
1.58379e-10
-5.54684e-10
1.57178e-10
-6.32092e-10
1.55782e-10
-7.08678e-10
1.54193e-10
-7.84346e-10
1.52414e-10
-8.59e-10
1.50448e-10
-9.32546e-10
1.48299e-10
-1.00489e-09
1.45971e-10
-1.07595e-09
1.43467e-10
-1.14564e-09
1.40792e-10
-1.21386e-09
1.37951e-10
-1.28055e-09
1.34948e-10
-1.34563e-09
1.3179e-10
-1.40901e-09
1.28482e-10
-1.47062e-09
1.25029e-10
-1.53041e-09
1.21437e-10
-1.58829e-09
1.17713e-10
-1.64422e-09
1.13862e-10
-1.69814e-09
1.0989e-10
-1.74998e-09
1.05806e-10
-1.79971e-09
1.01614e-10
-1.84726e-09
9.73235e-11
-1.89261e-09
9.29398e-11
-1.9357e-09
8.847e-11
-1.97651e-09
8.39213e-11
-2.01499e-09
7.93008e-11
-2.05113e-09
7.46154e-11
-2.0849e-09
6.98724e-11
-2.11627e-09
6.50789e-11
-2.14523e-09
6.02421e-11
-2.17177e-09
5.53687e-11
-2.19586e-09
5.04649e-11
-2.21752e-09
4.55375e-11
-2.23672e-09
4.05931e-11
-2.25347e-09
3.56385e-11
-2.26778e-09
3.06798e-11
-2.27964e-09
2.57234e-11
-2.28907e-09
2.07746e-11
-2.29607e-09
1.58385e-11
-2.30067e-09
1.09196e-11
-2.30288e-09
6.02159e-12
-2.30271e-09
1.14546e-12
-2.30019e-09
-3.68592e-12
-2.29534e-09
-8.47331e-12
-2.28819e-09
-1.32107e-11
-2.27876e-09
-1.78943e-11
-2.26709e-09
-2.25216e-11
-2.2532e-09
-2.70884e-11
-2.23713e-09
-3.15915e-11
-2.21891e-09
-3.60292e-11
-2.19859e-09
-4.03972e-11
-2.17619e-09
-4.46915e-11
-2.15176e-09
-4.89096e-11
-2.12534e-09
-5.30481e-11
-2.09696e-09
-5.7105e-11
-2.06668e-09
-6.10776e-11
-2.03453e-09
-6.49627e-11
-2.00057e-09
-6.87588e-11
-1.96483e-09
-7.24637e-11
-1.92736e-09
-7.60749e-11
-1.88821e-09
-7.95923e-11
-1.84743e-09
-8.30142e-11
-1.80506e-09
-8.63382e-11
-1.76115e-09
-8.95642e-11
-1.71575e-09
-9.26911e-11
-1.66891e-09
-9.57169e-11
-1.62068e-09
-9.86401e-11
-1.57111e-09
-1.01461e-10
-1.52025e-09
-1.04177e-10
-1.46815e-09
-1.06789e-10
-1.41485e-09
-1.09296e-10
-1.36042e-09
-1.11699e-10
-1.30489e-09
-1.13997e-10
-1.24833e-09
-1.1619e-10
-1.19077e-09
-1.18277e-10
-1.13228e-09
-1.20258e-10
-1.0729e-09
-1.22131e-10
-1.01269e-09
-1.23897e-10
-9.51683e-10
-1.25554e-10
-8.89945e-10
-1.27104e-10
-8.27523e-10
-1.28547e-10
-7.64467e-10
-1.29883e-10
-7.00827e-10
-1.31112e-10
-6.36655e-10
-1.32235e-10
-5.71999e-10
-1.33251e-10
-5.06911e-10
-1.34161e-10
-4.41444e-10
-1.34967e-10
-3.75651e-10
-1.35663e-10
-3.09604e-10
-1.36218e-10
-2.43449e-10
-1.36458e-10
-1.77647e-10
-1.35638e-10
-1.137e-10
-1.31194e-10
-5.58654e-11
-1.16322e-10
-1.35389e-11
-7.90879e-11
-1.57727e-11
1.63666e-11
-3.25466e-11
6.38729e-11
-1.26889e-10
1.2733e-10
-1.79424e-10
1.96758e-10
-1.99953e-10
2.67879e-10
-2.0619e-10
3.39282e-10
-2.07541e-10
4.10574e-10
-2.074e-10
4.81627e-10
-2.06737e-10
5.52369e-10
-2.05798e-10
6.22733e-10
-2.04649e-10
6.92659e-10
-2.03313e-10
7.62088e-10
-2.01802e-10
8.30963e-10
-2.00122e-10
8.99226e-10
-1.98276e-10
9.66821e-10
-1.96268e-10
1.03369e-09
-1.94097e-10
1.09978e-09
-1.91765e-10
1.16504e-09
-1.89271e-10
1.22942e-09
-1.86616e-10
1.29285e-09
-1.838e-10
1.35528e-09
-1.80823e-10
1.41666e-09
-1.77685e-10
1.47694e-09
-1.74387e-10
1.53606e-09
-1.70928e-10
1.59397e-09
-1.6731e-10
1.65061e-09
-1.63533e-10
1.70593e-09
-1.59598e-10
1.75988e-09
-1.55506e-10
1.81239e-09
-1.51257e-10
1.86342e-09
-1.46852e-10
1.91292e-09
-1.42292e-10
1.96083e-09
-1.37578e-10
2.00709e-09
-1.32712e-10
2.05166e-09
-1.27694e-10
2.09449e-09
-1.22527e-10
2.13551e-09
-1.17212e-10
2.17469e-09
-1.11751e-10
2.21196e-09
-1.06148e-10
2.24729e-09
-1.00403e-10
2.28062e-09
-9.45209e-11
2.3119e-09
-8.85031e-11
2.34108e-09
-8.23532e-11
2.36813e-09
-7.60748e-11
2.39298e-09
-6.96717e-11
2.41561e-09
-6.3148e-11
2.43596e-09
-5.65079e-11
2.454e-09
-4.97562e-11
2.46969e-09
-4.28976e-11
2.48298e-09
-3.59372e-11
2.49384e-09
-2.88807e-11
2.50225e-09
-2.1734e-11
2.50816e-09
-1.45036e-11
2.51155e-09
-7.19645e-12
2.5124e-09
1.79017e-13
2.51068e-09
7.6223e-12
2.50636e-09
1.51149e-11
2.49942e-09
2.26519e-11
2.48984e-09
3.0226e-11
2.47761e-09
3.78293e-11
2.4627e-09
4.54534e-11
2.44512e-09
5.30891e-11
2.42486e-09
6.07271e-11
2.40191e-09
6.83576e-11
2.37628e-09
7.59705e-11
2.34797e-09
8.35552e-11
2.31699e-09
9.11013e-11
2.28336e-09
9.85981e-11
2.24707e-09
1.06035e-10
2.20817e-09
1.134e-10
2.16667e-09
1.20684e-10
2.1226e-09
1.27875e-10
2.076e-09
1.34961e-10
2.0269e-09
1.41932e-10
1.97534e-09
1.48776e-10
1.92137e-09
1.55482e-10
1.86503e-09
1.62039e-10
1.80639e-09
1.68435e-10
1.74549e-09
1.7466e-10
1.6824e-09
1.80703e-10
1.6172e-09
1.86554e-10
1.54994e-09
1.92202e-10
1.4807e-09
1.97636e-10
1.40956e-09
2.02847e-10
1.33661e-09
2.07826e-10
1.26192e-09
2.12563e-10
1.1856e-09
2.17049e-10
1.10772e-09
2.21277e-10
1.0284e-09
2.25238e-10
9.47717e-10
2.28924e-10
8.65786e-10
2.32329e-10
7.82708e-10
2.35446e-10
6.9859e-10
2.38268e-10
6.13542e-10
2.40791e-10
5.27675e-10
2.4301e-10
4.41103e-10
2.44921e-10
3.53942e-10
2.46519e-10
2.66307e-10
2.47802e-10
1.78317e-10
2.48767e-10
9.00884e-11
2.49413e-10
1.74002e-12
2.49737e-10
-8.66094e-11
2.4974e-10
-1.74841e-10
2.49423e-10
-2.62836e-10
2.48785e-10
-3.50477e-10
2.47828e-10
-4.37646e-10
2.46552e-10
-5.24229e-10
2.44961e-10
-6.10108e-10
2.43057e-10
-6.95171e-10
2.40844e-10
-7.79305e-10
2.38327e-10
-8.62402e-10
2.3551e-10
-9.44354e-10
2.324e-10
-1.02506e-09
2.29002e-10
-1.10441e-09
2.25321e-10
-1.18231e-09
2.21367e-10
-1.25866e-09
2.17145e-10
-1.33337e-09
2.12664e-10
-1.40636e-09
2.07933e-10
-1.47753e-09
2.02959e-10
-1.5468e-09
1.97753e-10
-1.61409e-09
1.92324e-10
-1.67934e-09
1.86682e-10
-1.74246e-09
1.80836e-10
-1.8034e-09
1.74796e-10
-1.86208e-09
1.68575e-10
-1.91846e-09
1.62182e-10
-1.97248e-09
1.5563e-10
-2.02408e-09
1.48927e-10
-2.07323e-09
1.42087e-10
-2.11988e-09
1.35119e-10
-2.16399e-09
1.28035e-10
-2.20554e-09
1.20846e-10
-2.24449e-09
1.13565e-10
-2.28082e-09
1.06201e-10
-2.31451e-09
9.87663e-11
-2.34555e-09
9.1272e-11
-2.37391e-09
8.37284e-11
-2.39959e-09
7.61458e-11
-2.42259e-09
6.85347e-11
-2.4429e-09
6.09055e-11
-2.46053e-09
5.32683e-11
-2.47548e-09
4.56328e-11
-2.48777e-09
3.80081e-11
-2.4974e-09
3.04035e-11
-2.50438e-09
2.28278e-11
-2.50875e-09
1.5289e-11
-2.51053e-09
7.79464e-12
-2.50973e-09
3.5044e-13
-2.50639e-09
-7.02633e-12
-2.50053e-09
-1.43336e-11
-2.49218e-09
-2.15639e-11
-2.48137e-09
-2.87095e-11
-2.46812e-09
-3.57649e-11
-2.45248e-09
-4.27246e-11
-2.43449e-09
-4.95829e-11
-2.41418e-09
-5.63357e-11
-2.39161e-09
-6.29776e-11
-2.36679e-09
-6.95027e-11
-2.33979e-09
-7.59075e-11
-2.31065e-09
-8.21882e-11
-2.27942e-09
-8.83404e-11
-2.24613e-09
-9.43607e-11
-2.21085e-09
-1.00245e-10
-2.17361e-09
-1.05992e-10
-2.13448e-09
-1.11597e-10
-2.0935e-09
-1.17059e-10
-2.05071e-09
-1.22375e-10
-2.00618e-09
-1.27544e-10
-1.95996e-09
-1.32564e-10
-1.91209e-09
-1.37433e-10
-1.86263e-09
-1.42149e-10
-1.81163e-09
-1.46711e-10
-1.75916e-09
-1.51117e-10
-1.70525e-09
-1.55367e-10
-1.64997e-09
-1.5946e-10
-1.59336e-09
-1.63394e-10
-1.53548e-09
-1.67169e-10
-1.4764e-09
-1.70786e-10
-1.41615e-09
-1.74244e-10
-1.3548e-09
-1.77543e-10
-1.29239e-09
-1.80681e-10
-1.22899e-09
-1.83659e-10
-1.16465e-09
-1.86475e-10
-1.09941e-09
-1.89129e-10
-1.03335e-09
-1.91622e-10
-9.66496e-10
-1.93954e-10
-8.98919e-10
-1.96124e-10
-8.30669e-10
-1.98133e-10
-7.618e-10
-1.99981e-10
-6.92365e-10
-2.0167e-10
-6.22418e-10
-2.03197e-10
-5.52013e-10
-2.04564e-10
-4.81207e-10
-2.05772e-10
-4.10058e-10
-2.06812e-10
-3.3864e-10
-2.07636e-10
-2.67102e-10
-2.07996e-10
-1.95903e-10
-2.0684e-10
-1.26535e-10
-2.00562e-10
-6.33233e-11
-1.7953e-10
-1.61566e-11
-1.26255e-10
-3.19301e-11
1.69564e-11
-4.94882e-11
6.58381e-11
-1.75791e-10
1.31022e-10
-2.4462e-10
2.02278e-10
-2.71203e-10
2.7521e-10
-2.79114e-10
3.4837e-10
-2.80697e-10
4.21363e-10
-2.80394e-10
4.9408e-10
-2.79454e-10
5.66461e-10
-2.78178e-10
6.38452e-10
-2.76637e-10
7.09995e-10
-2.74854e-10
7.81033e-10
-2.72838e-10
8.51508e-10
-2.70595e-10
9.21364e-10
-2.68131e-10
9.90545e-10
-2.65446e-10
1.05899e-09
-2.62543e-10
1.12665e-09
-2.59423e-10
1.19347e-09
-2.56086e-10
1.25938e-09
-2.52533e-10
1.32435e-09
-2.48763e-10
1.3883e-09
-2.44776e-10
1.45119e-09
-2.40573e-10
1.51296e-09
-2.36155e-10
1.57356e-09
-2.31521e-10
1.63292e-09
-2.26673e-10
1.691e-09
-2.21611e-10
1.74773e-09
-2.16336e-10
1.80307e-09
-2.10848e-10
1.85696e-09
-2.05149e-10
1.90935e-09
-1.99238e-10
1.96017e-09
-1.93118e-10
2.00938e-09
-1.86789e-10
2.05693e-09
-1.80253e-10
2.10274e-09
-1.73513e-10
2.14679e-09
-1.66569e-10
2.189e-09
-1.59424e-10
2.22933e-09
-1.52082e-10
2.26772e-09
-1.44544e-10
2.30413e-09
-1.36813e-10
2.3385e-09
-1.28894e-10
2.37079e-09
-1.20789e-10
2.40094e-09
-1.12504e-10
2.42891e-09
-1.04042e-10
2.45464e-09
-9.54084e-11
2.4781e-09
-8.66083e-11
2.49924e-09
-7.76472e-11
2.51801e-09
-6.85311e-11
2.53438e-09
-5.92662e-11
2.54831e-09
-4.98598e-11
2.55975e-09
-4.03192e-11
2.56867e-09
-3.06527e-11
2.57503e-09
-2.08694e-11
2.57882e-09
-1.09791e-11
2.57999e-09
-9.91368e-13
2.57852e-09
9.08649e-12
2.57439e-09
1.92438e-11
2.56757e-09
2.94705e-11
2.55804e-09
3.97556e-11
2.54578e-09
5.00879e-11
2.53078e-09
6.04552e-11
2.51302e-09
7.08451e-11
2.49251e-09
8.12446e-11
2.46923e-09
9.16403e-11
2.44318e-09
1.02018e-10
2.41437e-09
1.12364e-10
2.38281e-09
1.22664e-10
2.34851e-09
1.32903e-10
2.31147e-09
1.43066e-10
2.27173e-09
1.53139e-10
2.22931e-09
1.63107e-10
2.18423e-09
1.72953e-10
2.13653e-09
1.82663e-10
2.08624e-09
1.92221e-10
2.0334e-09
2.01611e-10
1.97807e-09
2.10817e-10
1.92028e-09
2.19824e-10
1.8601e-09
2.28616e-10
1.79758e-09
2.37177e-10
1.73279e-09
2.45493e-10
1.6658e-09
2.53548e-10
1.59667e-09
2.61328e-10
1.52549e-09
2.68818e-10
1.45233e-09
2.76005e-10
1.37728e-09
2.82874e-10
1.30043e-09
2.89413e-10
1.22187e-09
2.9561e-10
1.14169e-09
3.01452e-10
1.06e-09
3.06927e-10
9.76903e-10
3.12024e-10
8.92498e-10
3.16734e-10
8.06897e-10
3.21046e-10
7.20212e-10
3.24953e-10
6.32555e-10
3.28446e-10
5.44044e-10
3.3152e-10
4.54796e-10
3.34166e-10
3.64933e-10
3.36381e-10
2.74576e-10
3.38159e-10
1.83847e-10
3.39496e-10
9.28688e-11
3.4039e-10
1.76585e-12
3.40839e-10
-8.93379e-11
3.40844e-10
-1.80318e-10
3.40404e-10
-2.71052e-10
3.3952e-10
-3.61416e-10
3.38192e-10
-4.51288e-10
3.36423e-10
-5.40547e-10
3.34218e-10
-6.29071e-10
3.31579e-10
-7.16742e-10
3.28514e-10
-8.03445e-10
3.25029e-10
-8.89064e-10
3.2113e-10
-9.7349e-10
3.16825e-10
-1.05661e-09
3.12124e-10
-1.13833e-09
3.07035e-10
-1.21853e-09
3.01568e-10
-1.29712e-09
2.95735e-10
-1.374e-09
2.89546e-10
-1.44908e-09
2.83014e-10
-1.52227e-09
2.76151e-10
-1.59348e-09
2.68971e-10
-1.66265e-09
2.61487e-10
-1.72968e-09
2.53713e-10
-1.79451e-09
2.45663e-10
-1.85707e-09
2.37352e-10
-1.91729e-09
2.28796e-10
-1.97512e-09
2.2001e-10
-2.03049e-09
2.11008e-10
-2.08337e-09
2.01807e-10
-2.13371e-09
1.92422e-10
-2.18146e-09
1.82868e-10
-2.22659e-09
1.73161e-10
-2.26906e-09
1.63317e-10
-2.30885e-09
1.53351e-10
-2.34593e-09
1.43281e-10
-2.38028e-09
1.33119e-10
-2.4119e-09
1.22883e-10
-2.44076e-09
1.12586e-10
-2.46685e-09
1.02242e-10
-2.49019e-09
9.18668e-11
-2.51075e-09
8.14733e-11
-2.52856e-09
7.10755e-11
-2.54361e-09
6.06864e-11
-2.55592e-09
5.03186e-11
-2.5655e-09
3.99851e-11
-2.57237e-09
2.9698e-11
-2.57656e-09
1.94692e-11
-2.57807e-09
9.30965e-12
-2.57695e-09
-7.70158e-13
-2.57322e-09
-1.07595e-11
-2.5669e-09
-2.06504e-11
-2.55803e-09
-3.04338e-11
-2.54664e-09
-4.00996e-11
-2.53277e-09
-4.96391e-11
-2.51644e-09
-5.90455e-11
-2.49772e-09
-6.83112e-11
-2.47663e-09
-7.74287e-11
-2.45321e-09
-8.63921e-11
-2.42752e-09
-9.51946e-11
-2.3996e-09
-1.03831e-10
-2.36949e-09
-1.12296e-10
-2.33724e-09
-1.20584e-10
-2.30291e-09
-1.28691e-10
-2.26654e-09
-1.36613e-10
-2.22819e-09
-1.44346e-10
-2.1879e-09
-1.51886e-10
-2.14573e-09
-1.59232e-10
-2.10172e-09
-1.66378e-10
-2.05594e-09
-1.73324e-10
-2.00844e-09
-1.80068e-10
-1.95927e-09
-1.86606e-10
-1.90848e-09
-1.92937e-10
-1.85613e-09
-1.9906e-10
-1.80227e-09
-2.04974e-10
-1.74696e-09
-2.10675e-10
-1.69026e-09
-2.16164e-10
-1.63221e-09
-2.21441e-10
-1.57288e-09
-2.26503e-10
-1.51231e-09
-2.31352e-10
-1.45057e-09
-2.35986e-10
-1.3877e-09
-2.40406e-10
-1.32377e-09
-2.4461e-10
-1.25883e-09
-2.48599e-10
-1.19294e-09
-2.52371e-10
-1.12614e-09
-2.55927e-10
-1.05849e-09
-2.59267e-10
-9.90058e-10
-2.6239e-10
-9.20884e-10
-2.65297e-10
-8.51029e-10
-2.67989e-10
-7.80545e-10
-2.70465e-10
-7.09488e-10
-2.72726e-10
-6.37914e-10
-2.74771e-10
-5.65877e-10
-2.76601e-10
-4.93432e-10
-2.78215e-10
-4.20641e-10
-2.79603e-10
-3.47574e-10
-2.80702e-10
-2.74377e-10
-2.81192e-10
-2.01497e-10
-2.79723e-10
-1.30414e-10
-2.71646e-10
-6.54898e-11
-2.44453e-10
-1.6846e-11
-1.74899e-10
-4.87767e-11
1.70004e-11
-6.64757e-11
6.6208e-11
-2.24998e-10
1.31914e-10
-3.10338e-10
2.03794e-10
-3.43087e-10
2.77388e-10
-3.52704e-10
3.51206e-10
-3.54511e-10
4.24836e-10
-3.54021e-10
4.98164e-10
-3.52782e-10
5.71138e-10
-3.51152e-10
6.43708e-10
-3.49207e-10
7.15823e-10
-3.46967e-10
7.87426e-10
-3.4444e-10
8.58464e-10
-3.41631e-10
9.28879e-10
-3.38544e-10
9.98615e-10
-3.35182e-10
1.06762e-09
-3.31545e-10
1.13583e-09
-3.27636e-10
1.2032e-09
-3.23453e-10
1.26966e-09
-3.18999e-10
1.33517e-09
-3.14272e-10
1.39967e-09
-3.09273e-10
1.4631e-09
-3.04003e-10
1.52541e-09
-2.98462e-10
1.58654e-09
-2.9265e-10
1.64643e-09
-2.86569e-10
1.70504e-09
-2.80218e-10
1.7623e-09
-2.73598e-10
1.81816e-09
-2.66709e-10
1.87256e-09
-2.59554e-10
1.92545e-09
-2.52132e-10
1.97678e-09
-2.44446e-10
2.02649e-09
-2.36496e-10
2.07452e-09
-2.28284e-10
2.12082e-09
-2.19813e-10
2.16533e-09
-2.11085e-10
2.20801e-09
-2.02103e-10
2.2488e-09
-1.92869e-10
2.28764e-09
-1.83387e-10
2.32449e-09
-1.7366e-10
2.35928e-09
-1.63693e-10
2.39198e-09
-1.5349e-10
2.42254e-09
-1.43057e-10
2.45089e-09
-1.32398e-10
2.477e-09
-1.2152e-10
2.50082e-09
-1.10429e-10
2.5223e-09
-9.91307e-11
2.54141e-09
-8.76334e-11
2.55808e-09
-7.59449e-11
2.5723e-09
-6.40739e-11
2.58401e-09
-5.20298e-11
2.59318e-09
-3.98231e-11
2.59978e-09
-2.74646e-11
2.60377e-09
-1.49661e-11
2.60511e-09
-2.33889e-12
2.60379e-09
1.04048e-11
2.59978e-09
2.32558e-11
2.59305e-09
3.62005e-11
2.58358e-09
4.9225e-11
2.57135e-09
6.23146e-11
2.55635e-09
7.54542e-11
2.53857e-09
8.86278e-11
2.518e-09
1.01819e-10
2.49463e-09
1.15011e-10
2.46846e-09
1.28185e-10
2.4395e-09
1.41325e-10
2.40775e-09
1.54411e-10
2.37323e-09
1.67426e-10
2.33595e-09
1.8035e-10
2.29592e-09
1.93165e-10
2.25317e-09
2.05851e-10
2.20774e-09
2.18389e-10
2.15964e-09
2.30758e-10
2.10892e-09
2.42938e-10
2.05563e-09
2.5491e-10
1.99979e-09
2.66651e-10
1.94147e-09
2.78143e-10
1.88072e-09
2.89365e-10
1.8176e-09
3.00297e-10
1.75218e-09
3.1092e-10
1.68451e-09
3.21213e-10
1.61468e-09
3.31158e-10
1.54276e-09
3.40737e-10
1.46883e-09
3.4993e-10
1.39298e-09
3.58721e-10
1.3153e-09
3.67092e-10
1.23589e-09
3.75026e-10
1.15483e-09
3.82508e-10
1.07224e-09
3.89522e-10
9.88205e-10
3.96054e-10
9.02847e-10
4.02091e-10
8.16272e-10
4.0762e-10
7.28595e-10
4.1263e-10
6.39929e-10
4.17111e-10
5.50395e-10
4.21053e-10
4.60111e-10
4.24449e-10
3.69201e-10
4.2729e-10
2.77787e-10
4.29571e-10
1.85995e-10
4.31287e-10
9.39503e-11
4.32435e-10
1.77833e-12
4.33012e-10
-9.03944e-11
4.33018e-10
-1.82442e-10
4.32453e-10
-2.74238e-10
4.31317e-10
-3.65659e-10
4.29612e-10
-4.56579e-10
4.27342e-10
-5.46874e-10
4.24511e-10
-6.36422e-10
4.21126e-10
-7.25102e-10
4.17194e-10
-8.12797e-10
4.12723e-10
-8.9939e-10
4.07723e-10
-9.84769e-10
4.02204e-10
-1.06882e-09
3.96177e-10
-1.15144e-09
3.89656e-10
-1.23253e-09
3.82652e-10
-1.31197e-09
3.7518e-10
-1.38968e-09
3.67255e-10
-1.46556e-09
3.58893e-10
-1.53952e-09
3.50111e-10
-1.61147e-09
3.40925e-10
-1.68134e-09
3.31354e-10
-1.74904e-09
3.21416e-10
-1.81451e-09
3.11129e-10
-1.87767e-09
3.00513e-10
-1.93846e-09
2.89587e-10
-1.99682e-09
2.78372e-10
-2.0527e-09
2.66886e-10
-2.10604e-09
2.55151e-10
-2.15681e-09
2.43184e-10
-2.20495e-09
2.31009e-10
-2.25043e-09
2.18643e-10
-2.29323e-09
2.06109e-10
-2.3333e-09
1.93425e-10
-2.37064e-09
1.80613e-10
-2.40521e-09
1.67692e-10
-2.43701e-09
1.5468e-10
-2.46602e-09
1.41596e-10
-2.49224e-09
1.28459e-10
-2.51566e-09
1.15287e-10
-2.53628e-09
1.02098e-10
-2.55411e-09
8.89092e-11
-2.56916e-09
7.57364e-11
-2.58144e-09
6.25965e-11
-2.59096e-09
4.95057e-11
-2.59774e-09
3.64795e-11
-2.60181e-09
2.35325e-11
-2.60318e-09
1.0679e-11
-2.60188e-09
-2.06698e-12
-2.59795e-09
-1.46966e-11
-2.5914e-09
-2.71963e-11
-2.58228e-09
-3.95552e-11
-2.57062e-09
-5.17622e-11
-2.55645e-09
-6.3806e-11
-2.53982e-09
-7.56773e-11
-2.52076e-09
-8.73675e-11
-2.49932e-09
-9.88664e-11
-2.47555e-09
-1.10167e-10
-2.44948e-09
-1.21261e-10
-2.42117e-09
-1.32143e-10
-2.39066e-09
-1.42805e-10
-2.358e-09
-1.53242e-10
-2.32324e-09
-1.63448e-10
-2.28644e-09
-1.73418e-10
-2.24763e-09
-1.83148e-10
-2.20689e-09
-1.92633e-10
-2.16425e-09
-2.01871e-10
-2.11977e-09
-2.10857e-10
-2.07351e-09
-2.19588e-10
-2.02551e-09
-2.28061e-10
-1.97584e-09
-2.36276e-10
-1.92455e-09
-2.4423e-10
-1.87169e-09
-2.51919e-10
-1.81732e-09
-2.59345e-10
-1.76149e-09
-2.66504e-10
-1.70426e-09
-2.73394e-10
-1.64569e-09