/*--------------------------------*- C++ -*----------------------------------*\
| =========                 |                                                 |
| \\      /  F ield         | OpenFOAM: The Open Source CFD Toolbox           |
|  \\    /   O peration     | Version:  2412                                  |
|   \\  /    A nd           | Website:  www.openfoam.com                      |
|    \\/     M anipulation  |                                                 |
\*---------------------------------------------------------------------------*/
FoamFile
{
    version     2.0;
    format      ascii;
    arch        "LSB;label=32;scalar=64";
    class       volVectorField;
    location    "1.4";
    object      U;
}
// * * * * * * * * * * * * * * * * * * * * * * * * * * * * * * * * * * * * * //

dimensions      [0 1 -1 0 0 0 0];

internalField   nonuniform List<vector> 
40000
(
(-4.64727e-06 4.62453e-06 0)
(-3.35953e-06 2.19333e-06 0)
(9.21522e-06 2.92114e-07 0)
(2.62294e-05 -4.98986e-07 0)
(4.49319e-05 -7.22684e-07 0)
(6.41134e-05 -7.76785e-07 0)
(8.33695e-05 -7.85769e-07 0)
(0.000102575 -7.79476e-07 0)
(0.000121687 -7.67598e-07 0)
(0.000140687 -7.55523e-07 0)
(0.000159555 -7.45297e-07 0)
(0.000178275 -7.36162e-07 0)
(0.000196831 -7.26552e-07 0)
(0.000215208 -7.15608e-07 0)
(0.000233392 -7.03346e-07 0)
(0.000251367 -6.90082e-07 0)
(0.000269118 -6.75977e-07 0)
(0.000286629 -6.60983e-07 0)
(0.000303882 -6.44987e-07 0)
(0.000320864 -6.27921e-07 0)
(0.000337557 -6.09784e-07 0)
(0.000353947 -5.90623e-07 0)
(0.000370018 -5.70506e-07 0)
(0.000385755 -5.4948e-07 0)
(0.000401141 -5.27562e-07 0)
(0.000416162 -5.0476e-07 0)
(0.000430803 -4.81133e-07 0)
(0.000445048 -4.56793e-07 0)
(0.000458883 -4.31856e-07 0)
(0.000472292 -4.06388e-07 0)
(0.000485262 -3.80415e-07 0)
(0.000497779 -3.53971e-07 0)
(0.000509828 -3.2711e-07 0)
(0.000521396 -2.99872e-07 0)
(0.00053247 -2.72259e-07 0)
(0.000543038 -2.44287e-07 0)
(0.000553085 -2.16048e-07 0)
(0.000562601 -1.87694e-07 0)
(0.000571571 -1.59357e-07 0)
(0.000579986 -1.31086e-07 0)
(0.000587833 -1.02881e-07 0)
(0.000595102 -7.47613e-08 0)
(0.000601783 -4.67921e-08 0)
(0.000607866 -1.90632e-08 0)
(0.000613341 8.33414e-09 0)
(0.000618199 3.53052e-08 0)
(0.000622433 6.17508e-08 0)
(0.000626034 8.75943e-08 0)
(0.000628996 1.12801e-07 0)
(0.000631312 1.37343e-07 0)
(0.000632976 1.61074e-07 0)
(0.000633983 1.83258e-07 0)
(0.000634326 2.01953e-07 0)
(0.000634002 2.22467e-07 0)
(0.000633008 2.42619e-07 0)
(0.000631341 2.62066e-07 0)
(0.000629 2.80145e-07 0)
(0.000625987 2.96649e-07 0)
(0.000622303 3.11651e-07 0)
(0.000617951 3.25193e-07 0)
(0.000612934 3.37271e-07 0)
(0.000607253 3.47894e-07 0)
(0.000600914 3.57093e-07 0)
(0.000593922 3.64909e-07 0)
(0.000586281 3.71369e-07 0)
(0.000577999 3.76459e-07 0)
(0.000569083 3.80131e-07 0)
(0.00055954 3.82332e-07 0)
(0.00054938 3.83046e-07 0)
(0.000538613 3.8231e-07 0)
(0.00052725 3.80195e-07 0)
(0.000515302 3.76791e-07 0)
(0.000502784 3.72181e-07 0)
(0.000489708 3.6645e-07 0)
(0.000476088 3.59661e-07 0)
(0.000461938 3.51866e-07 0)
(0.000447273 3.43093e-07 0)
(0.000432109 3.33406e-07 0)
(0.000416463 3.22898e-07 0)
(0.000400351 3.11758e-07 0)
(0.000383794 3.00167e-07 0)
(0.000366808 2.8831e-07 0)
(0.000349413 2.76253e-07 0)
(0.000331629 2.64041e-07 0)
(0.000313475 2.51705e-07 0)
(0.000294971 2.39314e-07 0)
(0.000276138 2.2705e-07 0)
(0.000256998 2.15109e-07 0)
(0.000237572 2.0368e-07 0)
(0.000217882 1.92935e-07 0)
(0.000197951 1.82949e-07 0)
(0.000177799 1.73736e-07 0)
(0.000157449 1.65313e-07 0)
(0.000136924 1.57708e-07 0)
(0.000116247 1.50999e-07 0)
(9.54413e-05 1.45348e-07 0)
(7.45304e-05 1.40929e-07 0)
(5.3538e-05 1.37852e-07 0)
(3.24872e-05 1.36107e-07 0)
(1.14011e-05 1.35533e-07 0)
(-9.69737e-06 1.35769e-07 0)
(-3.07854e-05 1.36806e-07 0)
(-5.18392e-05 1.38999e-07 0)
(-7.2835e-05 1.42511e-07 0)
(-9.37494e-05 1.47341e-07 0)
(-0.000114559 1.53331e-07 0)
(-0.000135242 1.60285e-07 0)
(-0.000155774 1.68119e-07 0)
(-0.000176133 1.76873e-07 0)
(-0.000196296 1.86578e-07 0)
(-0.000216239 1.9713e-07 0)
(-0.000235941 2.08332e-07 0)
(-0.000255379 2.20008e-07 0)
(-0.000274534 2.3204e-07 0)
(-0.000293381 2.44374e-07 0)
(-0.000311901 2.56987e-07 0)
(-0.000330072 2.69757e-07 0)
(-0.000347874 2.82395e-07 0)
(-0.000365288 2.94699e-07 0)
(-0.000382293 3.06708e-07 0)
(-0.000398871 3.18463e-07 0)
(-0.000415003 3.29825e-07 0)
(-0.00043067 3.40601e-07 0)
(-0.000445857 3.50576e-07 0)
(-0.000460545 3.59559e-07 0)
(-0.000474721 3.6752e-07 0)
(-0.000488367 3.74472e-07 0)
(-0.000501469 3.8035e-07 0)
(-0.000514013 3.85101e-07 0)
(-0.000525986 3.8861e-07 0)
(-0.000537375 3.90742e-07 0)
(-0.000548169 3.915e-07 0)
(-0.000558358 3.90822e-07 0)
(-0.000567931 3.88592e-07 0)
(-0.000576878 3.84901e-07 0)
(-0.00058519 3.79899e-07 0)
(-0.00059286 3.73615e-07 0)
(-0.000599882 3.65961e-07 0)
(-0.00060625 3.56712e-07 0)
(-0.000611959 3.45843e-07 0)
(-0.000617006 3.33552e-07 0)
(-0.000621387 3.19846e-07 0)
(-0.000625098 3.04743e-07 0)
(-0.000628138 2.88286e-07 0)
(-0.000630506 2.70235e-07 0)
(-0.000632201 2.50725e-07 0)
(-0.000633223 2.30559e-07 0)
(-0.000633574 2.10347e-07 0)
(-0.000633259 1.90943e-07 0)
(-0.00063228 1.6864e-07 0)
(-0.000630644 1.44664e-07 0)
(-0.000628355 1.19972e-07 0)
(-0.000625421 9.4711e-08 0)
(-0.000621846 6.86574e-08 0)
(-0.000617639 4.23537e-08 0)
(-0.000612807 1.55531e-08 0)
(-0.000607358 -1.22382e-08 0)
(-0.000601301 -4.03704e-08 0)
(-0.000594645 -6.85042e-08 0)
(-0.000587399 -9.66074e-08 0)
(-0.000579573 -1.24827e-07 0)
(-0.000571181 -1.53537e-07 0)
(-0.000562233 -1.8212e-07 0)
(-0.000552742 -2.10412e-07 0)
(-0.000542717 -2.38997e-07 0)
(-0.000532172 -2.67238e-07 0)
(-0.000521121 -2.94761e-07 0)
(-0.000509574 -3.22205e-07 0)
(-0.000497546 -3.49528e-07 0)
(-0.000485051 -3.76153e-07 0)
(-0.000472103 -4.02263e-07 0)
(-0.000458715 -4.28262e-07 0)
(-0.000444902 -4.53435e-07 0)
(-0.000430679 -4.77452e-07 0)
(-0.000416061 -5.0096e-07 0)
(-0.000401062 -5.23666e-07 0)
(-0.000385699 -5.45159e-07 0)
(-0.000369985 -5.65978e-07 0)
(-0.000353938 -5.86195e-07 0)
(-0.000337573 -6.05416e-07 0)
(-0.000320904 -6.23666e-07 0)
(-0.000303947 -6.40886e-07 0)
(-0.00028672 -6.56977e-07 0)
(-0.000269238 -6.71773e-07 0)
(-0.000251518 -6.85021e-07 0)
(-0.000233575 -6.97262e-07 0)
(-0.000215427 -7.0862e-07 0)
(-0.00019709 -7.18616e-07 0)
(-0.000178578 -7.27674e-07 0)
(-0.000159908 -7.35955e-07 0)
(-0.000141096 -7.43152e-07 0)
(-0.000122156 -7.50011e-07 0)
(-0.000103102 -7.57749e-07 0)
(-8.39467e-05 -7.66467e-07 0)
(-6.47099e-05 -7.71621e-07 0)
(-4.5472e-05 -7.42739e-07 0)
(-2.66e-05 -5.45108e-07 0)
(-9.34368e-06 2.36564e-07 0)
(3.41113e-06 2.15206e-06 0)
(4.68263e-06 4.59787e-06 0)
(-2.43543e-06 3.50463e-06 0)
(1.66527e-05 -1.71584e-05 0)
(5.61004e-05 -3.10729e-05 0)
(0.000103431 -3.68102e-05 0)
(0.000153526 -3.86462e-05 0)
(0.000204404 -3.91148e-05 0)
(0.000255409 -3.91467e-05 0)
(0.000306313 -3.9019e-05 0)
(0.000357008 -3.88144e-05 0)
(0.000407432 -3.85637e-05 0)
(0.000457538 -3.82798e-05 0)
(0.000507281 -3.79664e-05 0)
(0.000556618 -3.7623e-05 0)
(0.000605508 -3.72485e-05 0)
(0.00065391 -3.68422e-05 0)
(0.000701784 -3.64043e-05 0)
(0.000749091 -3.59349e-05 0)
(0.000795791 -3.54341e-05 0)
(0.000841844 -3.49016e-05 0)
(0.000887208 -3.43375e-05 0)
(0.000931846 -3.37417e-05 0)
(0.000975716 -3.31141e-05 0)
(0.00101878 -3.2455e-05 0)
(0.001061 -3.17646e-05 0)
(0.00110233 -3.10431e-05 0)
(0.00114273 -3.02908e-05 0)
(0.00118217 -2.95081e-05 0)
(0.0012206 -2.86953e-05 0)
(0.001258 -2.7853e-05 0)
(0.00129431 -2.69815e-05 0)
(0.0013295 -2.60812e-05 0)
(0.00136353 -2.51523e-05 0)
(0.00139637 -2.41952e-05 0)
(0.00142798 -2.32104e-05 0)
(0.00145832 -2.21984e-05 0)
(0.00148735 -2.11597e-05 0)
(0.00151505 -2.0095e-05 0)
(0.00154137 -1.90052e-05 0)
(0.00156628 -1.78909e-05 0)
(0.00158975 -1.6753e-05 0)
(0.00161175 -1.5592e-05 0)
(0.00163224 -1.44087e-05 0)
(0.00165119 -1.32039e-05 0)
(0.00166858 -1.19786e-05 0)
(0.00168437 -1.0734e-05 0)
(0.00169854 -9.4711e-06 0)
(0.00171106 -8.19109e-06 0)
(0.0017219 -6.89509e-06 0)
(0.00173104 -5.58416e-06 0)
(0.00173846 -4.25932e-06 0)
(0.00174414 -2.92149e-06 0)
(0.00174806 -1.57153e-06 0)
(0.00175019 -2.10704e-07 0)
(0.00175051 1.16221e-06 0)
(0.00174901 2.54225e-06 0)
(0.00174569 3.92446e-06 0)
(0.00174053 5.30616e-06 0)
(0.00173353 6.68622e-06 0)
(0.00172468 8.06398e-06 0)
(0.00171399 9.43854e-06 0)
(0.00170145 1.08086e-05 0)
(0.00168707 1.21727e-05 0)
(0.00167084 1.35293e-05 0)
(0.00165278 1.48768e-05 0)
(0.00163289 1.62132e-05 0)
(0.00161118 1.75368e-05 0)
(0.00158767 1.88457e-05 0)
(0.00156237 2.0138e-05 0)
(0.00153529 2.14117e-05 0)
(0.00150647 2.26653e-05 0)
(0.00147593 2.38969e-05 0)
(0.00144368 2.5105e-05 0)
(0.00140976 2.62877e-05 0)
(0.00137421 2.74435e-05 0)
(0.00133705 2.85707e-05 0)
(0.00129832 2.96678e-05 0)
(0.00125806 3.07331e-05 0)
(0.00121631 3.17652e-05 0)
(0.00117312 3.27628e-05 0)
(0.00112853 3.37247e-05 0)
(0.00108258 3.46495e-05 0)
(0.00103534 3.55361e-05 0)
(0.00098685 3.63831e-05 0)
(0.000937167 3.7189e-05 0)
(0.000886349 3.79529e-05 0)
(0.000834454 3.86736e-05 0)
(0.000781543 3.93503e-05 0)
(0.000727678 3.99825e-05 0)
(0.000672924 4.05693e-05 0)
(0.000617347 4.111e-05 0)
(0.000561011 4.1604e-05 0)
(0.000503986 4.20504e-05 0)
(0.000446341 4.24487e-05 0)
(0.000388144 4.27982e-05 0)
(0.00032947 4.30987e-05 0)
(0.000270389 4.33499e-05 0)
(0.000210975 4.35517e-05 0)
(0.000151302 4.37038e-05 0)
(9.14437e-05 4.3806e-05 0)
(3.1473e-05 4.38577e-05 0)
(-2.85355e-05 4.38586e-05 0)
(-8.85086e-05 4.38089e-05 0)
(-0.000148371 4.37089e-05 0)
(-0.000208049 4.35591e-05 0)
(-0.000267469 4.33596e-05 0)
(-0.000326557 4.31104e-05 0)
(-0.000385241 4.28116e-05 0)
(-0.000443449 4.24636e-05 0)
(-0.000501108 4.20671e-05 0)
(-0.000558149 4.16227e-05 0)
(-0.000614502 4.1131e-05 0)
(-0.000670099 4.05923e-05 0)
(-0.000724873 4.00071e-05 0)
(-0.00077876 3.93762e-05 0)
(-0.000831694 3.87007e-05 0)
(-0.000883613 3.79813e-05 0)
(-0.000934457 3.7219e-05 0)
(-0.000984167 3.64146e-05 0)
(-0.00103269 3.55692e-05 0)
(-0.00107996 3.46843e-05 0)
(-0.00112594 3.37611e-05 0)
(-0.00117056 3.2801e-05 0)
(-0.00121379 3.18047e-05 0)
(-0.00125557 3.07737e-05 0)
(-0.00129587 2.97092e-05 0)
(-0.00133464 2.8613e-05 0)
(-0.00137183 2.74867e-05 0)
(-0.00140743 2.63318e-05 0)
(-0.00144139 2.51499e-05 0)
(-0.00147367 2.39427e-05 0)
(-0.00150426 2.27118e-05 0)
(-0.00153313 2.14589e-05 0)
(-0.00156025 2.01859e-05 0)
(-0.0015856 1.88943e-05 0)
(-0.00160916 1.75863e-05 0)
(-0.00163091 1.62637e-05 0)
(-0.00165085 1.49282e-05 0)
(-0.00166896 1.35815e-05 0)
(-0.00168523 1.22249e-05 0)
(-0.00169967 1.08602e-05 0)
(-0.00171225 9.48946e-06 0)
(-0.00172299 8.11439e-06 0)
(-0.00173188 6.73613e-06 0)
(-0.00173892 5.35567e-06 0)
(-0.00174413 3.97352e-06 0)
(-0.0017475 2.59076e-06 0)
(-0.00174905 1.21029e-06 0)
(-0.00174877 -1.62847e-07 0)
(-0.00174668 -1.52417e-06 0)
(-0.00174281 -2.87375e-06 0)
(-0.00173718 -4.21141e-06 0)
(-0.00172981 -5.53605e-06 0)
(-0.00172071 -6.84622e-06 0)
(-0.00170991 -8.14174e-06 0)
(-0.00169744 -9.4214e-06 0)
(-0.00168332 -1.06841e-05 0)
(-0.00166757 -1.19296e-05 0)
(-0.00165023 -1.31558e-05 0)
(-0.00163132 -1.43612e-05 0)
(-0.00161087 -1.55452e-05 0)
(-0.00158892 -1.6707e-05 0)
(-0.00156549 -1.78463e-05 0)
(-0.00154062 -1.89616e-05 0)
(-0.00151434 -2.00515e-05 0)
(-0.00148668 -2.11165e-05 0)
(-0.00145769 -2.21559e-05 0)
(-0.00142739 -2.31678e-05 0)
(-0.00139582 -2.41528e-05 0)
(-0.00136302 -2.5111e-05 0)
(-0.00132903 -2.6041e-05 0)
(-0.00129388 -2.6942e-05 0)
(-0.00125761 -2.78143e-05 0)
(-0.00122025 -2.86567e-05 0)
(-0.00118186 -2.9468e-05 0)
(-0.00114246 -3.0249e-05 0)
(-0.0011021 -3.09993e-05 0)
(-0.00106081 -3.17184e-05 0)
(-0.00101864 -3.24073e-05 0)
(-0.000975617 -3.30661e-05 0)
(-0.000931792 -3.36934e-05 0)
(-0.0008872 -3.42886e-05 0)
(-0.000841881 -3.48518e-05 0)
(-0.000795876 -3.53824e-05 0)
(-0.000749226 -3.588e-05 0)
(-0.000701971 -3.63443e-05 0)
(-0.000654151 -3.67763e-05 0)
(-0.000605807 -3.71768e-05 0)
(-0.00055698 -3.75448e-05 0)
(-0.000507708 -3.78806e-05 0)
(-0.000458032 -3.81854e-05 0)
(-0.000407992 -3.84586e-05 0)
(-0.000357627 -3.87011e-05 0)
(-0.000306977 -3.89148e-05 0)
(-0.000256085 -3.90915e-05 0)
(-0.000205016 -3.91703e-05 0)
(-0.000153951 -3.88706e-05 0)
(-0.000103543 -3.71862e-05 0)
(-5.59064e-05 -3.14364e-05 0)
(-1.63852e-05 -1.72963e-05 0)
(2.4926e-06 3.52505e-06 0)
(-7.79482e-07 -8.35547e-06 0)
(2.95761e-05 -5.61645e-05 0)
(8.31757e-05 -8.48339e-05 0)
(0.000145548 -9.63766e-05 0)
(0.00021076 -0.000100024 0)
(0.000276686 -0.000100916 0)
(0.000342685 -0.000100931 0)
(0.000408542 -0.000100626 0)
(0.000474151 -0.000100156 0)
(0.000539436 -9.95693e-05 0)
(0.000604333 -9.88881e-05 0)
(0.000668786 -9.81219e-05 0)
(0.000732738 -9.7275e-05 0)
(0.000796136 -9.63482e-05 0)
(0.000858928 -9.53416e-05 0)
(0.000921061 -9.4255e-05 0)
(0.000982484 -9.30886e-05 0)
(0.00104315 -9.18426e-05 0)
(0.001103 -9.05171e-05 0)
(0.00116199 -8.9112e-05 0)
(0.00122006 -8.76273e-05 0)
(0.00127718 -8.6063e-05 0)
(0.00133327 -8.44192e-05 0)
(0.00138831 -8.26963e-05 0)
(0.00144223 -8.08947e-05 0)
(0.00149498 -7.90151e-05 0)
(0.00154651 -7.70579e-05 0)
(0.00159678 -7.50239e-05 0)
(0.00164574 -7.29135e-05 0)
(0.00169332 -7.07274e-05 0)
(0.0017395 -6.84663e-05 0)
(0.0017842 -6.61306e-05 0)
(0.0018274 -6.37211e-05 0)
(0.00186903 -6.12386e-05 0)
(0.00190905 -5.86844e-05 0)
(0.00194741 -5.60595e-05 0)
(0.00198407 -5.33654e-05 0)
(0.00201898 -5.06033e-05 0)
(0.00205209 -4.77748e-05 0)
(0.00208336 -4.48814e-05 0)
(0.00211275 -4.19245e-05 0)
(0.0021402 -3.89059e-05 0)
(0.00216569 -3.58275e-05 0)
(0.00218916 -3.26915e-05 0)
(0.00221058 -2.95001e-05 0)
(0.00222991 -2.62558e-05 0)
(0.00224711 -2.29611e-05 0)
(0.00226214 -1.96185e-05 0)
(0.00227498 -1.62306e-05 0)
(0.00228559 -1.27999e-05 0)
(0.00229394 -9.32883e-06 0)
(0.00229999 -5.81867e-06 0)
(0.00230374 -2.2695e-06 0)
(0.00230514 1.31179e-06 0)
(0.00230418 4.91551e-06 0)
(0.00230083 8.53437e-06 0)
(0.00229508 1.21644e-05 0)
(0.00228692 1.5803e-05 0)
(0.00227633 1.94475e-05 0)
(0.00226329 2.30945e-05 0)
(0.00224782 2.67402e-05 0)
(0.00222989 3.03802e-05 0)
(0.00220951 3.40102e-05 0)
(0.00218669 3.76253e-05 0)
(0.00216143 4.12207e-05 0)
(0.00213373 4.47913e-05 0)
(0.00210361 4.8332e-05 0)
(0.00207108 5.18378e-05 0)
(0.00203617 5.53037e-05 0)
(0.0019989 5.87247e-05 0)
(0.00195929 6.20956e-05 0)
(0.00191738 6.54115e-05 0)
(0.0018732 6.86672e-05 0)
(0.00182678 7.18577e-05 0)
(0.00177817 7.4978e-05 0)
(0.00172742 7.80233e-05 0)
(0.00167457 8.09888e-05 0)
(0.00161967 8.38702e-05 0)
(0.00156278 8.66627e-05 0)
(0.00150397 8.93622e-05 0)
(0.00144328 9.1964e-05 0)
(0.0013808 9.44638e-05 0)
(0.00131659 9.68574e-05 0)
(0.00125072 9.91405e-05 0)
(0.00118327 0.000101309 0)
(0.00111432 0.000103361 0)
(0.00104395 0.000105291 0)
(0.000972247 0.000107098 0)
(0.0008993 0.000108778 0)
(0.000825197 0.000110328 0)
(0.00075003 0.000111745 0)
(0.000673895 0.000113027 0)
(0.000596887 0.000114173 0)
(0.000519105 0.000115179 0)
(0.000440648 0.000116045 0)
(0.000361619 0.00011677 0)
(0.00028212 0.000117351 0)
(0.000202256 0.000117789 0)
(0.000122128 0.000118081 0)
(4.18425e-05 0.000118228 0)
(-3.8497e-05 0.00011823 0)
(-0.000118785 0.000118087 0)
(-0.000198917 0.000117799 0)
(-0.000278787 0.000117366 0)
(-0.000358293 0.000116789 0)
(-0.00043733 0.000116068 0)
(-0.000515798 0.000115206 0)
(-0.000593593 0.000114202 0)
(-0.000670616 0.00011306 0)
(-0.000746768 0.000111781 0)
(-0.000821954 0.000110368 0)
(-0.000896078 0.000108822 0)
(-0.000969049 0.000107145 0)
(-0.00104078 0.000105342 0)
(-0.00111117 0.000103414 0)
(-0.00118015 0.000101366 0)
(-0.00124763 9.91996e-05 0)
(-0.00131353 9.69193e-05 0)
(-0.00137777 9.45289e-05 0)
(-0.00144029 9.20326e-05 0)
(-0.00150101 8.94344e-05 0)
(-0.00155986 8.67382e-05 0)
(-0.00161678 8.39482e-05 0)
(-0.00167172 8.10688e-05 0)
(-0.00172461 7.81048e-05 0)
(-0.00177541 7.5061e-05 0)
(-0.00182406 7.19424e-05 0)
(-0.00187052 6.87537e-05 0)
(-0.00191475 6.54997e-05 0)
(-0.00195671 6.21855e-05 0)
(-0.00199636 5.88161e-05 0)
(-0.00203368 5.53966e-05 0)
(-0.00206864 5.1932e-05 0)
(-0.00210122 4.84278e-05 0)
(-0.00213139 4.48889e-05 0)
(-0.00215914 4.13203e-05 0)
(-0.00218445 3.77266e-05 0)
(-0.00220733 3.41125e-05 0)
(-0.00222776 3.04828e-05 0)
(-0.00224573 2.68423e-05 0)
(-0.00226126 2.3196e-05 0)
(-0.00227434 1.95483e-05 0)
(-0.00228499 1.59029e-05 0)
(-0.0022932 1.22632e-05 0)
(-0.002299 8.63213e-06 0)
(-0.00230239 5.01222e-06 0)
(-0.00230341 1.40768e-06 0)
(-0.00230205 -2.17431e-06 0)
(-0.00229836 -5.72336e-06 0)
(-0.00229236 -9.23286e-06 0)
(-0.00228406 -1.27031e-05 0)
(-0.0022735 -1.61332e-05 0)
(-0.00226071 -1.95198e-05 0)
(-0.00224573 -2.28611e-05 0)
(-0.00222857 -2.61559e-05 0)
(-0.00220929 -2.94006e-05 0)
(-0.00218792 -3.25927e-05 0)
(-0.0021645 -3.57299e-05 0)
(-0.00213906 -3.88092e-05 0)
(-0.00211165 -4.18294e-05 0)
(-0.00208231 -4.47882e-05 0)
(-0.00205108 -4.76834e-05 0)
(-0.00201801 -5.05137e-05 0)
(-0.00198315 -5.32765e-05 0)
(-0.00194653 -5.59709e-05 0)
(-0.00190821 -5.85966e-05 0)
(-0.00186823 -6.11515e-05 0)
(-0.00182664 -6.36343e-05 0)
(-0.00178349 -6.60452e-05 0)
(-0.00173883 -6.8383e-05 0)
(-0.0016927 -7.06456e-05 0)
(-0.00164515 -7.28322e-05 0)
(-0.00159624 -7.49425e-05 0)
(-0.00154601 -7.69751e-05 0)
(-0.00149451 -7.89297e-05 0)
(-0.0014418 -8.08063e-05 0)
(-0.00138792 -8.2605e-05 0)
(-0.00133293 -8.43258e-05 0)
(-0.00127687 -8.5969e-05 0)
(-0.0012198 -8.75331e-05 0)
(-0.00116176 -8.9017e-05 0)
(-0.00110281 -9.04206e-05 0)
(-0.001043 -9.17435e-05 0)
(-0.00098238 -9.29848e-05 0)
(-0.000920997 -9.41452e-05 0)
(-0.000858904 -9.52252e-05 0)
(-0.000796152 -9.62253e-05 0)
(-0.000732791 -9.71457e-05 0)
(-0.000668872 -9.79859e-05 0)
(-0.000604445 -9.87469e-05 0)
(-0.000539561 -9.94291e-05 0)
(-0.00047427 -0.000100033 0)
(-0.000408626 -0.000100556 0)
(-0.000342685 -0.000100977 0)
(-0.000276537 -0.000101159 0)
(-0.000210394 -0.000100517 0)
(-0.000144964 -9.70164e-05 0)
(-8.25205e-05 -8.52792e-05 0)
(-2.91317e-05 -5.60917e-05 0)
(8.41641e-07 -8.0915e-06 0)
(-2.12918e-07 -2.40827e-05 0)
(3.43341e-05 -0.000102559 0)
(9.33079e-05 -0.00014701 0)
(0.000161365 -0.000164522 0)
(0.000232189 -0.000169914 0)
(0.000303598 -0.000171137 0)
(0.000374985 -0.000171069 0)
(0.000446175 -0.000170539 0)
(0.000517088 -0.000169766 0)
(0.000587657 -0.000168811 0)
(0.000657817 -0.000167698 0)
(0.00072751 -0.000166439 0)
(0.000796676 -0.00016504 0)
(0.000865259 -0.000163505 0)
(0.000933203 -0.000161835 0)
(0.00100045 -0.000160031 0)
(0.00106695 -0.000158093 0)
(0.00113264 -0.000156022 0)
(0.00119746 -0.000153817 0)
(0.00126138 -0.000151478 0)
(0.00132433 -0.000149006 0)
(0.00138625 -0.000146401 0)
(0.00144709 -0.000143663 0)
(0.00150681 -0.000140792 0)
(0.00156534 -0.000137789 0)
(0.00162263 -0.000134655 0)
(0.00167862 -0.00013139 0)
(0.00173326 -0.000127995 0)
(0.00178651 -0.000124471 0)
(0.0018383 -0.000120818 0)
(0.00188857 -0.000117038 0)
(0.00193729 -0.000113131 0)
(0.00198439 -0.000109097 0)
(0.00202982 -0.00010494 0)
(0.00207353 -0.000100659 0)
(0.00211547 -9.62576e-05 0)
(0.00215558 -9.17365e-05 0)
(0.00219382 -8.70982e-05 0)
(0.00223014 -8.23445e-05 0)
(0.00226448 -7.74779e-05 0)
(0.00229679 -7.25007e-05 0)
(0.00232704 -6.74157e-05 0)
(0.00235516 -6.22259e-05 0)
(0.00238112 -5.69345e-05 0)
(0.00240488 -5.15451e-05 0)
(0.00242638 -4.60615e-05 0)
(0.00244559 -4.04874e-05 0)
(0.00246246 -3.48269e-05 0)
(0.00247696 -2.90844e-05 0)
(0.00248904 -2.32642e-05 0)
(0.00249869 -1.73712e-05 0)
(0.00250585 -1.14098e-05 0)
(0.00251051 -5.38444e-06 0)
(0.00251264 6.98623e-07 0)
(0.00251221 6.82781e-06 0)
(0.00250919 1.29956e-05 0)
(0.00250357 1.91959e-05 0)
(0.00249532 2.54229e-05 0)
(0.00248441 3.16705e-05 0)
(0.00247085 3.7932e-05 0)
(0.00245461 4.42001e-05 0)
(0.00243569 5.04671e-05 0)
(0.00241409 5.6725e-05 0)
(0.0023898 6.29655e-05 0)
(0.00236283 6.91802e-05 0)
(0.00233318 7.53603e-05 0)
(0.00230087 8.1497e-05 0)
(0.0022659 8.75816e-05 0)
(0.0022283 9.36052e-05 0)
(0.0021881 9.9559e-05 0)
(0.0021453 0.000105434 0)
(0.00209996 0.000111221 0)
(0.0020521 0.00011691 0)
(0.00200175 0.000122494 0)
(0.00194898 0.000127962 0)
(0.00189381 0.000133306 0)
(0.0018363 0.000138517 0)
(0.00177652 0.000143586 0)
(0.00171451 0.000148505 0)
(0.00165035 0.000153265 0)
(0.00158409 0.000157859 0)
(0.00151583 0.000162277 0)
(0.00144562 0.000166512 0)
(0.00137355 0.000170556 0)
(0.00129971 0.000174403 0)
(0.00122418 0.000178045 0)
(0.00114706 0.000181475 0)
(0.00106843 0.000184689 0)
(0.0009884 0.000187678 0)
(0.000907067 0.000190439 0)
(0.000824535 0.000192965 0)
(0.000740909 0.000195252 0)
(0.000656296 0.000197296 0)
(0.000570809 0.000199093 0)
(0.000484559 0.00020064 0)
(0.000397662 0.000201934 0)
(0.000310234 0.000202973 0)
(0.000222391 0.000203755 0)
(0.00013425 0.000204277 0)
(4.59301e-05 0.000204539 0)
(-4.24503e-05 0.000204542 0)
(-0.000130772 0.000204285 0)
(-0.000218917 0.000203769 0)
(-0.000306766 0.000202995 0)
(-0.000394202 0.000201963 0)
(-0.000481108 0.000200674 0)
(-0.000567369 0.000199133 0)
(-0.00065287 0.000197341 0)
(-0.000737498 0.000195302 0)
(-0.000821142 0.00019302 0)
(-0.000903694 0.000190499 0)
(-0.000985048 0.000187744 0)
(-0.0010651 0.00018476 0)
(-0.00114375 0.000181552 0)
(-0.0012209 0.000178126 0)
(-0.00129646 0.000174489 0)
(-0.00137033 0.000170647 0)
(-0.00144243 0.000166607 0)
(-0.00151267 0.000162377 0)
(-0.00158097 0.000157963 0)
(-0.00164726 0.000153375 0)
(-0.00171146 0.000148619 0)
(-0.00177351 0.000143703 0)
(-0.00183334 0.000138637 0)
(-0.00189088 0.000133429 0)
(-0.00194609 0.000128088 0)
(-0.00199892 0.000122623 0)
(-0.0020493 0.000117042 0)
(-0.00209721 0.000111355 0)
(-0.0021426 0.00010557 0)
(-0.00218544 9.96976e-05 0)
(-0.0022257 9.37457e-05 0)
(-0.00226334 8.77238e-05 0)
(-0.00229836 8.16412e-05 0)
(-0.00233072 7.55068e-05 0)
(-0.00236042 6.93292e-05 0)
(-0.00238745 6.31165e-05 0)
(-0.00241179 5.68774e-05 0)
(-0.00243344 5.06204e-05 0)
(-0.00245241 4.43538e-05 0)
(-0.0024687 3.80855e-05 0)
(-0.00248232 3.18233e-05 0)
(-0.00249327 2.55746e-05 0)
(-0.00250157 1.9346e-05 0)
(-0.00250725 1.31442e-05 0)
(-0.00251031 6.97488e-06 0)
(-0.00251079 8.44457e-07 0)
(-0.00250872 -5.23909e-06 0)
(-0.00250411 -1.12646e-05 0)
(-0.002497 -1.72256e-05 0)
(-0.00248741 -2.31175e-05 0)
(-0.00247537 -2.89366e-05 0)
(-0.00246092 -3.46782e-05 0)
(-0.00244409 -4.03379e-05 0)
(-0.00242493 -4.59126e-05 0)
(-0.00240348 -5.13977e-05 0)
(-0.00237977 -5.67882e-05 0)
(-0.00235385 -6.2081e-05 0)
(-0.00232577 -6.72726e-05 0)
(-0.00229557 -7.23597e-05 0)
(-0.0022633 -7.73393e-05 0)
(-0.002229 -8.22079e-05 0)
(-0.00219273 -8.69634e-05 0)
(-0.00215453 -9.16036e-05 0)
(-0.00211446 -9.61255e-05 0)
(-0.00207256 -0.000100528 0)
(-0.00202889 -0.00010481 0)
(-0.0019835 -0.000108969 0)
(-0.00193644 -0.000113004 0)
(-0.00188776 -0.000116913 0)
(-0.00183752 -0.000120696 0)
(-0.00178577 -0.00012435 0)
(-0.00173256 -0.000127874 0)
(-0.00167795 -0.000131269 0)
(-0.001622 -0.000134532 0)
(-0.00156474 -0.000137663 0)
(-0.00150625 -0.000140664 0)
(-0.00144656 -0.000143534 0)
(-0.00138575 -0.000146272 0)
(-0.00132386 -0.000148877 0)
(-0.00126094 -0.000151349 0)
(-0.00119705 -0.000153687 0)
(-0.00113225 -0.00015589 0)
(-0.00106659 -0.000157959 0)
(-0.00100011 -0.000159894 0)
(-0.000932888 -0.000161695 0)
(-0.000864961 -0.000163362 0)
(-0.000796387 -0.000164896 0)
(-0.000727221 -0.000166298 0)
(-0.000657517 -0.000167565 0)
(-0.000587327 -0.000168701 0)
(-0.000516708 -0.000169704 0)
(-0.000445715 -0.000170569 0)
(-0.00037441 -0.000171256 0)
(-0.000302885 -0.000171553 0)
(-0.00023135 -0.000170561 0)
(-0.000160494 -0.000165197 0)
(-9.2587e-05 -0.00014726 0)
(-3.39514e-05 -0.000102095 0)
(2.54108e-07 -2.35557e-05 0)
(-1.38673e-07 -4.09538e-05 0)
(3.54905e-05 -0.000151208 0)
(9.60789e-05 -0.000211835 0)
(0.000165958 -0.00023536 0)
(0.000238622 -0.000242426 0)
(0.00031182 -0.000243897 0)
(0.000384934 -0.000243683 0)
(0.000457804 -0.000242889 0)
(0.000530366 -0.000241787 0)
(0.000602566 -0.000240446 0)
(0.000674347 -0.000238889 0)
(0.000745652 -0.000237128 0)
(0.000816423 -0.000235168 0)
(0.000886603 -0.000233014 0)
(0.000956136 -0.000230668 0)
(0.00102496 -0.000228132 0)
(0.00109303 -0.000225407 0)
(0.00116028 -0.000222493 0)
(0.00122666 -0.000219389 0)
(0.00129212 -0.000216097 0)
(0.00135659 -0.000212617 0)
(0.00142003 -0.000208948 0)
(0.00148237 -0.000205091 0)
(0.00154357 -0.000201046 0)
(0.00160356 -0.000196815 0)
(0.00166229 -0.000192397 0)
(0.00171972 -0.000187794 0)
(0.00177577 -0.000183006 0)
(0.0018304 -0.000178034 0)
(0.00188355 -0.000172879 0)
(0.00193517 -0.000167541 0)
(0.0019852 -0.000162022 0)
(0.00203359 -0.000156324 0)
(0.00208028 -0.000150448 0)
(0.00212523 -0.000144395 0)
(0.00216837 -0.000138169 0)
(0.00220965 -0.000131771 0)
(0.00224903 -0.000125203 0)
(0.00228644 -0.00011847 0)
(0.00232185 -0.000111573 0)
(0.00235519 -0.000104516 0)
(0.00238642 -9.73033e-05 0)
(0.00241549 -8.99379e-05 0)
(0.00244236 -8.24246e-05 0)
(0.00246697 -7.4768e-05 0)
(0.00248928 -6.6973e-05 0)
(0.00250924 -5.90449e-05 0)
(0.00252683 -5.09892e-05 0)
(0.00254198 -4.28122e-05 0)
(0.00255467 -3.45202e-05 0)
(0.00256486 -2.61207e-05 0)
(0.00257252 -1.76212e-05 0)
(0.0025776 -9.03045e-06 0)
(0.00258008 -3.56111e-07 0)
(0.00257994 8.39368e-06 0)
(0.00257715 1.72094e-05 0)
(0.00257169 2.60821e-05 0)
(0.00256351 3.50026e-05 0)
(0.00255262 4.39612e-05 0)
(0.00253899 5.29475e-05 0)
(0.00252262 6.19507e-05 0)
(0.00250348 7.09597e-05 0)
(0.00248158 7.99628e-05 0)
(0.00245692 8.8948e-05 0)
(0.00242949 9.79031e-05 0)
(0.00239931 0.000106815 0)
(0.00236637 0.000115673 0)
(0.0023307 0.000124462 0)
(0.00229231 0.00013317 0)
(0.00225122 0.000141785 0)
(0.00220746 0.000150292 0)
(0.00216106 0.000158679 0)
(0.00211205 0.000166933 0)
(0.00206048 0.000175038 0)
(0.00200638 0.000182983 0)
(0.00194981 0.000190754 0)
(0.00189081 0.000198337 0)
(0.00182944 0.000205719 0)
(0.00176577 0.000212888 0)
(0.00169986 0.00021983 0)
(0.00163178 0.000226534 0)
(0.00156161 0.000232986 0)
(0.00148941 0.000239175 0)
(0.00141529 0.00024509 0)
(0.00133931 0.000250719 0)
(0.00126158 0.000256052 0)
(0.00118219 0.000261078 0)
(0.00110123 0.000265788 0)
(0.00101881 0.000270173 0)
(0.000935029 0.000274223 0)
(0.000849998 0.000277932 0)
(0.000763825 0.00028129 0)
(0.000676623 0.000284293 0)
(0.000588509 0.000286935 0)
(0.000499598 0.000289209 0)
(0.000410011 0.000291112 0)
(0.000319869 0.00029264 0)
(0.000229293 0.000293789 0)
(0.000138407 0.000294558 0)
(4.7334e-05 0.000294944 0)
(-4.38023e-05 0.000294948 0)
(-0.000134877 0.00029457 0)
(-0.000225767 0.00029381 0)
(-0.000316348 0.00029267 0)
(-0.000406498 0.00029115 0)
(-0.000496095 0.000289255 0)
(-0.000585018 0.000286988 0)
(-0.000673146 0.000284354 0)
(-0.000760364 0.000281358 0)
(-0.000846554 0.000278006 0)
(-0.000931606 0.000274305 0)
(-0.00101541 0.000270261 0)
(-0.00109785 0.000265884 0)
(-0.00117884 0.000261181 0)
(-0.00125826 0.000256162 0)
(-0.00133602 0.000250836 0)
(-0.00141202 0.000245213 0)
(-0.00148618 0.000239304 0)
(-0.0015584 0.000233121 0)
(-0.00162861 0.000226675 0)
(-0.00169673 0.000219977 0)
(-0.00176268 0.000213039 0)
(-0.00182639 0.000205875 0)
(-0.0018878 0.000198497 0)
(-0.00194683 0.000190919 0)
(-0.00200345 0.000183152 0)
(-0.00205759 0.000175212 0)
(-0.00210921 0.00016711 0)
(-0.00215826 0.00015886 0)
(-0.00220471 0.000150476 0)
(-0.00224852 0.000141971 0)
(-0.00228965 0.000133358 0)
(-0.0023281 0.000124652 0)
(-0.00236382 0.000115865 0)
(-0.00239681 0.00010701 0)
(-0.00242704 9.81005e-05 0)
(-0.00245452 8.91478e-05 0)
(-0.00247924 8.01646e-05 0)
(-0.00250119 7.11633e-05 0)
(-0.00252037 6.21556e-05 0)
(-0.0025368 5.31528e-05 0)
(-0.00255048 4.4166e-05 0)
(-0.00256142 3.52062e-05 0)
(-0.00256964 2.62839e-05 0)
(-0.00257516 1.74092e-05 0)
(-0.002578 8.59148e-06 0)
(-0.00257819 -1.60077e-07 0)
(-0.00257576 -8.83553e-06 0)
(-0.00257073 -1.74267e-05 0)
(-0.00256312 -2.5926e-05 0)
(-0.00255298 -3.43248e-05 0)
(-0.00254034 -4.26155e-05 0)
(-0.00252523 -5.07922e-05 0)
(-0.0025077 -5.88481e-05 0)
(-0.00248778 -6.67774e-05 0)
(-0.00246551 -7.45745e-05 0)
(-0.00244095 -8.2233e-05 0)
(-0.00241413 -8.97483e-05 0)
(-0.0023851 -9.71163e-05 0)
(-0.00235391 -0.000104332 0)
(-0.00232061 -0.000111391 0)
(-0.00228524 -0.000118291 0)
(-0.00224787 -0.000125026 0)
(-0.00220854 -0.000131596 0)
(-0.00216729 -0.000137996 0)
(-0.00212419 -0.000144224 0)
(-0.00207928 -0.000150278 0)
(-0.00203263 -0.000156157 0)
(-0.00198428 -0.000161857 0)
(-0.00193428 -0.000167378 0)
(-0.0018827 -0.000172718 0)
(-0.00182958 -0.000177876 0)
(-0.00177498 -0.00018285 0)
(-0.00171896 -0.000187638 0)
(-0.00166157 -0.000192242 0)
(-0.00160287 -0.000196659 0)
(-0.0015429 -0.00020089 0)
(-0.00148173 -0.000204935 0)
(-0.00141942 -0.000208792 0)
(-0.00135601 -0.000212462 0)
(-0.00129156 -0.000215944 0)
(-0.00122612 -0.000219237 0)
(-0.00115976 -0.000222341 0)
(-0.00109253 -0.000225256 0)
(-0.00102447 -0.000227982 0)
(-0.000955654 -0.00023052 0)
(-0.000886125 -0.00023287 0)
(-0.000815942 -0.000235031 0)
(-0.000745158 -0.000237005 0)
(-0.000673828 -0.000238791 0)
(-0.000602009 -0.000240389 0)
(-0.000529754 -0.000241799 0)
(-0.00045712 -0.000243013 0)
(-0.00038417 -0.000243973 0)
(-0.000310992 -0.000244397 0)
(-0.000237788 -0.000243082 0)
(-0.000165228 -0.000235901 0)
(-9.55832e-05 -0.000211794 0)
(-3.52887e-05 -0.000150411 0)
(1.52433e-07 -4.02664e-05 0)
(-1.74101e-07 -5.7969e-05 0)
(3.56373e-05 -0.000200355 0)
(9.66709e-05 -0.000277407 0)
(0.000167144 -0.000307049 0)
(0.000240465 -0.0003158 0)
(0.00031433 -0.000317491 0)
(0.000388094 -0.000317096 0)
(0.000461587 -0.00031601 0)
(0.00053475 -0.00031456 0)
(0.000607535 -0.00031282 0)
(0.000679891 -0.000310811 0)
(0.000751764 -0.00030854 0)
(0.000823099 -0.000306016 0)
(0.000893839 -0.000303241 0)
(0.000963929 -0.000300218 0)
(0.00103331 -0.000296948 0)
(0.00110193 -0.000293434 0)
(0.00116974 -0.000289674 0)
(0.00123667 -0.00028567 0)
(0.00130267 -0.000281422 0)
(0.00136769 -0.00027693 0)
(0.00143167 -0.000272193 0)
(0.00149455 -0.000267214 0)
(0.00155628 -0.000261992 0)
(0.00161681 -0.000256527 0)
(0.00167607 -0.000250821 0)
(0.00173402 -0.000244874 0)
(0.00179059 -0.000238686 0)
(0.00184574 -0.000232259 0)
(0.0018994 -0.000225594 0)
(0.00195153 -0.000218691 0)