/*--------------------------------*- C++ -*----------------------------------*\
| =========                 |                                                 |
| \\      /  F ield         | OpenFOAM: The Open Source CFD Toolbox           |
|  \\    /   O peration     | Version:  2412                                  |
|   \\  /    A nd           | Website:  www.openfoam.com                      |
|    \\/     M anipulation  |                                                 |
\*---------------------------------------------------------------------------*/
FoamFile
{
    version     2.0;
    format      ascii;
    arch        "LSB;label=32;scalar=64";
    class       volScalarField;
    location    "1.09";
    object      alpha.water;
}
// * * * * * * * * * * * * * * * * * * * * * * * * * * * * * * * * * * * * * //

dimensions      [0 0 0 0 0 0 0];

internalField   nonuniform List<scalar> 
40000
(
2.88478e-197
3.05603e-188
1.86357e-187
2.34424e-187
2.42461e-187
2.31204e-187
2.10931e-187
1.86505e-187
1.60551e-187
1.34971e-187
1.10814e-187
8.87689e-188
6.93256e-188
5.27177e-188
3.89802e-188
2.79809e-188
1.94635e-188
1.30962e-188
8.50626e-189
5.3218e-189
3.19949e-189
1.84377e-189
1.01565e-189
5.33185e-190
2.6582e-190
1.25345e-190
5.56392e-191
2.31183e-191
8.93648e-192
3.19386e-192
1.04911e-192
3.14989e-193
8.59991e-194
2.12338e-194
4.70385e-195
9.23345e-196
1.58281e-196
2.3416e-197
2.96704e-198
3.19899e-199
2.89948e-200
2.17654e-201
1.34004e-202
6.73738e-204
2.75989e-205
9.21633e-207
2.51888e-208
5.671e-210
1.06025e-211
1.66028e-213
2.19475e-215
2.46058e-217
2.33194e-219
1.82692e-221
1.30914e-223
9.39573e-226
6.70248e-228
4.74838e-230
3.33806e-232
2.3265e-234
1.60612e-236
1.09728e-238
7.41135e-241
4.94403e-243
3.25399e-245
2.11072e-247
1.34782e-249
8.46279e-252
5.21845e-254
3.15617e-256
1.86977e-258
1.08347e-260
6.13207e-263
3.38441e-265
1.81859e-267
9.49748e-270
4.81175e-272
2.36029e-274
1.11862e-276
5.1106e-279
2.24528e-281
9.46074e-284
3.81216e-286
1.46426e-288
5.34217e-291
1.8439e-293
5.99401e-296
1.82562e-298
5.17866e-301
1.35859e-303
3.26882e-306
7.14031e-309
1.39835e-311
2.41382e-314
3.28931e-317
0
0
0
0
0
0
0
0
0
0
2.96038e-315
1.84818e-312
9.83855e-310
4.60015e-307
1.92009e-304
7.24726e-302
2.49977e-299
7.94896e-297
2.34766e-294
6.48133e-292
1.682e-289
4.12352e-287
9.59181e-285
2.12542e-282
4.50255e-280
9.14876e-278
1.78838e-275
3.3725e-273
6.15114e-271
1.0877e-268
1.86887e-266
3.12663e-264
5.10335e-262
8.14179e-260
1.27183e-257
1.9485e-255
2.93234e-253
4.34121e-251
6.33138e-249
9.10863e-247
1.29425e-244
1.81849e-242
2.52941e-240
3.48661e-238
4.76763e-236
6.4734e-234
8.73549e-232
1.17258e-229
1.56696e-227
2.08628e-225
2.76961e-223
3.66867e-221
4.42052e-219
4.37917e-217
3.6569e-215
2.59055e-213
1.55382e-211
7.84414e-210
3.3074e-208
1.15564e-206
3.3241e-205
7.83914e-204
1.51446e-202
2.40119e-201
3.13643e-200
3.40615e-199
3.11905e-198
2.43563e-197
1.63185e-196
9.45033e-196
4.78601e-195
2.15002e-194
8.67314e-194
3.16622e-193
1.05174e-192
3.19507e-192
8.92486e-192
2.30551e-191
5.54049e-191
1.2462e-190
2.63848e-190
5.28442e-190
1.00552e-189
1.82424e-189
3.16492e-189
5.26412e-189
8.41383e-189
1.2952e-188
1.92423e-188
2.76479e-188
3.84929e-188
5.20303e-188
6.84013e-188
8.75859e-188
1.09372e-187
1.33327e-187
1.58804e-187
1.84982e-187
2.10946e-187
2.3571e-187
2.58031e-187
2.73808e-187
2.48194e-187
4.3922e-188
1.38899e-197
1.63108e-193
1.74124e-184
8.72735e-184
1.01649e-183
1.01534e-183
9.62877e-184
8.8304e-184
7.87144e-184
6.84131e-184
5.80569e-184
4.81113e-184
3.8912e-184
3.06916e-184
2.35812e-184
1.76266e-184
1.2799e-184
9.01282e-185
6.1441e-185
4.04674e-185
2.56979e-185
1.5698e-185
9.20204e-186
5.16258e-186
2.7638e-186
1.40709e-186
6.78512e-187
3.08436e-187
1.31422e-187
5.21663e-188
1.9171e-188
6.48499e-189
2.00862e-189
5.66931e-190
1.45069e-190
3.33922e-191
6.82636e-192
1.2209e-192
1.88796e-193
2.50674e-194
2.84092e-195
2.71392e-196
2.15095e-197
1.40043e-198
7.45982e-200
3.24311e-201
1.1513e-202
3.35268e-204
8.07183e-206
1.62325e-207
2.75956e-209
4.01831e-211
5.07977e-213
5.64545e-215
5.57304e-217
5.25134e-219
4.93359e-221
4.60326e-223
4.26246e-225
3.91396e-227
3.56112e-229
3.20778e-231
2.85819e-233
2.51679e-235
2.18803e-237
1.87618e-239
1.58509e-241
1.318e-243
1.07735e-245
8.64667e-248
6.80525e-250
5.24517e-252
3.95352e-254
2.90984e-256
2.088e-258
1.45828e-260
9.89525e-263
6.51121e-265
4.14631e-267
2.54962e-269
1.51035e-271
8.59711e-274
4.68909e-276
2.44319e-278
1.21197e-280
5.70248e-283
2.53429e-285
1.0588e-287
4.1362e-290
1.50149e-292
5.02849e-295
1.54038e-297
4.27182e-300
1.05897e-302
2.30932e-305
4.33856e-308
6.82517e-311
8.63061e-314
6.58015e-317
0
0
0
0
3.15848e-315
3.13169e-312
2.32263e-309
1.38112e-306
6.8623e-304
2.93177e-301
1.09993e-298
3.68309e-296
1.11496e-293
3.08367e-291
7.86013e-289
1.86022e-286
4.11378e-284
8.5481e-282
1.67715e-279
3.12059e-277
5.52785e-275
9.35529e-273
1.51751e-270
2.36617e-268
3.55607e-266
5.16397e-264
7.26252e-262
9.91318e-260
1.31592e-257
1.702e-255
2.14865e-253
2.652e-251
3.2053e-249
3.79927e-247
4.42264e-245
5.06289e-243
5.70699e-241
6.34217e-239
6.95659e-237
7.53989e-235
8.08363e-233
8.58147e-231
9.02924e-229
9.42495e-227
9.76853e-225
1.00616e-222
1.03074e-220
1.05099e-218
1.06741e-216
1.02956e-214
8.76591e-213
6.53647e-211
4.22812e-209
2.3474e-207
1.10608e-205
4.37454e-204
1.43776e-202
3.89636e-201
8.66774e-200
1.58181e-198
2.37294e-197
2.93669e-196
3.02668e-195
2.63732e-194
1.96582e-193
1.26035e-192
6.99745e-192
3.4036e-191
1.47185e-190
5.73031e-190
2.02388e-189
6.51732e-189
1.92262e-188
5.22278e-188
1.31392e-187
3.07968e-187
6.76673e-187
1.40172e-186
2.75068e-186
5.13472e-186
9.14909e-186
1.5606e-185
2.55491e-185
4.02399e-185
6.11078e-185
8.96603e-185
1.27362e-184
1.75474e-184
2.34912e-184
3.06066e-184
3.88656e-184
4.81635e-184
5.83077e-184
6.90294e-184
7.99927e-184
9.08192e-184
1.01112e-183
1.10382e-183
1.16979e-183
1.06343e-183
1.93678e-184
8.02183e-194
3.56704e-190
3.60617e-181
1.71903e-180
1.9232e-180
1.87724e-180
1.76551e-180
1.6176e-180
1.44628e-180
1.26354e-180
1.07915e-180
9.00789e-181
7.34416e-181
5.84351e-181
4.53239e-181
3.42262e-181
2.51269e-181
1.79042e-181
1.23614e-181
8.25351e-182
5.31846e-182
3.30028e-182
1.96745e-182
1.12392e-182
6.13469e-183
3.18877e-183
1.57211e-183
7.31684e-184
3.19626e-184
1.30237e-184
4.91959e-185
1.71299e-185
5.47063e-186
1.59535e-186
4.22814e-187
1.01057e-187
2.14953e-188
4.00582e-189
6.46361e-190
8.97359e-191
1.06626e-191
1.06992e-192
8.90999e-194
6.09436e-195
3.40965e-196
1.55494e-197
5.7769e-199
1.75537e-200
4.39598e-202
9.16732e-204
1.61156e-205
2.42084e-207
3.15229e-209
3.60861e-211
3.6783e-213
3.57961e-215
3.47053e-217
3.34034e-219
3.18951e-221
3.01911e-223
2.8309e-225
2.62728e-227
2.41133e-229
2.18669e-231
1.95744e-233
1.72796e-235
1.50269e-237
1.28597e-239
1.08172e-241
8.93312e-244
7.2335e-246
5.73551e-248
4.44696e-250
3.3665e-252
2.48445e-254
1.78441e-256
1.24508e-258
8.42384e-261
5.51502e-263
3.48622e-265
2.12277e-267
1.24187e-269
6.96071e-272
3.72651e-274
1.89911e-276
9.1783e-279
4.18901e-281
1.79695e-283
7.20588e-286
2.6845e-288
9.22389e-291
2.89807e-293
8.24059e-296
2.09384e-298
4.67846e-301
9.00239e-304
1.44995e-306
1.87608e-309
1.82787e-312
1.1844e-315
0
0
3.93157e-314
5.70206e-311
5.521e-308
4.0154e-305
2.3412e-302
1.14049e-299
4.77672e-297
1.75674e-294
5.76583e-292
1.71072e-289
4.63679e-287
1.15817e-284
2.68568e-282
5.8188e-280
1.18445e-277
2.27625e-275
4.1479e-273
7.195e-271
1.1922e-268
1.89309e-266
2.88908e-264
4.24891e-262
6.03669e-260
8.3046e-258
1.10857e-255
1.4388e-253
1.81903e-251
2.2441e-249
2.706e-247
3.19428e-245
3.69677e-243
4.20033e-241
4.69175e-239
5.15851e-237
5.58957e-235
5.97576e-233
6.31024e-231
6.58855e-229
6.80862e-227
6.97054e-225
7.07628e-223
7.12936e-221
7.13442e-219
7.09688e-217
7.02256e-215
6.9174e-213
6.47407e-211
5.36301e-209
3.89168e-207
2.44629e-205
1.3165e-203
5.99371e-202
2.28226e-200
7.19583e-199
1.86467e-197
3.95636e-196
6.87711e-195
9.82358e-194
1.15737e-192
1.13589e-191
9.44234e-191
6.73243e-190
4.13739e-189
2.20493e-188
1.03094e-187
4.29425e-187
1.61443e-186
5.51933e-186
1.72389e-185
4.94063e-185
1.30574e-184
3.20009e-184
7.31717e-184
1.57062e-183
3.18301e-183
6.11949e-183
1.12062e-182
1.96122e-182
3.28972e-182
5.30212e-182
8.23031e-182
1.23312e-181
1.7869e-181
2.50931e-181
3.42083e-181
4.53519e-181
5.85615e-181
7.37523e-181
9.07088e-181
1.09071e-180
1.28354e-180
1.47968e-180
1.67247e-180
1.85499e-180
2.01889e-180
2.13527e-180
1.94305e-180
3.62647e-181
1.99731e-190
4.96548e-187
4.3577e-178
2.04855e-177
2.25053e-177
2.16912e-177
2.02934e-177
1.85756e-177
1.66442e-177
1.46014e-177
1.25387e-177
1.05346e-177
8.65289e-178
6.94201e-178
5.43362e-178
4.14413e-178
3.07536e-178
2.21706e-178
1.55008e-178
1.04908e-178
6.85939e-179
4.32368e-179
2.62132e-179
1.52479e-179
8.48607e-180
4.50387e-180
2.27046e-180
1.08202e-180
4.84636e-181
2.02734e-181
7.8722e-182
2.82175e-182
9.29264e-183
2.80038e-183
7.68906e-184
1.90895e-184
4.22634e-185
8.20922e-186
1.38255e-186
2.00781e-187
2.5029e-188
2.63999e-189
2.31145e-190
1.66198e-191
9.77354e-193
4.67851e-194
1.81953e-195
5.76732e-197
1.50067e-198
3.23813e-200
5.86493e-202
9.03752e-204
1.20194e-205
1.39954e-207
1.4458e-209
1.42135e-211
1.39137e-213
1.35166e-215
1.30225e-217
1.24344e-219
1.17581e-221
1.10025e-223
1.01796e-225
9.30402e-228
8.39294e-230
7.46516e-232
6.54038e-234
5.6382e-236
4.77705e-238
3.97325e-240
3.24007e-242
2.58709e-244
2.01981e-246
1.53961e-248
1.14401e-250
8.27268e-253
5.81146e-255
3.95844e-257
2.60903e-259
1.66035e-261
1.01778e-263
5.99421e-266
3.38231e-268
1.82291e-270
9.35223e-273
4.55022e-275
2.09068e-277
9.02864e-280
3.64491e-282
1.36703e-284
4.72874e-287
1.49575e-289
4.28179e-292
1.09529e-294
2.46378e-297
4.77276e-300
7.73881e-303
1.00803e-305
9.88682e-309
6.49019e-312
2.1056e-315
6.83663e-314
1.97731e-310
2.85648e-307
2.75306e-304
1.99302e-301
1.15664e-298
5.60814e-296
2.33786e-293
8.5576e-291
2.79547e-288
8.25493e-286
2.22682e-283
5.53561e-281
1.27752e-278
2.75458e-276
5.58003e-274
1.06716e-271
1.93514e-269
3.34025e-267
5.50739e-265
8.70157e-263
1.32129e-260
1.93333e-258
2.73274e-256
3.73992e-254
4.96621e-252
6.41134e-250
8.06198e-248
9.89151e-246
1.18611e-243
1.39222e-241
1.60193e-239
1.80942e-237
2.00894e-235
2.19519e-233
2.36358e-231
2.51048e-229
2.63328e-227
2.73049e-225
2.80162e-223
2.84714e-221
2.86829e-219
2.86691e-217
2.84529e-215
2.80599e-213
2.75166e-211
2.68495e-209
2.48182e-207
2.02382e-205
1.44024e-203
8.84157e-202
4.62615e-200
2.03825e-198
7.47641e-197
2.26108e-195
5.59938e-194
1.1322e-192
1.87296e-191
2.54588e-190
2.85359e-189
2.66503e-188
2.11219e-187
1.44001e-186
8.47994e-186
4.33645e-185
1.94824e-184
7.81355e-184
2.83572e-183
9.38228e-183
2.84199e-182
7.9125e-182
2.03433e-181
4.85656e-181
1.08312e-180
2.27075e-180
4.50115e-180
8.4762e-180
1.52246e-179
2.61688e-179
4.31642e-179
6.84894e-179
1.04779e-178
1.54883e-178
2.21651e-178
3.07686e-178
4.15012e-178
5.44834e-178
6.97213e-178
8.70857e-178
1.06307e-177
1.26966e-177
1.4852e-177
1.70321e-177
1.91642e-177
2.11738e-177
2.29721e-177
2.42424e-177
2.20734e-177
4.22079e-178
3.10891e-187
5.12629e-184
3.68366e-175
1.71667e-174
1.87283e-174
1.79439e-174
1.67445e-174
1.533e-174
1.37696e-174
1.2128e-174
1.04693e-174
8.8513e-175
7.32283e-175
5.92268e-175
4.6775e-175
3.60267e-175
2.70232e-175
1.97088e-175
1.39537e-175
9.57247e-176
6.3509e-176
4.06652e-176
2.50743e-176
1.48531e-176
8.42969e-177
4.56887e-177
2.3555e-177
1.14966e-177
5.28078e-178
2.26831e-178
9.05569e-179
3.34203e-179
1.13514e-179
3.53592e-180
1.00622e-180
2.59619e-181
5.98598e-182
1.21249e-182
2.13242e-183
3.2416e-184
4.2437e-185
4.71072e-186
4.34165e-187
3.28627e-188
2.03509e-189
1.02472e-190
4.18091e-192
1.38541e-193
3.75356e-195
8.39756e-197
1.57003e-198
2.486e-200
3.38165e-202
4.00909e-204
4.19885e-206
4.16787e-208
4.1173e-210
4.03489e-212
3.92021e-214
3.77365e-216
3.59652e-218
3.39114e-220
3.16083e-222
2.90993e-224
2.6436e-226
2.36771e-228
2.08856e-230
1.81255e-232
1.54587e-234
1.29415e-236
1.06216e-238
8.53529e-241
6.70604e-243
5.14395e-245
3.8462e-247
2.79868e-249
1.97829e-251
1.35589e-253
8.99232e-256
5.75819e-258
3.55173e-260
2.10485e-262
1.19513e-264
6.48175e-267
3.34642e-269
1.63851e-271
7.57656e-274
3.29299e-276
1.338e-278
5.0509e-281
1.75863e-283
5.59945e-286
1.61357e-288
4.15515e-291
9.40961e-294
1.83512e-296
2.99578e-299
3.92884e-302
3.87979e-305
2.56437e-308
8.51615e-312
2.55604e-310
7.35667e-307
1.0576e-303
1.01435e-300
7.30741e-298
4.22011e-295
2.03619e-292
8.44678e-290
3.07677e-287
1.00015e-284
2.93892e-282
7.88902e-280
1.95147e-277
4.48146e-275
9.61523e-273
1.93815e-270
3.68825e-268
6.65489e-266
1.14297e-263
1.87508e-261
2.94769e-259
4.45329e-257
6.48299e-255
9.11667e-253
1.24123e-250
1.63965e-248
2.10566e-246
2.63371e-244
3.21403e-242
3.83303e-240
4.47421e-238
5.11926e-236
5.74927e-234
6.34604e-232
6.8931e-230
7.37667e-228
7.7862e-226
8.11467e-224
8.35863e-222
8.51791e-220
8.59526e-218
8.59579e-216
8.52639e-214
8.39512e-212
8.21069e-210
7.98199e-208
7.71765e-206
7.04238e-204
5.64689e-202
3.93472e-200
2.3544e-198
1.19502e-196
5.08301e-195
1.79157e-193
5.18427e-192
1.22401e-190
2.35342e-189
3.69805e-188
4.77635e-187
5.08707e-186
4.51552e-185
3.40874e-184
2.22061e-183
1.25241e-182
6.1423e-182
2.65013e-181
1.02281e-180
3.58191e-180
1.14661e-179
3.36771e-179
9.10706e-179
2.27745e-178
5.29509e-178
1.15157e-177
2.35743e-177
4.56961e-177
8.42684e-177
1.48435e-176
2.50548e-176
4.06343e-176
6.34708e-176
9.56949e-176
1.39552e-175
1.97222e-175
2.70618e-175
3.61127e-175
4.69448e-175
5.95329e-175
7.3747e-175
8.93513e-175
1.05997e-174
1.23248e-174
1.40594e-174
1.57472e-174
1.73309e-174
1.87431e-174
1.97348e-174
1.79792e-174
3.52325e-175
3.49003e-184
4.19858e-181
2.3784e-172
1.09645e-171
1.19312e-171
1.14072e-171
1.06402e-171
9.75484e-172
8.78739e-172
7.77215e-172
6.74462e-172
5.73797e-172
4.78126e-172
3.89833e-172
3.10635e-172
2.41612e-172
1.83178e-172
1.35158e-172
9.69007e-173
6.73837e-173
4.53652e-173
2.95095e-173
1.85078e-173
1.11661e-173
6.46346e-174
3.57823e-174
1.88708e-174
9.43522e-175
4.44559e-175
1.9612e-175
8.05142e-176
3.0599e-176
1.07216e-176
3.45317e-177
1.01891e-177
2.73371e-178
6.56804e-179
1.38807e-179
2.55063e-180
4.06154e-181
5.58989e-182
6.53843e-183
6.35134e-184
5.06832e-185
3.31182e-186
1.75807e-187
7.54318e-189
2.61961e-190
7.4089e-192
1.72287e-193
3.33318e-195
5.4365e-197
7.58198e-199
9.17311e-201
9.76097e-203
9.79766e-205
9.78147e-207
9.68333e-209
9.50044e-211
9.232e-213
8.87956e-215
8.44733e-217
7.94225e-219
7.37406e-221
6.75503e-223
6.09961e-225
5.42381e-227
4.7444e-229
4.07808e-231
3.44052e-233
2.84546e-235
2.30397e-237
1.8239e-239
1.40959e-241
1.06188e-243
7.7846e-246
5.54382e-248
3.82804e-250
2.55776e-252
1.65011e-254
1.02545e-256
6.12286e-259
3.50282e-261
1.91416e-263
9.95784e-266
4.91305e-268
2.28935e-270
1.00274e-272
4.10613e-275
1.56223e-277
5.48244e-280
1.7595e-282
5.11091e-285
1.32673e-287
3.0288e-290
5.95506e-293
9.80095e-296
1.2959e-298
1.29025e-301
8.59832e-305
2.87903e-308
8.14476e-307
2.32976e-303
3.32867e-300
3.17286e-297
2.27163e-294
1.3038e-291
6.25195e-289
2.57748e-286
9.33053e-284
3.01426e-281
8.80255e-279
2.34825e-276
5.77274e-274
1.31745e-271
2.8091e-269
5.62707e-267
1.06414e-264
1.90809e-262
3.25658e-260
5.30899e-258
8.2933e-256
1.245e-253
1.80092e-251
2.51634e-249
3.40398e-247
4.46748e-245
5.69977e-243
7.08224e-241
8.5853e-239
1.017e-236
1.17905e-234
1.33973e-232
1.49408e-230
1.63742e-228
1.76569e-226
1.87559e-224
1.96476e-222
2.0318e-220
2.07627e-218
2.09857e-216
2.09981e-214
2.08169e-212
2.04629e-210
1.99596e-208
1.93311e-206
1.86018e-204
1.77945e-202
1.59946e-200
1.25814e-198
8.56211e-197
4.98025e-195
2.44527e-193
1.0012e-191
3.38116e-190
9.33593e-189
2.09617e-187
3.82334e-186
5.69506e-185
6.97882e-184
7.05375e-183
5.94347e-182
4.26889e-181
2.65535e-180
1.43354e-179
6.73915e-179
2.79064e-178
1.03586e-177
3.4989e-177
1.08332e-176
3.08447e-176
8.10016e-176
1.9699e-175
4.45949e-175
9.45499e-175
1.88951e-174
3.58064e-174
6.46486e-174
1.11653e-173
1.85042e-173
2.9504e-173
4.53629e-173
6.73982e-173
9.69599e-173
1.35315e-172
1.83522e-172
2.42282e-172
3.1185e-172
3.91896e-172
4.81454e-172
5.78948e-172
6.82168e-172
7.88424e-172
8.94622e-172
9.97409e-172
1.09344e-171
1.17878e-171
1.23832e-171
1.12882e-171
2.26804e-172
3.04162e-181
2.8342e-178
1.23111e-169
5.59632e-169
6.08449e-169
5.817e-169
5.4315e-169
4.99064e-169
4.51086e-169
4.00739e-169
3.49641e-169
2.99341e-169
2.51234e-169
2.06501e-169
1.66027e-169
1.3041e-169
9.99359e-170
7.4601e-170
5.41636e-170
3.81817e-170
2.60864e-170
1.72406e-170
1.09999e-170
6.76039e-171
3.99207e-171
2.25798e-171
1.21846e-171
6.24276e-172
3.01806e-172
1.36779e-172
5.77557e-173
2.26082e-173
8.17397e-174
2.72299e-174
8.33508e-175
2.32692e-175
5.82945e-176
1.2861e-176
2.47048e-177
4.12382e-178
5.97355e-179
7.37206e-180
7.55681e-181
6.36698e-182
4.39902e-183
2.46767e-184
1.11613e-185
4.07291e-187
1.20568e-188
2.92191e-190
5.86483e-192
9.87865e-194
1.41613e-195
1.7528e-197
1.89947e-199
1.9313e-201
1.95174e-203
1.95492e-205
1.93979e-207
1.90571e-209
1.85252e-211
1.78066e-213
1.69117e-215
1.58577e-217
1.46679e-219
1.33715e-221
1.20021e-223
1.05964e-225
9.19197e-228
7.82558e-230
6.53059e-232
5.33531e-234
4.26134e-236
3.32263e-238
2.52523e-240
1.86762e-242
1.3418e-244
9.34715e-247
6.30075e-249
4.10093e-251
2.57117e-253
1.54892e-255
8.94056e-258
4.92963e-260
2.58768e-262
1.28833e-264
6.05812e-267
2.67785e-269
1.1067e-271
4.24974e-274
1.50534e-276
4.8766e-279
1.42993e-281
3.74721e-284
8.63625e-287
1.71429e-289
2.84855e-292
3.80275e-295
3.82276e-298
2.57213e-301
8.69559e-305
2.32199e-303
6.59212e-300
9.3479e-297
8.84346e-294
6.28401e-291
3.5796e-288
1.70359e-285
6.97059e-283
2.50439e-280
8.02966e-278
2.32725e-275
6.16164e-273
1.50331e-270
3.40497e-268
7.20534e-266
1.43244e-263
2.6884e-261
4.78396e-259
8.10291e-257
1.31091e-254
2.03216e-252
3.02734e-250
4.34543e-248
6.02479e-246
8.08675e-244
1.05304e-241
1.33294e-239
1.64313e-237
1.97593e-235
2.32177e-233
2.66977e-231
3.00857e-229
3.32711e-227
3.61537e-225
3.86493e-223
4.06942e-221
4.22468e-219
4.32884e-217
4.3821e-215
4.38655e-213
4.34573e-211
4.26429e-209
4.14763e-207
4.00145e-205
3.83152e-203
3.64341e-201
3.44225e-199
3.04046e-197
2.3402e-195
1.5512e-193
8.74566e-192
4.14139e-190
1.6273e-188
5.24975e-187
1.37924e-185
2.93738e-184
5.0703e-183
7.14425e-182
8.29363e-181
7.94509e-180
6.34641e-179
4.33208e-178
2.57107e-177
1.32795e-176
5.98056e-176
2.37529e-175
8.47428e-175
2.75945e-174
8.26073e-174
2.27951e-173
5.81205e-173
1.37424e-172
3.0284e-172
6.25779e-172
1.22044e-171
2.2603e-171
3.99444e-171
6.76255e-171
1.10019e-170
1.72435e-170
2.60936e-170
3.8201e-170
5.42106e-170
7.47039e-170
1.00139e-169
1.3078e-169
1.66664e-169
2.07539e-169
2.52852e-169
3.01766e-169
3.53158e-169
4.05703e-169
4.579e-169
5.08153e-169
5.54903e-169
5.96305e-169
6.24987e-169
5.70071e-169
1.17506e-169
2.1511e-178
1.61547e-175
5.26142e-167
2.35128e-166
2.5558e-166
2.44603e-166
2.28828e-166
2.10847e-166
1.91293e-166
1.70737e-166
1.49796e-166
1.29072e-166
1.09121e-166
9.04239e-167
7.33576e-167
5.81922e-167
4.50768e-167
3.40454e-167
2.50338e-167
1.78909e-167
1.2406e-167
8.33158e-168
5.40862e-168
3.38689e-168
2.04085e-168
1.17974e-168
6.51633e-169
3.42237e-169
1.69824e-169
7.90893e-170
3.4358e-170
1.38559e-170
5.17056e-171
1.78229e-171
5.66294e-172
1.64622e-172
4.3034e-173
9.9171e-174
1.99249e-174
3.48923e-175
5.3261e-176
6.94445e-177
7.52103e-178
6.70067e-179
4.90564e-180
2.91489e-181
1.39329e-182
5.35694e-184
1.66449e-185
4.21562e-187
8.80263e-189
1.53531e-190
2.26824e-192
2.87967e-194
3.18603e-196
3.28725e-198
3.36848e-200
3.41929e-202
3.43681e-204
3.41879e-206
3.36389e-208
3.27179e-210
3.14341e-212
2.98098e-214
2.78808e-216
2.56955e-218
2.33136e-220
2.0803e-222
1.82368e-224
1.56886e-226
1.32287e-228
1.09193e-230
8.81112e-233
6.94067e-235
5.32898e-237
3.98154e-239
2.88979e-241
2.03366e-243
1.38489e-245
9.10628e-248
5.76813e-250
3.5107e-252
2.04743e-254
1.14066e-256
6.05023e-259
3.04388e-261
1.44645e-263
6.46164e-266
2.69898e-268
1.04754e-270
3.75066e-273
1.22822e-275
3.64068e-278
9.64504e-281
2.24733e-283
4.51012e-286
7.57706e-289
1.02271e-291
1.03948e-294
7.07154e-298
2.41706e-301
6.10015e-300
1.71651e-296
2.41259e-293
2.26224e-290
1.59331e-287
8.99588e-285
4.24345e-282
1.72094e-279
6.12831e-277
1.9475e-274
5.59451e-272
1.46809e-269
3.5501e-267
7.96966e-265
1.67152e-262
3.29352e-260
6.12635e-258
1.08047e-255
1.81375e-253
2.90812e-251
4.46779e-249
6.59594e-247
9.38248e-245
1.28908e-242
1.71454e-240
2.21224e-238
2.77452e-236
3.38851e-234
4.03683e-232
4.69873e-230
5.35165e-228
5.97283e-226
6.54096e-224
7.03755e-222
7.448e-220
7.7622e-218
7.97476e-216
8.08486e-214
8.09575e-212
8.01407e-210
7.84906e-208
7.61167e-206
7.31384e-204
6.96772e-202
6.58514e-200
6.17714e-198
5.75366e-196
4.98135e-194
3.74145e-192
2.40861e-190
1.31228e-188
5.97432e-187
2.24569e-185
6.89895e-184
1.71959e-182
3.46469e-181
5.64578e-180
7.5087e-179
8.24511e-178
7.47683e-177
5.65405e-176
3.66346e-175
2.07291e-174
1.02373e-173
4.4142e-173
1.6803e-172
5.75754e-172
1.8063e-171
5.22615e-171
1.39728e-170
3.45815e-170
7.94783e-170
1.70443e-169
3.43139e-169
6.5285e-169
1.18126e-168
2.04259e-168
3.38885e-168
5.41095e-168
8.33482e-168
1.24116e-167
1.79025e-167
2.5058e-167
3.40937e-167
4.51669e-167
5.83494e-167
7.36186e-167
9.08362e-167
1.09746e-166
1.29986e-166
1.51089e-166
1.72517e-166
1.93671e-166
2.13928e-166
2.32691e-166
2.49252e-166
2.60639e-166
2.37896e-166
5.03431e-167
1.27084e-175
7.90527e-173
1.89145e-164
8.28637e-164
9.0066e-164
8.6342e-164
8.09707e-164
7.48491e-164
6.81826e-164
6.11531e-164
5.39596e-164
4.67996e-164
3.98582e-164
3.33013e-164
2.72622e-164
2.18424e-164
1.7104e-164
1.30714e-164
9.73511e-165
7.05432e-165
4.96544e-165
3.38917e-165
2.23911e-165
1.42905e-165
8.79001e-166
5.19514e-166
2.93849e-166
1.5827e-166
8.06441e-167
3.86075e-167
1.72602e-167
7.17314e-168
2.76368e-168
9.86186e-169
3.25484e-169
9.86114e-170
2.69206e-170
6.48428e-171
1.36343e-171
2.50696e-172
4.0379e-173
5.57031e-174
6.38184e-175
6.02142e-176
4.68186e-177
2.95395e-178
1.49595e-179
6.07737e-181
1.98797e-182
5.27744e-184
1.14969e-185
2.08219e-187
3.17906e-189
4.15099e-191
4.70114e-193
4.93135e-195
5.13289e-197
5.28929e-199
5.3941e-201
5.44176e-203
5.42797e-205
5.35007e-207
5.20742e-209
5.00167e-211
4.73692e-213
4.41977e-215
4.05909e-217
3.66575e-219
3.25199e-221
2.8308e-223
2.41507e-225
2.01682e-227
1.64642e-229
1.31201e-231
1.01904e-233
7.70211e-236
5.65501e-238
4.02586e-240
2.77343e-242
1.84491e-244
1.18226e-246
7.28008e-249
4.2957e-251
2.4215e-253
1.29965e-255
6.6166e-258
3.18191e-260
1.43857e-262
6.08156e-265
2.38914e-267
8.65877e-270
2.87029e-272
8.61304e-275
2.31004e-277
5.44931e-280
1.10722e-282
1.88332e-285
2.57372e-288
2.64854e-291
1.82421e-294
6.31251e-298
1.50764e-296
4.19925e-293
5.84225e-290
5.42262e-287
3.78045e-284
2.1128e-281
9.86518e-279
3.96025e-276
1.39593e-273
4.39105e-271
1.24859e-268
3.24321e-266
7.76295e-264
1.72499e-261
3.58111e-259
6.98429e-257
1.28592e-254
2.24477e-252
3.72971e-250
5.91888e-248
8.99996e-246
1.31502e-243
1.85127e-241
2.51715e-239
3.31311e-237
4.23017e-235
5.24957e-233
6.34344e-231
7.47657e-229
8.60894e-227
9.69883e-225
1.07059e-222
1.15942e-220
1.23343e-218
1.29048e-216
1.32934e-214
1.34964e-212
1.35181e-210
1.337e-208
1.30686e-206
1.26342e-204
1.20893e-202
1.14571e-200
1.07601e-198
1.00198e-196
9.25507e-195
8.48272e-193
7.17919e-191
5.24684e-189
3.27044e-187
1.71633e-185
7.48727e-184
2.68322e-182
7.82391e-181
1.84452e-179
3.50665e-178
5.38076e-177
6.73913e-176
6.98894e-175
5.99158e-174
4.28312e-173
2.6307e-172
1.41797e-171
6.69199e-171
2.76083e-170
1.00641e-169
3.30907e-169
9.99517e-169
2.79365e-168
7.23455e-168
1.73748e-167
3.88031e-167
8.09505e-167
1.58714e-166
2.94449e-166
5.20274e-166
8.79913e-166
1.43013e-165
2.24042e-165
3.39091e-165
4.96813e-165
7.05917e-165
9.74445e-165
1.30891e-164
1.71357e-164
2.18959e-164
2.73487e-164
3.34345e-164
4.00557e-164
4.70825e-164
5.43523e-164
6.16819e-164
6.88725e-164
7.5721e-164
8.20369e-164
8.75914e-164
9.13803e-164
8.34684e-164
1.81512e-164
6.39777e-173
3.36023e-170
5.78427e-162
2.47773e-161
2.6928e-161
2.58666e-161
2.43249e-161
2.25648e-161
2.06429e-161
1.86084e-161
1.65159e-161
1.44201e-161
1.23735e-161
1.04243e-161
8.61243e-162
6.96986e-162
5.51795e-162
4.26748e-162
3.21958e-162
2.36588e-162
1.69078e-162
1.17319e-162
7.89057e-163
5.13454e-163
3.22532e-163
1.95e-163
1.13009e-163
6.24569e-164
3.26944e-164
1.60969e-164
7.40863e-165
3.17398e-165
1.26308e-165
4.66859e-166
1.60189e-166
5.06338e-167
1.44494e-167
3.64036e-168
8.01584e-169
1.54903e-169
2.63668e-170
3.85441e-171
4.6774e-172
4.68127e-173
3.87512e-174
2.60272e-175
1.40013e-176
6.02834e-178
2.0826e-179
5.8133e-181
1.32529e-182
2.49967e-184
3.95546e-186
5.32698e-188
6.19265e-190
6.61736e-192
7.00949e-194
7.34555e-196
7.61354e-198
7.80228e-200
7.90201e-202
7.9051e-204
7.80675e-206
7.60564e-208
7.30433e-210
6.9096e-212
6.43239e-214
5.88746e-216
5.29275e-218
4.66832e-220
4.03518e-222
3.41392e-224
2.82331e-226
2.27913e-228
1.79321e-230
1.37293e-232
1.02112e-234
7.36391e-237
5.13907e-239
3.46315e-241
2.24831e-243
1.40263e-245
8.38546e-248
4.78947e-250
2.60474e-252
1.34379e-254
6.54896e-257
3.00074e-259
1.28574e-261
5.11972e-264
1.88084e-266
6.32026e-269
1.92264e-271
5.22771e-274
1.25025e-276
2.57551e-279
4.44153e-282
6.15385e-285
6.42042e-288
4.48324e-291
1.57273e-294
3.55906e-293
9.79963e-290
1.3478e-286
1.2367e-283
8.52325e-281
4.70898e-278
2.17359e-275
8.62577e-273
3.00568e-270
9.34645e-268
2.62723e-265
6.74611e-263
1.59625e-260
3.50637e-258
7.19583e-256
1.38731e-253
2.52494e-251
4.35699e-249
7.15584e-247
1.1225e-244
1.68709e-242
2.43653e-240
3.39024e-238
4.55593e-236
5.92637e-234
7.47777e-232
9.17005e-230
1.0949e-227
1.27501e-225
1.45038e-223
1.61408e-221
1.75975e-219
1.88202e-217
1.97689e-215
2.04187e-213
2.07601e-211
2.07983e-209
2.05509e-207
2.00457e-205
1.93174e-203
1.8405e-201
1.7349e-199
1.61892e-197
1.49628e-195
1.37034e-193
1.24401e-191
1.11972e-189
9.23725e-188
6.5487e-186
3.93932e-184
1.98452e-182
8.26601e-181
2.81416e-179
7.76138e-178
1.72517e-176
3.08632e-175
4.44784e-174
5.23314e-173
5.11743e-172
4.14211e-171
2.7946e-170
1.62461e-169
8.33369e-169
3.75604e-168
1.48154e-167
5.16683e-167
1.62847e-166
4.73173e-166
1.27685e-165
3.20143e-165
7.45856e-165
1.61802e-164
3.28224e-164
6.26395e-164
1.13254e-163
1.9531e-163
3.22905e-163
5.13898e-163
7.8959e-163
1.17386e-162
1.69173e-162
2.36746e-162
3.22244e-162
4.2727e-162
5.52703e-162
6.98481e-162
8.63604e-162
1.04599e-161
1.24254e-161
1.44932e-161
1.66157e-161
1.87404e-161
2.08114e-161
2.27731e-161
2.45745e-161
2.61528e-161
2.722e-161
2.48839e-161
5.56737e-162
2.78278e-170
1.25072e-167
1.51315e-159
6.32126e-159
6.86818e-159
6.61203e-159
6.23663e-159
5.80686e-159
5.33598e-159
4.83523e-159
4.31729e-159
3.79512e-159
3.28134e-159
2.78784e-159
2.32478e-159
1.90063e-159
1.52149e-159
1.19097e-159
9.10369e-160
6.78563e-160
4.92484e-160
3.47512e-160
2.38038e-160
1.58009e-160
1.01424e-160
6.27697e-161
3.72983e-161
2.1167e-161
1.13907e-161
5.77064e-162
2.73551e-162
1.20862e-162
4.97026e-163
1.90433e-163
6.80052e-164
2.24555e-164
6.70642e-165
1.76874e-165
4.08149e-166
8.29868e-167
1.49544e-167
2.32065e-168
2.98686e-169
3.17631e-170
2.80677e-171
2.01213e-172
1.1529e-173
5.27784e-175
1.93224e-176
5.69056e-178
1.36205e-179
2.68383e-181
4.41498e-183
6.15098e-185
7.36132e-187
8.03035e-189
8.67361e-191
9.26089e-193
9.77305e-195
1.01911e-196
1.04971e-198
1.06752e-200
1.07129e-202
1.06023e-204
1.03407e-206
9.93168e-209
9.3854e-211
8.71855e-213
7.95373e-215
7.11825e-217
6.24249e-219
5.35794e-221
4.495e-223
3.68086e-225
2.93773e-227
2.28153e-229
1.72128e-231
1.25918e-233
8.91413e-236
6.09389e-238
4.01353e-240
2.54027e-242
1.54083e-244
8.92954e-247
4.92773e-249
2.57979e-251
1.27591e-253
5.93332e-256
2.58032e-258
1.0429e-260
3.88907e-263
1.32663e-265
4.09686e-268
1.13088e-270
2.74579e-273
5.74252e-276
1.00541e-278
1.41425e-281
1.49796e-284
1.06187e-287
3.78135e-291
8.11788e-290
2.20681e-286
2.99663e-283
2.71471e-280
1.8472e-277
1.00759e-274
4.59177e-272
1.79905e-269
6.18916e-267
1.90011e-264
5.27316e-262
1.33679e-259
3.12285e-257
6.77239e-255
1.37213e-252
2.61167e-250
4.69263e-248
7.99407e-246
1.29613e-243
2.00713e-241
2.97793e-239
4.24541e-237
5.83091e-235
7.7343e-233
9.92996e-231
1.23657e-228
1.4965e-226
1.7632e-224
2.02593e-222
2.27367e-220
2.49605e-218
2.6841e-216
2.83091e-214
2.93198e-212
2.98534e-210
2.99147e-208
2.95297e-206
2.87417e-204
2.76063e-202
2.61867e-200
2.45488e-198
2.27574e-196
2.08733e-194
1.89509e-192
1.70369e-190
1.51699e-188
1.33802e-186
1.07263e-184
7.3521e-183
4.25305e-181
2.04911e-179
8.11847e-178
2.61573e-176
6.79836e-175
1.4199e-173
2.3838e-172
3.21772e-171
3.54687e-170
3.26496e-169
2.49168e-168
1.58376e-167
8.69894e-167
4.24196e-166
1.8245e-165
6.87473e-165
2.29104e-164
6.91266e-164
1.93006e-163
5.02469e-163
1.21915e-162
2.75414e-162
5.80094e-162
1.14363e-161
2.12307e-161
3.73827e-161
6.28752e-161
1.0155e-160
1.58155e-160
2.3821e-160
3.47717e-160
4.92751e-160
6.78973e-160
9.11079e-160
1.19223e-159
1.52362e-159
1.90407e-159
2.33013e-159
2.79578e-159
3.29277e-159
3.81102e-159
4.33867e-159
4.86301e-159
5.37077e-159
5.84908e-159
6.28633e-159
6.66803e-159
6.92371e-159
6.33546e-159
1.46059e-159
1.05576e-167
4.09731e-165
3.3875e-157
1.37622e-156
1.4946e-156
1.44222e-156
1.36465e-156
1.27555e-156
1.17753e-156
1.07277e-156
9.63762e-157
8.53094e-157
7.43342e-157
6.36992e-157
5.3623e-157
4.42956e-157
3.58619e-157
2.84187e-157
2.20153e-157
1.66499e-157
1.2277e-157
8.81394e-158
6.15231e-158
4.16887e-158
2.73668e-158
1.7353e-158
1.05825e-158
6.1725e-159
3.41755e-159
1.78276e-159
8.70914e-160
3.97053e-160
1.68846e-160
6.71257e-161
2.49836e-161
8.63242e-162
2.70196e-162
7.46739e-163
1.80737e-163
3.87173e-164
7.40225e-165
1.22186e-165
1.67038e-166
1.89099e-167
1.78913e-168
1.37281e-169
8.40164e-171
4.10395e-172
1.59812e-173
4.98388e-175
1.25685e-176
2.59599e-178
4.45401e-180
6.43998e-182
7.95923e-184
8.88412e-186
9.80537e-188
1.0688e-189
1.15055e-191
1.223e-193
1.28336e-195
1.32895e-197
1.3574e-199
1.36679e-201
1.35585e-203
1.32412e-205
1.27204e-207
1.20102e-209
1.11344e-211
1.01252e-213
9.02146e-216