/*--------------------------------*- C++ -*----------------------------------*\
| =========                 |                                                 |
| \\      /  F ield         | OpenFOAM: The Open Source CFD Toolbox           |
|  \\    /   O peration     | Version:  2412                                  |
|   \\  /    A nd           | Website:  www.openfoam.com                      |
|    \\/     M anipulation  |                                                 |
\*---------------------------------------------------------------------------*/
FoamFile
{
    version     2.0;
    format      ascii;
    arch        "LSB;label=32;scalar=64";
    class       surfaceScalarField;
    location    "1.09";
    object      alphaPhi0.water;
}
// * * * * * * * * * * * * * * * * * * * * * * * * * * * * * * * * * * * * * //

dimensions      [0 3 -1 0 0 0 0];

oriented        oriented;

internalField   nonuniform List<scalar> 
79600
(
5.76229e-208
-3.25924e-204
1.23033e-198
-3.53199e-195
1.20829e-197
-2.14508e-194
2.1408e-197
-2.6921e-194
2.87813e-197
-2.78028e-194
3.38082e-197
-2.64996e-194
3.6618e-197
-2.41721e-194
3.74416e-197
-2.13727e-194
3.65494e-197
-1.84002e-194
3.43228e-197
-1.54704e-194
3.11055e-197
-1.27032e-194
2.72393e-197
-1.01775e-194
2.30686e-197
-7.9494e-195
1.88938e-197
-6.04588e-195
1.49591e-197
-4.47106e-195
1.14398e-197
-3.2099e-195
8.43975e-198
-2.23315e-195
5.99909e-198
-1.50284e-195
4.10175e-198
-9.76308e-196
2.69272e-198
-6.10944e-196
1.69375e-198
-3.67401e-196
1.01849e-198
-2.11793e-196
5.84009e-199
-1.16719e-196
3.18412e-199
-6.13068e-197
1.64523e-199
-3.05845e-197
8.0245e-200
-1.44321e-197
3.67763e-200
-6.41082e-198
1.57496e-200
-2.66527e-198
6.26459e-201
-1.0306e-198
2.3003e-201
-3.6832e-199
7.75164e-202
-1.20938e-199
2.38427e-202
-3.62867e-200
6.65979e-203
-9.89974e-201
1.6801e-203
-2.44273e-201
3.79805e-204
-5.40784e-202
7.59883e-205
-1.06024e-202
1.32611e-205
-1.81285e-203
1.99495e-206
-2.67064e-204
2.56763e-207
-3.36481e-205
2.80892e-208
-3.60248e-206
2.58048e-209
-3.2346e-207
1.96132e-210
-2.39548e-208
1.22138e-211
-1.44745e-209
6.2049e-213
-7.09844e-211
2.56571e-214
-2.81403e-212
8.63997e-216
-9.00383e-214
2.37885e-217
-2.3291e-215
5.39009e-219
-4.88904e-217
1.01319e-220
-8.36122e-219
1.59362e-222
-1.1672e-220
2.11385e-224
-1.32359e-222
2.37565e-226
-1.19083e-224
2.25467e-228
-7.79655e-227
1.76712e-230
-2.24884e-229
1.26552e-232
7.67489e-236
9.06781e-235
1.48796e-237
6.45122e-237
1.73495e-239
4.55328e-239
1.70958e-241
3.18549e-241
1.5418e-243
2.20703e-243
1.31285e-245
1.51293e-245
1.07158e-247
1.02516e-247
8.45355e-250
6.85945e-250
6.47643e-252
4.52754e-252
4.83218e-254
2.94469e-254
3.51701e-256
1.88509e-256
2.4992e-258
1.1864e-258
1.73448e-260
7.3317e-261
1.1756e-262
4.44319e-263
7.77892e-265
2.63706e-265
5.02237e-267
1.53063e-267
3.16154e-269
8.67567e-270
1.9386e-271
4.79447e-272
1.15667e-273
2.5791e-274
6.70706e-276
1.34812e-276
3.77455e-278
6.8346e-279
2.05854e-280
3.35402e-281
1.08618e-282
1.58989e-283
5.53507e-285
7.26313e-286
2.71875e-287
3.18983e-288
1.28444e-289
1.34318e-290
5.82293e-292
5.40698e-293
2.52663e-294
2.07408e-295
1.04638e-296
7.55426e-298
4.12313e-299
2.60204e-300
1.5404e-301
8.43768e-303
5.43506e-304
2.56254e-305
1.80303e-306
7.24531e-308
5.5951e-309
1.8938e-310
1.61451e-311
4.53809e-313
4.30195e-314
9.86912e-316
1.04969e-316
1.9236e-318
2.32186e-319
3.3053e-321
4.59481e-322
4.94066e-324
0
0
0
0
0
0
0
0
0
0
0
0
0
0
0
0
0
0
0
0
0
0
0
-3.7549e-322
0
-2.32804e-319
5.92879e-323
-1.23975e-316
3.23514e-320
-5.79907e-314
1.49591e-317
-2.42157e-311
6.16619e-315
-9.14423e-309
2.29502e-312
-3.15559e-306
7.79415e-310
-1.00394e-303
2.43647e-307
-2.96663e-301
7.06289e-305
-8.19472e-299
1.9107e-302
-2.1279e-296
4.85072e-300
-5.21992e-294
1.1613e-297
-1.21502e-291
2.63326e-295
-2.6942e-289
5.67736e-293
-5.71168e-287
1.16796e-290
-1.16146e-284
2.29994e-288
-2.27226e-282
4.34779e-286
-4.28869e-280
7.91137e-284
-7.82923e-278
1.38906e-281
-1.38573e-275
2.3585e-279
-2.38326e-273
3.88061e-277
-3.99119e-271
6.19917e-275
-6.52112e-269
9.63131e-273
-1.04143e-266
1.45764e-270
-1.62849e-264
2.15193e-268
-2.49744e-262
3.10288e-266
-3.76212e-260
4.37478e-264
-5.57485e-258
6.03663e-262
-8.1376e-256
8.15737e-260
-1.17162e-253
1.07998e-257
-1.66588e-251
1.40121e-255
-2.34191e-249
1.7811e-253
-3.2587e-247
2.21597e-251
-4.49283e-245
2.69433e-249
-6.14363e-243
3.19266e-247
-8.34e-241
3.66943e-245
-1.12494e-238
4.0565e-243
-1.50897e-236
4.24814e-241
-2.01452e-234
4.08667e-239
-2.67877e-232
3.33954e-237
-3.55056e-230
1.66357e-235
-4.27647e-228
-4.17742e-229
-4.23047e-226
-1.41059e-226
-3.5242e-224
-2.04468e-224
-2.48805e-222
-2.1438e-222
-1.48579e-220
-1.78108e-220
-7.46049e-219
-1.20427e-218
-3.12569e-217
-6.67166e-217
-1.08416e-215
-3.0258e-215
-3.09261e-214
-1.11944e-213
-7.22549e-213
-3.36614e-212
-1.38156e-211
-8.21355e-211
-2.16576e-210
-1.62855e-209
-2.7941e-209
-2.6332e-208
-2.99392e-208
-3.4887e-207
-2.70213e-207
-3.82679e-206
-2.07746e-206
-3.53072e-205
-1.36885e-205
-2.77389e-204
-7.78725e-205
-1.86686e-203
-3.86961e-204
-1.08414e-202
-1.70362e-203
-5.49833e-202
-6.7267e-203
-2.47199e-201
-2.40052e-202
-9.97952e-201
-7.78444e-202
-3.64616e-200
-2.3054e-201
-1.21204e-199
-6.26872e-201
-3.68369e-199
-1.57393e-200
-1.02906e-198
-3.67035e-200
-2.65764e-198
-7.99725e-200
-6.38332e-198
-1.63725e-199
-1.43481e-197
-3.16469e-199
-3.03575e-197
-5.79963e-199
-6.07632e-197
-1.01112e-198
-1.1556e-196
-1.68173e-198
-2.09566e-196
-2.67458e-198
-3.63473e-196
-4.07584e-198
-6.04402e-196
-5.96336e-198
-9.6583e-196
-8.39142e-198
-1.4865e-195
-1.13761e-197
-2.20808e-195
-1.48798e-197
-3.17226e-195
-1.88035e-197
-4.41609e-195
-2.2982e-197
-5.96834e-195
-2.71827e-197
-7.84512e-195
-3.11175e-197
-1.0044e-194
-3.44614e-197
-1.25407e-194
-3.68834e-197
-1.52857e-194
-3.8085e-197
-1.82044e-194
-3.78391e-197
-2.12027e-194
-3.60063e-197
-2.41762e-194
-3.25227e-197
-2.7012e-194
-2.7177e-197
-2.95676e-194
-1.79783e-197
-3.1373e-194
-2.00737e-198
-2.84285e-194
-2.75179e-208
-5.01473e-195
-1.58958e-204
5.11773e-204
-1.83198e-200
1.14714e-194
-1.97577e-191
8.63954e-194
-9.91749e-191
1.34671e-193
-1.15346e-190
1.68975e-193
-1.15105e-190
1.93249e-193
-1.09106e-190
2.07663e-193
-1.00034e-190
2.12266e-193
-8.91617e-191
2.08044e-193
-7.74922e-191
1.9646e-193
-6.57639e-191
1.79212e-193
-5.45015e-191
1.58125e-193
-4.4084e-191
1.35035e-193
-3.47742e-191
1.11608e-193
-2.67207e-191
8.92412e-194
-1.99753e-191
6.89792e-194
-1.4506e-191
5.14831e-194
-1.02159e-191
3.70554e-194
-6.96508e-192
2.56794e-194
-4.58808e-192
1.71042e-194
-2.91404e-192
1.09279e-194
-1.78048e-192
6.68232e-195
-1.044e-192
3.90137e-195
-5.85932e-193
2.16869e-195
-3.13833e-193
1.14407e-195
-1.59871e-193
5.70542e-196
-7.7141e-194
2.67735e-196
-3.50882e-194
1.17565e-196
-1.49574e-194
4.80135e-197
-5.93777e-195
1.81266e-197
-2.1814e-195
6.2899e-198
-7.37336e-196
1.99567e-198
-2.28124e-196
5.76228e-199
-6.43072e-197
1.50644e-199
-1.64355e-197
3.53833e-200
-3.77834e-198
7.37215e-201
-7.70784e-199
1.34224e-201
-1.37328e-199
2.11055e-202
-2.11101e-200
2.84632e-203
-2.78107e-201
3.27291e-204
-3.12177e-202
3.16893e-205
-2.94427e-203
2.54293e-206
-2.29113e-204
1.67459e-207
-1.45446e-205
9.01312e-209
-7.49234e-207
3.95525e-210
-3.11607e-208
1.41591e-211
-1.04358e-209
4.15373e-213
-2.81732e-211
1.00645e-214
-6.15272e-213
2.03494e-216
-1.09144e-214
3.47476e-218
-1.57606e-216
5.07713e-220
-1.84466e-218
6.43394e-222
-1.7111e-220
7.16072e-224
-1.15698e-222
7.07196e-226
-3.51766e-225
6.65989e-228
6.93146e-231
6.24688e-230
1.78542e-232
5.81319e-232
2.73396e-234
5.36288e-234
3.52839e-236
4.90087e-236
4.16153e-238
4.43285e-238
4.62973e-240
3.96509e-240
4.93357e-242
3.50419e-242
5.07826e-244
3.05688e-244
5.07381e-246
2.6296e-246
4.93495e-248
2.22829e-248
4.68056e-250
1.85801e-250
4.33287e-252
1.52273e-252
3.9163e-254
1.2251e-254
3.45613e-256
9.66371e-257
2.97702e-258
7.46385e-259
2.50154e-260
5.63659e-261
2.049e-262
4.15585e-263
1.63447e-264
2.98681e-265
1.26835e-266
2.08899e-267
9.56288e-269
1.41928e-269
6.99547e-271
9.34935e-272
4.95742e-273
5.95922e-274
3.39758e-275
3.66726e-276
2.24777e-277
2.17376e-278
1.43257e-279
1.23789e-280
8.77586e-282
6.75373e-283
5.1548e-284
3.51935e-285
2.89541e-286
1.74571e-287
1.55058e-288
8.21193e-290
7.89103e-291
3.64804e-292
3.80215e-293
1.52321e-294
1.72739e-295
5.94581e-297
7.36527e-298
2.15632e-299
2.93163e-300
7.21323e-302
1.08262e-302
2.20668e-304
3.68264e-305
6.11028e-307
1.14409e-307
1.51213e-309
3.21298e-310
3.29131e-312
8.05391e-313
6.17067e-315
1.77343e-315
9.6857e-318
3.35941e-318
1.22182e-320
5.32109e-321
9.88131e-324
4.94066e-324
0
0
0
0
0
0
0
0
0
0
-4.19956e-322
0
-4.15247e-319
2.47033e-322
-3.08054e-316
1.81085e-319
-1.83228e-313
1.06945e-316
-9.10618e-311
5.27001e-314
-3.89133e-308
2.22982e-311
-1.46026e-305
8.27328e-309
-4.89067e-303
2.73567e-306
-1.48082e-300
8.16595e-304
-4.09624e-298
2.22356e-301
-1.04428e-295
5.57148e-299
-2.47181e-293
1.29413e-296
-5.46693e-291
2.80426e-294
-1.13609e-288
5.70006e-292
-2.22919e-286
1.0921e-289
-4.14793e-284
1.98076e-287
-7.34779e-282
3.41384e-285
-1.24351e-279
5.61039e-283
-2.01697e-277
8.81926e-281
-3.14466e-275
1.32979e-278
-4.72541e-273
1.92827e-276
-6.86079e-271
2.69532e-274
-9.64663e-269
3.6395e-272
-1.31636e-266
4.75686e-270
-1.74679e-264
6.02881e-268
-2.25833e-262
7.42141e-266
-2.84958e-260
8.88655e-264
-3.51514e-258
1.03646e-261
-4.24574e-256
1.17883e-259
-5.02873e-254
1.3088e-257
-5.84885e-252
1.4197e-255
-6.68911e-250
1.50553e-253
-7.53192e-248
1.56141e-251
-8.36003e-246
1.58391e-249
-9.15747e-244
1.57114e-247
-9.91027e-242
1.52258e-245
-1.0607e-239
1.43914e-243
-1.12392e-237
1.32297e-241
-1.18012e-235
1.17714e-239
-1.22903e-233
1.00537e-237
-1.27062e-231
8.11721e-236
-1.30512e-229
6.00408e-234
-1.33291e-227
3.75598e-232
-1.35453e-225
1.41083e-230
-1.30594e-223
-6.47089e-225
-1.11031e-221
-2.06281e-222
-8.25918e-220
-2.90012e-220
-5.32421e-218
-2.95661e-218
-2.94293e-216
-2.38589e-216
-1.37923e-214
-1.56323e-214
-5.42018e-213
-8.36687e-213
-1.76836e-211
-3.65335e-211
-4.75244e-210
-1.2965e-209
-1.04738e-208
-3.72716e-208
-1.89172e-207
-8.6723e-207
-2.80577e-206
-1.63752e-205
-3.42958e-205
-2.52067e-204
-3.48751e-204
-3.17857e-203
-2.99514e-203
-3.31955e-202
-2.19803e-202
-2.92148e-201
-1.38591e-201
-2.19539e-200
-7.55869e-201
-1.41625e-199
-3.60747e-200
-7.89463e-199
-1.52884e-199
-3.84867e-198
-5.82603e-199
-1.66665e-197
-2.01148e-198
-6.49715e-197
-6.32348e-198
-2.29778e-196
-1.81857e-197
-7.40799e-196
-4.80898e-197
-2.18718e-195
-1.1759e-196
-5.9437e-195
-2.67458e-196
-1.49519e-194
-5.69293e-196
-3.50312e-194
-1.14035e-195
-7.69256e-194
-2.15973e-195
-1.59251e-193
-3.88293e-195
-3.12332e-193
-6.64877e-195
-5.82765e-193
-1.08726e-194
-1.038e-192
-1.70203e-194
-1.77008e-192
-2.556e-194
-2.89726e-192
-3.68944e-194
-4.56244e-192
-5.12773e-194
-6.92753e-192
-6.87321e-194
-1.01633e-191
-8.8972e-194
-1.44355e-191
-1.11365e-193
-1.98865e-191
-1.34909e-193
-2.66196e-191
-1.5826e-193
-3.46784e-191
-1.79812e-193
-4.40309e-191
-1.97796e-193
-5.45582e-191
-2.10466e-193
-6.6042e-191
-2.16266e-193
-7.81776e-191
-2.1401e-193
-9.05844e-191
-2.03009e-193
-1.02834e-190
-1.82987e-193
-1.14478e-190
-1.52853e-193
-1.24964e-190
-1.01522e-193
-1.32427e-190
-1.16693e-194
-1.20361e-190
-2.07421e-204
-2.18596e-191
-9.12244e-201
1.02855e-200
-3.98201e-197
2.39169e-191
-4.0211e-188
1.76097e-190
-1.92172e-187
2.65259e-190
-2.1484e-187
3.25198e-190
-2.09586e-187
3.68171e-190
-1.97051e-187
3.94486e-190
-1.80512e-187
4.03777e-190
-1.61384e-187
3.97279e-190
-1.40994e-187
3.77181e-190
-1.20424e-187
3.46299e-190
-1.00528e-187
3.07826e-190
-8.19686e-188
2.65059e-190
-6.5227e-188
2.21072e-190
-5.05979e-188
1.78527e-190
-3.82137e-188
1.39483e-190
-2.80581e-188
1.05321e-190
-1.99957e-188
7.67615e-191
-1.38076e-188
5.39185e-191
-9.22079e-189
3.64384e-191
-5.94311e-189
2.36465e-191
-3.68896e-189
1.4704e-191
-2.19999e-189
8.74064e-192
-1.25738e-189
4.95353e-192
-6.86744e-190
2.66786e-192
-3.57234e-190
1.36021e-192
-1.76268e-190
6.53491e-193
-8.21042e-191
2.9418e-193
-3.58886e-191
1.23328e-193
-1.46275e-191
4.78569e-194
-5.52439e-192
1.70933e-194
-1.92237e-192
5.59191e-195
-6.13342e-193
1.6682e-195
-1.78679e-193
4.51703e-196
-4.73133e-194
1.10165e-196
-1.12986e-194
2.38821e-197
-2.3992e-195
4.53069e-198
-4.45553e-196
7.43364e-199
-7.14892e-197
1.04825e-199
-9.85205e-198
1.26376e-200
-1.16027e-198
1.28528e-201
-1.15033e-199
1.08371e-202
-9.41199e-201
7.49738e-204
-6.28143e-202
4.23835e-205
-3.40144e-203
1.95106e-206
-1.48512e-204
7.30953e-208
-5.20738e-206
2.23754e-209
-1.46675e-207
5.63947e-211
-3.32904e-209
1.18244e-212
-6.11239e-211
2.08789e-214
-9.09798e-213
3.1472e-216
-1.09308e-214
4.1082e-218
-1.03685e-216
4.70976e-220
-7.15186e-219
4.80291e-222
-2.24053e-221
4.67142e-224
7.3464e-227
4.52188e-226
1.97554e-228
4.34081e-228
3.12876e-230
4.12951e-230
4.16898e-232
3.89027e-232
5.07246e-234
3.62636e-234
5.81841e-236
3.34203e-236
6.39028e-238
3.04241e-238
6.77712e-240
2.73331e-240
6.97464e-242
2.42104e-242
6.986e-244
2.11209e-244
6.82207e-246
1.81282e-246
6.50117e-248
1.52909e-248
6.0482e-250
1.266e-250
5.49312e-252
1.02756e-252
4.86899e-254
8.16549e-255
4.20967e-256
6.34381e-257
3.54749e-258
4.81135e-259
2.91108e-260
3.55672e-261
2.32366e-262
2.55843e-263
1.80192e-264
1.78758e-265
1.35563e-266
1.21088e-267
9.87905e-269
7.93583e-270
6.96184e-271
5.02097e-272
4.7354e-273
3.05954e-274
3.1026e-275
1.79094e-276
1.95369e-277
1.00426e-278
1.17946e-279
5.37787e-281
6.80817e-282
2.74099e-283
3.7463e-284
1.32465e-285
1.95868e-286
6.0445e-288
9.69407e-289
2.59194e-290
4.52308e-291
1.03884e-292
1.9802e-293
3.86746e-295
8.09103e-296
1.32771e-297
3.06643e-298
4.16733e-300
1.07019e-300
1.18357e-302
3.41015e-303
3.0033e-305
9.81963e-306
6.70051e-308
2.52301e-308
1.2872e-310
5.69233e-311
2.06948e-313
1.10444e-313
2.6725e-316
1.79112e-316
2.59839e-319
2.33026e-319
1.67982e-322
2.2727e-322
0
0
0
0
0
0
-5.25686e-321
4.94066e-324
-7.62815e-318
7.1096e-321
-7.38762e-315
6.85768e-318
-5.37415e-312
4.9603e-315
-3.13406e-309
2.87232e-312
-1.52701e-306
1.38768e-309
-6.39666e-304
5.75597e-307
-2.35286e-301
2.09344e-304
-7.72337e-299
6.7849e-302
-2.29178e-296
1.98493e-299
-6.21223e-294
5.29674e-297
-1.55177e-291
1.30051e-294
-3.59853e-289
2.95977e-292
-7.79659e-287
6.28335e-290
-1.58699e-284
1.25111e-287
-3.04964e-282
2.34786e-285
-5.55665e-280
4.17038e-283
-9.63726e-278
7.03818e-281
-1.59659e-275
1.13245e-278
-2.53461e-273
1.74258e-276
-3.867e-271
2.57161e-274
-5.68518e-269
3.64897e-272
-8.07404e-267
4.99002e-270
-1.11022e-264
6.59072e-268
-1.48123e-262
8.42387e-266
-1.92129e-260
1.0438e-263
-2.42734e-258
1.25591e-261
-2.99223e-256
1.46949e-259
-3.60497e-254
1.67428e-257
-4.25133e-252
1.8597e-255
-4.91476e-250
2.01579e-253
-5.57752e-248
2.13401e-251
-6.22177e-246
2.20788e-249
-6.83072e-244
2.23325e-247
-7.38954e-242
2.20857e-245
-7.88607e-240
2.13479e-243
-8.31123e-238
2.01508e-241
-8.65924e-236
1.85433e-239
-8.92752e-234
1.65876e-237
-9.11642e-232
1.43538e-235
-9.22881e-230
1.19154e-233
-9.26959e-228
9.34397e-232
-9.24517e-226
6.70609e-230
-9.16296e-224
4.0614e-228
-9.03086e-222
1.46131e-226
-8.44828e-220
-4.08762e-221
-6.98824e-218
-1.2615e-218
-5.05862e-216
-1.74026e-216
-3.16889e-214
-1.73779e-214
-1.69784e-212
-1.36869e-212
-7.68811e-211
-8.71541e-211
-2.90878e-209
-4.51311e-209
-9.1037e-208
-1.89797e-207
-2.33939e-206
-6.4597e-206
-4.91729e-205
-1.77442e-204
-8.45922e-204
-3.934e-203
-1.19467e-202
-7.06821e-202
-1.39014e-201
-1.03519e-200
-1.34611e-200
-1.24176e-199
-1.10286e-199
-1.2339e-198
-7.7418e-199
-1.03523e-197
-4.67891e-198
-7.43795e-197
-2.44945e-197
-4.59765e-196
-1.12372e-196
-2.45916e-195
-4.5871e-196
-1.15191e-194
-1.68794e-195
-4.80289e-194
-5.64101e-195
-1.80743e-193
-1.72e-194
-6.18604e-193
-4.80556e-194
-1.93408e-192
-1.23631e-193
-5.5468e-192
-2.94496e-193
-1.46626e-191
-6.5344e-193
-3.59261e-191
-1.35875e-192
-8.20979e-191
-2.6627e-192
-1.76084e-190
-4.94056e-192
-3.56563e-190
-8.71362e-192
-6.85008e-190
-1.46549e-191
-1.25365e-189
-2.35663e-191
-2.19298e-189
-3.63185e-191
-3.67709e-189
-5.37534e-191
-5.92474e-189
-7.65517e-191
-9.19471e-189
-1.05078e-190
-1.37736e-188
-1.39239e-190
-1.99561e-188
-1.78346e-190
-2.80198e-188
-2.21071e-190
-3.81925e-188
-2.65418e-190
-5.06267e-188
-3.088e-190
-6.53633e-188
-3.4822e-190
-8.2307e-188
-3.80465e-190
-1.01216e-187
-4.02426e-190
-1.21689e-187
-4.11388e-190
-1.43184e-187
-4.05308e-190
-1.65045e-187
-3.83047e-190
-1.86527e-187
-3.44242e-190
-2.06861e-187
-2.87001e-190
-2.2512e-187
-1.90846e-190
-2.3809e-187
-2.24948e-191
-2.16623e-187
-5.34133e-201
-4.03355e-188
-2.25138e-197
1.34105e-197
-5.49545e-194
2.79832e-188
-4.76974e-185
2.07597e-187
-2.24765e-184
3.0985e-187
-2.46841e-184
3.76559e-187
-2.37834e-184
4.24863e-187
-2.2247e-184
4.5512e-187
-2.03622e-184
4.66953e-187
-1.82449e-184
4.61355e-187
-1.60064e-184
4.40395e-187
-1.37464e-184
4.0695e-187
-1.15505e-184
3.64409e-187
-9.48852e-185
3.16368e-187
-7.61352e-185
2.66265e-187
-5.96017e-185
2.1716e-187
-4.54648e-185
1.715e-187
-3.37455e-185
1.31012e-187
-2.43323e-185
9.66937e-188
-1.7016e-185
6.88448e-188
-1.15192e-185
4.72082e-188
-7.53416e-186
3.11191e-188
-4.75087e-186
1.96792e-188
-2.88176e-186
1.19117e-188
-1.67737e-186
6.88316e-189
-9.34284e-187
3.78519e-189
-4.96341e-187
1.97333e-189
-2.5048e-187
9.70782e-190
-1.19498e-187
4.48087e-190
-5.357e-188
1.92856e-190
-2.24209e-188
7.69307e-191
-8.70643e-189
2.82869e-191
-3.11947e-189
9.54254e-192
-1.02658e-189
2.94185e-192
-3.09144e-190
8.2527e-193
-8.48455e-191
2.09073e-193
-2.1058e-191
4.71768e-194
-4.65705e-192
9.3287e-195
-9.01929e-193
1.59758e-195
-1.51131e-193
2.35661e-196
-2.18028e-194
2.98073e-197
-2.69671e-195
3.18665e-198
-2.81396e-196
2.82501e-199
-2.42382e-197
2.05455e-200
-1.70307e-198
1.22085e-201
-9.71287e-200
5.89928e-203
-4.46149e-201
2.31367e-204
-1.64148e-202
7.38815e-206
-4.83469e-204
1.93482e-207
-1.14292e-205
4.19774e-209
-2.17663e-207
7.63699e-211
-3.34619e-209
1.18091e-212
-4.1347e-211
1.57446e-214
-4.01766e-213
1.83603e-216
-2.83183e-215
1.89764e-218
-9.17536e-218
1.86455e-220
3.91036e-223
1.82238e-222
1.07694e-224
1.76576e-224
1.72688e-226
1.69499e-226
2.32499e-228
1.61078e-228
2.85585e-230
1.51428e-230
3.30535e-232
1.40712e-232
3.66156e-234
1.29132e-234
3.9156e-236
1.16931e-236
4.06234e-238
1.04375e-238
4.10106e-240
9.17486e-241
4.03573e-242
7.93374e-243
3.875e-244
6.74133e-245
3.63185e-246
5.622e-247
3.32273e-248
4.59593e-249
2.96654e-250
3.67809e-251
2.58319e-252
2.87763e-253
2.19228e-254
2.1977e-255
1.81162e-256
1.63587e-257
1.45612e-258
1.18481e-259
1.13698e-260
8.33492e-262
8.61252e-263
5.68438e-264
6.31923e-265
3.75068e-266
4.48352e-267
2.38909e-268
3.07034e-269
1.46562e-270
2.02526e-271
8.63699e-273
1.2839e-273
4.87571e-275
7.80318e-276
2.62854e-277
4.53453e-278
1.34872e-279
2.51199e-280
6.56183e-282
1.32219e-282
3.01437e-284
6.58799e-285
1.3013e-286
3.09456e-287
5.25068e-289
1.36393e-289
1.96794e-291
5.61059e-292
6.80159e-294
2.14072e-294
2.14924e-296
7.52165e-297
6.14533e-299
2.41297e-299
1.5699e-301
6.99517e-302
3.52616e-304
1.80945e-304
6.81964e-307
4.10996e-307
1.10381e-309
8.02795e-310
1.43505e-312
1.31069e-312
1.40464e-315
1.71667e-315
9.20089e-319
1.69065e-318
3.0138e-322
1.11165e-321
0
0
-9.15504e-321
9.88131e-324
-2.64804e-317
3.39077e-320
-3.82634e-314
4.8847e-317
-3.68861e-311
4.68854e-314
-2.67084e-308
3.37558e-311
-1.55029e-305
1.94556e-308
-7.51812e-303
9.35545e-306
-3.13455e-300
3.86232e-303
-1.14753e-297
1.3981e-300
-3.74899e-295
4.50985e-298
-1.10716e-292
1.3131e-295
-2.98681e-290
3.48728e-293
-7.42506e-288
8.52136e-291
-1.71357e-285
1.93003e-288
-3.69466e-283
4.07751e-286
-7.48386e-281
8.07959e-284
-1.4311e-278
1.50884e-281
-2.59472e-276
2.66691e-279
-4.47787e-274
4.47862e-277
-7.3813e-272
7.17027e-275
-1.16589e-269
1.09781e-272
-1.76971e-267
1.6119e-270
-2.58841e-265
2.27552e-268
-3.65692e-263
3.09574e-266
-5.00198e-261
4.06744e-264
-6.63792e-259
5.17127e-262
-8.56344e-257
6.37333e-260
-1.07596e-254
7.62663e-258
-1.31895e-252
8.87425e-256
-1.58e-250
1.00539e-253
-1.8525e-248
1.11033e-251
-2.12892e-246
1.19649e-249
-2.40139e-244
1.25908e-247
-2.66219e-242
1.29468e-245
-2.9042e-240
1.30132e-243
-3.1213e-238
1.27861e-241
-3.30868e-236
1.22764e-239
-3.46296e-234
1.15078e-237
-3.5822e-232
1.0514e-235
-3.66591e-230
9.33517e-234
-3.71482e-228
8.01524e-232
-3.73072e-226
6.59901e-230
-3.71621e-224
5.12948e-228
-3.67445e-222
3.64569e-226
-3.60895e-220
2.18173e-224
-3.52335e-218
7.66343e-223
-3.25524e-216
-1.66107e-217
-2.65057e-214
-4.95133e-215
-1.88158e-212
-6.69014e-213
-1.15109e-210
-6.53052e-211
-5.99601e-209
-5.00905e-209
-2.62745e-207
-3.09254e-207
-9.57586e-206
-1.54543e-205
-2.87462e-204
-6.24334e-204
-7.05917e-203
-2.03271e-202
-1.41402e-201
-5.32255e-201
-2.31496e-200
-1.1219e-199
-3.11095e-199
-1.91436e-198
-3.44385e-198
-2.66374e-197
-3.17322e-197
-3.0358e-196
-2.47866e-196
-2.86679e-195
-1.66366e-195
-2.29067e-194
-9.63449e-195
-1.57248e-193
-4.83966e-194
-9.30868e-193
-2.13335e-193
-4.7749e-192
-8.38465e-193
-2.14786e-191
-2.97837e-192
-8.61776e-191
-9.6326e-192
-3.12925e-190
-2.84837e-191
-1.03616e-189
-7.73076e-191
-3.14105e-189
-1.93478e-190
-8.74911e-189
-4.48925e-190
-2.24942e-188
-9.7153e-190
-5.36743e-188
-1.97308e-189
-1.19604e-187
-3.78188e-189
-2.50488e-187
-6.87316e-189
-4.96002e-187
-1.18898e-188
-9.3314e-187
-1.96391e-188
-1.67473e-186
-3.10549e-188
-2.87676e-186
-4.7116e-188
-4.74269e-186
-6.87266e-188
-7.52236e-186
-9.65618e-188
-1.15045e-185
-1.30897e-187
-1.70015e-185
-1.71457e-187
-2.43252e-185
-2.17284e-187
-3.37602e-185
-2.66706e-187
-4.55274e-185
-3.17332e-187
-5.97578e-185
-3.66165e-187
-7.6457e-185
-4.0982e-187
-9.54821e-185
-4.44752e-187
-1.16537e-184
-4.67611e-187
-1.3916e-184
-4.75524e-187
-1.62759e-184
-4.66375e-187
-1.86623e-184
-4.3906e-187
-2.09958e-184
-3.93334e-187
-2.31946e-184
-3.27203e-187
-2.5162e-184
-2.17727e-187
-2.65525e-184
-2.63027e-188
-2.4174e-184
-8.36996e-198
-4.61399e-185
-3.467e-194
1.35548e-194
-5.61111e-191
2.32081e-185
-3.94918e-182
1.72082e-184
-1.8439e-181
2.566e-184
-2.01125e-181
3.11094e-184
-1.92668e-181
3.50747e-184
-1.79778e-181
3.76157e-184
-1.64592e-181
3.87091e-184
-1.47846e-181
3.84098e-184
-1.30232e-181
3.68631e-184
-1.12434e-181
3.4281e-184
-9.5072e-182
3.09213e-184
-7.86682e-182
2.70641e-184
-6.36386e-182
2.29835e-184
-5.02696e-182
1.89303e-184
-3.87269e-182
1.51113e-184
-2.90555e-182
1.16788e-184
-2.11966e-182
8.72856e-185
-1.50115e-182
6.29946e-185
-1.03017e-182
4.38321e-185
-6.83757e-183
2.93515e-185
-4.3804e-183
1.88782e-185
-2.70275e-183
1.16368e-185
-1.60235e-183
6.85731e-186
-9.10336e-184
3.85107e-186
-4.94007e-184
2.05329e-186
-2.55034e-184
1.03455e-186
-1.24647e-184
4.89721e-187
-5.73214e-185
2.16434e-187
-2.46412e-185
8.87672e-188
-9.84019e-186
3.36061e-188
-3.63091e-186
1.16931e-188
-1.23272e-186
3.72625e-189
-3.83854e-187
1.08342e-189
-1.09242e-187
2.85256e-190
-2.81954e-188
6.7036e-191
-6.4981e-189
1.38236e-191
-1.31314e-189
2.47226e-192
-2.29915e-190
3.8175e-193
-3.47471e-191
5.071e-194
-4.51867e-192
5.70566e-195
-4.96897e-193
5.32467e-196
-4.51156e-194
4.07675e-197
-3.34249e-195
2.5511e-198
-2.01177e-196
1.29672e-199
-9.7442e-198
5.33558e-201
-3.77098e-199
1.78126e-202
-1.16436e-200
4.85738e-204
-2.87441e-202
1.09269e-205
-5.69271e-204
2.05213e-207
-9.06237e-206
3.26083e-209
-1.15471e-207
4.44686e-211
-1.15258e-209
5.28002e-213
-8.32785e-212
5.53284e-215
-2.80865e-214
5.48931e-217
1.41654e-219
5.41447e-219
4.01104e-221
5.2925e-221
6.51437e-223
5.12347e-223
8.86041e-225
4.90876e-225
1.09833e-226
4.65125e-227
1.28207e-228
4.35531e-229
1.43177e-230
4.02681e-231
1.54303e-232
3.67293e-233
1.61291e-234
3.30192e-235
1.64018e-236
2.92277e-237
1.62556e-238
2.54475e-239
1.57171e-240
2.17688e-241
1.48318e-242
1.82751e-243
1.36608e-244
1.50379e-245
1.22774e-246
1.21129e-247
1.0761e-248
9.53775e-250
9.1918e-251
7.33068e-252
7.64458e-253
5.49121e-254
6.18368e-255
4.00221e-256
4.85902e-257
2.83317e-258
3.70391e-259
1.94432e-260
2.73476e-261
1.29093e-262
1.9525e-263
8.27429e-265
1.34546e-265
5.10772e-267
8.93056e-268
3.02886e-269
5.69698e-270
1.72057e-271
3.48423e-272
9.33413e-274
2.0375e-274
4.81966e-276
1.13586e-276
2.35975e-278
6.01659e-279
1.09094e-280
3.017e-281
4.73975e-283
1.42627e-283
1.92481e-285
6.3269e-286
7.26093e-288
2.6195e-288
2.52592e-290
1.00601e-290
8.03413e-293
3.55797e-293
2.3124e-295
1.14897e-295
5.94663e-298
3.35304e-298
1.34462e-300
8.73145e-301
2.61803e-303
1.99662e-303
4.26617e-306
3.9264e-306
5.58412e-309
6.45408e-309
5.50311e-312
8.51096e-312
3.62947e-315
8.43944e-315
1.20262e-318
5.59344e-318
0
1.85769e-321
-3.42328e-317
5.58294e-320
-9.85518e-314
1.60466e-316
-1.41712e-310
2.30057e-313
-1.35945e-307
2.19742e-310
-9.79536e-305
1.57434e-307
-5.65793e-302
9.0295e-305
-2.73036e-299
4.32069e-302
-1.1328e-296
1.77501e-299
-4.12671e-294
6.39375e-297
-1.34157e-291
2.05229e-294
-3.94242e-289
5.94607e-292
-1.05831e-286
1.57135e-289
-2.6179e-284
3.8207e-287
-6.01172e-282
8.61077e-285
-1.28976e-279
1.81014e-282
-2.59951e-277
3.56896e-280
-4.94609e-275
6.63167e-278
-8.92277e-273
1.1663e-275
-1.5321e-270
1.94876e-273
-2.51274e-268
3.10422e-271
-3.94873e-266
4.72864e-269
-5.96316e-264
6.90761e-267
-8.67689e-262
9.70139e-265
-1.21951e-259
1.31301e-262
-1.65933e-257
1.71615e-260
-2.19038e-255
2.17039e-258
-2.81067e-253
2.66066e-256
-3.51237e-251
3.16674e-254
-4.282e-249
3.66471e-252
-5.101e-247
4.12892e-250
-5.94693e-245
4.53426e-248
-6.79498e-243
4.85819e-246
-7.6197e-241
5.08258e-244
-8.39661e-239
5.19512e-242
-9.10375e-237
5.18988e-240
-9.72282e-235
5.06734e-238
-1.024e-232
4.83395e-236
-1.06462e-230
4.50112e-234
-1.09373e-228
4.08398e-232
-1.11135e-226
3.60001e-230
-1.11789e-224
3.0677e-228
-1.1141e-222
2.50547e-226
-1.10094e-220
1.93064e-224
-1.07952e-218
1.35875e-222
-1.05106e-216
8.03043e-221
-1.01675e-214
2.74322e-219
-9.27306e-213
-5.05228e-214
-7.42419e-211
-1.44609e-211
-5.16009e-209
-1.90774e-209
-3.07678e-207
-1.81513e-207
-1.55467e-205
-1.35191e-205
-6.57656e-204
-8.06851e-204
-2.30305e-202
-3.87946e-202
-6.61482e-201
-1.50111e-200
-1.54864e-199
-4.66218e-199
-2.9496e-198
-1.16065e-197
-4.58672e-197
-2.32032e-196
-5.85667e-196
-3.75249e-195
-6.16032e-195
-4.95314e-194
-5.39477e-194
-5.35635e-193
-4.01355e-193
-4.80086e-192
-2.57399e-192
-3.64947e-191
-1.42758e-191
-2.39192e-190
-6.87727e-191
-1.35527e-189
-2.91122e-190
-6.66317e-189
-1.10105e-189
-2.87647e-188
-3.77391e-189
-1.10991e-187
-1.18087e-188
-3.88704e-187
-3.38567e-188
-1.24481e-186
-8.925e-188
-3.65791e-186
-2.17254e-187
-9.89395e-186
-4.90925e-187
-2.4736e-185
-1.03599e-186
-5.7468e-185
-2.05441e-186
-1.24837e-184
-3.85056e-186
-2.55216e-184
-6.85285e-186
-4.94044e-184
-1.16253e-185
-9.09961e-184
-1.88565e-185
-1.60121e-183
-2.93171e-185
-2.70049e-183
-4.37856e-185
-4.37684e-183
-6.29424e-185
-6.83308e-183
-8.72436e-185
-1.02979e-182
-1.16789e-184
-1.50122e-182
-1.51212e-184
-2.12097e-182
-1.89584e-184
-2.90949e-182
-2.30422e-184
-3.8816e-182
-2.71688e-184
-5.04468e-182
-3.10909e-184
-6.39593e-182
-3.4537e-184
-7.92128e-182
-3.72281e-184
-9.59536e-182
-3.89065e-184
-1.13807e-181
-3.93559e-184
-1.32304e-181
-3.84217e-184
-1.50899e-181
-3.60302e-184
-1.68987e-181
-3.21753e-184
-1.85955e-181
-2.67059e-184
-2.01085e-181
-1.77819e-184
-2.11713e-181
-2.20214e-185
-1.92866e-181
-9.43229e-195
-3.77471e-182
-3.84358e-191
1.10631e-191
-4.53449e-188
1.48822e-182
-2.49011e-179
1.09401e-181
-1.14933e-178
1.63134e-181
-1.2505e-178
1.97737e-181
-1.19548e-178
2.23116e-181
-1.11513e-178
2.39801e-181
-1.02241e-178
2.47609e-181
-9.21104e-179
2.46798e-181
-8.148e-179
2.38154e-181
-7.07199e-179
2.22888e-181
-6.01768e-179
2.02506e-181
-5.01544e-179
1.78689e-181
-4.09027e-179
1.53114e-181
-3.26015e-179
1.27359e-181
-2.53647e-179
1.02761e-181
-1.92363e-179
8.03491e-182
-1.41983e-179
6.08128e-182
-1.01834e-179
4.44899e-182
-7.0846e-180
3.14137e-182
-4.77221e-180
2.13708e-182
-3.10635e-180
1.39813e-182
-1.94989e-180
8.77799e-183
-1.17765e-180
5.2759e-183
-6.82571e-181
3.02653e-183
-3.78461e-181
1.65073e-183
-1.99931e-181
8.52044e-184
-1.00136e-181
4.13739e-184
-4.72525e-182
1.87805e-184
-2.08686e-182
7.92103e-185
-8.57212e-183
3.08822e-185
-3.2581e-183
1.10853e-185
-1.14145e-183
3.65271e-186
-3.67659e-184
1.10124e-186
-1.08554e-184
3.01519e-187
-2.91557e-185
7.38398e-188
-7.007e-186
1.58875e-188
-1.47832e-186
2.96885e-189
-2.70605e-187
4.80231e-190
-4.28755e-188
6.70677e-191
-5.86911e-189
7.95195e-192
-6.8104e-190
7.82177e-193
-6.52612e-191
6.31391e-194
-5.10587e-192
4.16923e-195
-3.25001e-193
2.23432e-196
-1.66385e-194
9.66836e-198
-6.78976e-196
3.38295e-199
-2.20367e-197
9.63041e-201
-5.69653e-199
2.2519e-202
-1.17645e-200
4.37658e-204
-1.94466e-202
7.16384e-206
-2.56223e-204
1.00168e-207
-2.63489e-206
1.21381e-209
-1.95825e-208
1.29235e-211
-6.91781e-211
1.29663e-213
3.89898e-216
1.29259e-215
1.14277e-217
1.27641e-217
1.8844e-219
1.24784e-219
2.59395e-221
1.20695e-221
3.25004e-223
1.15421e-223
3.83177e-225
1.09049e-225
4.31994e-227
1.01708e-227
4.69824e-229
9.35646e-230
4.95448e-231
8.48195e-232
5.08167e-233
7.56986e-234
5.07876e-235
6.64421e-236
4.95105e-237
5.72914e-238
4.71005e-239
4.84761e-240
4.37286e-241
4.02004e-242
3.96102e-243
3.26314e-244
3.49887e-245
2.58912e-246
3.01175e-247
2.00515e-248
2.52401e-249
1.51339e-250
2.05724e-251
1.11135e-252
1.62881e-253
7.92649e-255
1.251e-255
5.4806e-257
9.30637e-258
3.66619e-259
6.69444e-260
2.36753e-261
4.64789e-262
1.47248e-263
3.10833e-264
8.79759e-266
1.99786e-266
5.03534e-268
1.23114e-268
2.75242e-270
7.25416e-271
1.43204e-272
4.07489e-273
7.0651e-275
2.175e-275
3.29141e-277
1.09906e-277
1.44107e-279
5.23597e-280
5.89775e-282
2.34077e-282
2.24223e-284
9.76738e-285
7.8617e-287
3.78071e-287
2.52039e-289
1.34775e-289
7.31212e-292
4.387e-292
1.8955e-294
1.29055e-294
4.32061e-297
3.38778e-297
8.48064e-300
7.80975e-300
1.39322e-302
1.54833e-302
1.83856e-305
2.56595e-305
1.82677e-308
3.41151e-308
1.21474e-311
3.4107e-311
4.05823e-315
2.27917e-314
5.28156e-321
7.64198e-318
-1.09105e-313
2.16191e-316
-3.12165e-310
6.17557e-313
-4.46105e-307
8.79921e-310
-4.25308e-304
8.3528e-307
-3.04558e-301
5.94738e-304
-1.74828e-298
3.38999e-301
-8.38451e-296
1.6121e-298