/*--------------------------------*- C++ -*----------------------------------*\
| =========                 |                                                 |
| \\      /  F ield         | OpenFOAM: The Open Source CFD Toolbox           |
|  \\    /   O peration     | Version:  2412                                  |
|   \\  /    A nd           | Website:  www.openfoam.com                      |
|    \\/     M anipulation  |                                                 |
\*---------------------------------------------------------------------------*/
FoamFile
{
    version     2.0;
    format      ascii;
    arch        "LSB;label=32;scalar=64";
    class       volScalarField;
    location    "1.09";
    object      p;
}
// * * * * * * * * * * * * * * * * * * * * * * * * * * * * * * * * * * * * * //

dimensions      [1 -1 -2 0 0 0 0];

internalField   nonuniform List<scalar> 
40000
(
0
-9.4687e-05
-0.000329378
-0.000729566
-0.0012996
-0.00203834
-0.00294427
-0.00401657
-0.00525416
-0.00665596
-0.00822087
-0.00994772
-0.0118353
-0.0138821
-0.0160868
-0.0184478
-0.0209635
-0.0236321
-0.0264518
-0.0294205
-0.0325361
-0.0357962
-0.0391986
-0.0427408
-0.0464199
-0.0502335
-0.0541785
-0.0582521
-0.0624509
-0.0667719
-0.0712115
-0.0757662
-0.0804325
-0.0852065
-0.0900845
-0.0950624
-0.100136
-0.105301
-0.110553
-0.115888
-0.121301
-0.126787
-0.132342
-0.13796
-0.143637
-0.149367
-0.155144
-0.160964
-0.166821
-0.172709
-0.178623
-0.184557
-0.190505
-0.19646
-0.202418
-0.208372
-0.214315
-0.220242
-0.226146
-0.232021
-0.237861
-0.24366
-0.24941
-0.255107
-0.260743
-0.266311
-0.271807
-0.277223
-0.282553
-0.287791
-0.29293
-0.297965
-0.302889
-0.307697
-0.312382
-0.31694
-0.321364
-0.325648
-0.329789
-0.333779
-0.337615
-0.341291
-0.344803
-0.348146
-0.351316
-0.354309
-0.357121
-0.359747
-0.362186
-0.364433
-0.366485
-0.36834
-0.369996
-0.37145
-0.3727
-0.373744
-0.374581
-0.375211
-0.375632
-0.375843
-0.375844
-0.375636
-0.375219
-0.374593
-0.373758
-0.372717
-0.37147
-0.370019
-0.368366
-0.366514
-0.364464
-0.36222
-0.359784
-0.35716
-0.354352
-0.351362
-0.348195
-0.344854
-0.341345
-0.337672
-0.333839
-0.329851
-0.325714
-0.321432
-0.31701
-0.312456
-0.307773
-0.302967
-0.298046
-0.293013
-0.287877
-0.282641
-0.277314
-0.271901
-0.266408
-0.260841
-0.255208
-0.249513
-0.243765
-0.237968
-0.23213
-0.226257
-0.220354
-0.214429
-0.208487
-0.202535
-0.196579
-0.190626
-0.18468
-0.178748
-0.172836
-0.166949
-0.161094
-0.155276
-0.149501
-0.143773
-0.138098
-0.132482
-0.126929
-0.121444
-0.116033
-0.1107
-0.105449
-0.100286
-0.0952134
-0.0902369
-0.0853604
-0.0805879
-0.0759232
-0.0713698
-0.0669313
-0.0626115
-0.0584135
-0.0543412
-0.0503973
-0.046585
-0.0429067
-0.0393653
-0.0359635
-0.0327037
-0.0295887
-0.0266204
-0.0238009
-0.0211321
-0.0186158
-0.0162544
-0.0140495
-0.0120023
-0.010114
-0.00838596
-0.00681948
-0.00541588
-0.00417591
-0.00310033
-0.00218986
-0.00144504
-0.000866428
-0.00045448
-0.000210203
-0.000124168
-3.92392
-3.92401
-3.92424
-3.92464
-3.92521
-3.92595
-3.92686
-3.92793
-3.92917
-3.93057
-3.93213
-3.93386
-3.93575
-3.9378
-3.94
-3.94237
-3.94488
-3.94755
-3.95037
-3.95334
-3.95646
-3.95972
-3.96312
-3.96667
-3.97035
-3.97416
-3.97811
-3.98219
-3.98639
-3.99071
-3.99515
-3.99971
-4.00438
-4.00915
-4.01403
-4.01901
-4.02409
-4.02925
-4.03451
-4.03985
-4.04526
-4.05075
-4.05631
-4.06193
-4.06761
-4.07334
-4.07912
-4.08494
-4.0908
-4.0967
-4.10261
-4.10855
-4.1145
-4.12046
-4.12642
-4.13238
-4.13832
-4.14425
-4.15016
-4.15604
-4.16188
-4.16769
-4.17344
-4.17914
-4.18478
-4.19035
-4.19585
-4.20127
-4.2066
-4.21184
-4.21699
-4.22203
-4.22695
-4.23176
-4.23645
-4.24101
-4.24544
-4.24973
-4.25387
-4.25786
-4.2617
-4.26538
-4.2689
-4.27224
-4.27541
-4.27841
-4.28122
-4.28385
-4.28629
-4.28854
-4.29059
-4.29245
-4.29411
-4.29556
-4.29681
-4.29786
-4.29869
-4.29932
-4.29975
-4.29996
-4.29996
-4.29975
-4.29933
-4.29871
-4.29787
-4.29683
-4.29558
-4.29413
-4.29247
-4.29062
-4.28857
-4.28632
-4.28389
-4.28126
-4.27845
-4.27546
-4.27229
-4.26895
-4.26543
-4.26176
-4.25792
-4.25393
-4.24979
-4.24551
-4.24108
-4.23653
-4.23184
-4.22703
-4.22211
-4.21707
-4.21193
-4.20669
-4.20136
-4.19594
-4.19045
-4.18488
-4.17924
-4.17354
-4.16779
-4.16199
-4.15615
-4.15027
-4.14437
-4.13844
-4.13249
-4.12654
-4.12058
-4.11462
-4.10867
-4.10274
-4.09682
-4.09093
-4.08508
-4.07925
-4.07348
-4.06774
-4.06207
-4.05645
-4.05089
-4.04541
-4.03999
-4.03466
-4.0294
-4.02424
-4.01916
-4.01418
-4.00931
-4.00453
-3.99986
-3.99531
-3.99087
-3.98655
-3.98235
-3.97827
-3.97433
-3.97051
-3.96683
-3.96329
-3.95989
-3.95663
-3.95351
-3.95054
-3.94772
-3.94505
-3.94253
-3.94017
-3.93797
-3.93592
-3.93403
-3.9323
-3.93073
-3.92933
-3.92809
-3.92701
-3.9261
-3.92536
-3.92478
-3.92437
-3.92413
-3.92404
-7.84767
-7.84776
-7.84799
-7.8484
-7.84897
-7.84971
-7.85062
-7.85169
-7.85293
-7.85434
-7.8559
-7.85763
-7.85952
-7.86157
-7.86378
-7.86614
-7.86866
-7.87134
-7.87416
-7.87713
-7.88025
-7.88352
-7.88692
-7.89047
-7.89416
-7.89798
-7.90193
-7.90601
-7.91021
-7.91454
-7.91899
-7.92355
-7.92822
-7.933
-7.93789
-7.94287
-7.94796
-7.95313
-7.95839
-7.96373
-7.96916
-7.97465
-7.98022
-7.98585
-7.99153
-7.99727
-8.00306
-8.00889
-8.01476
-8.02066
-8.02659
-8.03253
-8.03849
-8.04446
-8.05043
-8.05639
-8.06235
-8.06829
-8.07421
-8.08009
-8.08595
-8.09176
-8.09752
-8.10323
-8.10888
-8.11446
-8.11997
-8.1254
-8.13074
-8.13599
-8.14114
-8.14619
-8.15112
-8.15594
-8.16064
-8.16521
-8.16964
-8.17394
-8.17809
-8.18209
-8.18594
-8.18962
-8.19314
-8.19649
-8.19967
-8.20267
-8.20549
-8.20813
-8.21057
-8.21282
-8.21488
-8.21674
-8.2184
-8.21986
-8.22111
-8.22216
-8.223
-8.22363
-8.22405
-8.22427
-8.22427
-8.22406
-8.22364
-8.22301
-8.22218
-8.22113
-8.21988
-8.21843
-8.21677
-8.21491
-8.21286
-8.21061
-8.20816
-8.20553
-8.20272
-8.19972
-8.19654
-8.19319
-8.18968
-8.18599
-8.18215
-8.17815
-8.174
-8.16971
-8.16528
-8.16071
-8.15602
-8.1512
-8.14627
-8.14122
-8.13607
-8.13083
-8.12549
-8.12006
-8.11456
-8.10898
-8.10333
-8.09762
-8.09186
-8.08605
-8.0802
-8.07432
-8.0684
-8.06246
-8.05651
-8.05055
-8.04458
-8.03861
-8.03265
-8.02671
-8.02079
-8.01489
-8.00902
-8.00319
-7.99741
-7.99167
-7.98598
-7.98036
-7.97479
-7.9693
-7.96388
-7.95854
-7.95328
-7.94811
-7.94303
-7.93804
-7.93316
-7.92838
-7.9237
-7.91914
-7.9147
-7.91037
-7.90617
-7.90209
-7.89814
-7.89432
-7.89064
-7.88709
-7.88368
-7.88042
-7.8773
-7.87433
-7.8715
-7.86883
-7.86631
-7.86395
-7.86174
-7.85969
-7.8578
-7.85607
-7.8545
-7.85309
-7.85185
-7.85077
-7.84986
-7.84912
-7.84854
-7.84813
-7.84789
-7.8478
-11.7713
-11.7713
-11.7716
-11.772
-11.7726
-11.7733
-11.7742
-11.7753
-11.7765
-11.7779
-11.7795
-11.7812
-11.7831
-11.7852
-11.7874
-11.7898
-11.7923
-11.795
-11.7978
-11.8008
-11.8039
-11.8072
-11.8106
-11.8141
-11.8178
-11.8217
-11.8256
-11.8297
-11.8339
-11.8382
-11.8427
-11.8473
-11.852
-11.8567
-11.8616
-11.8666
-11.8717
-11.8769
-11.8822
-11.8875
-11.893
-11.8985
-11.9041
-11.9097
-11.9154
-11.9212
-11.927
-11.9328
-11.9387
-11.9446
-11.9505
-11.9565
-11.9625
-11.9685
-11.9744
-11.9804
-11.9864
-11.9923
-11.9983
-12.0042
-12.01
-12.0159
-12.0217
-12.0274
-12.033
-12.0386
-12.0442
-12.0496
-12.055
-12.0602
-12.0654
-12.0705
-12.0754
-12.0802
-12.085
-12.0895
-12.094
-12.0983
-12.1025
-12.1065
-12.1103
-12.114
-12.1176
-12.1209
-12.1241
-12.1271
-12.13
-12.1326
-12.1351
-12.1373
-12.1394
-12.1412
-12.1429
-12.1444
-12.1456
-12.1467
-12.1475
-12.1482
-12.1486
-12.1488
-12.1488
-12.1486
-12.1482
-12.1475
-12.1467
-12.1456
-12.1444
-12.1429
-12.1413
-12.1394
-12.1373
-12.1351
-12.1326
-12.13
-12.1272
-12.1242
-12.121
-12.1176
-12.1141
-12.1104
-12.1065
-12.1025
-12.0984
-12.0941
-12.0896
-12.085
-12.0803
-12.0755
-12.0705
-12.0655
-12.0603
-12.0551
-12.0497
-12.0443
-12.0387
-12.0331
-12.0275
-12.0218
-12.016
-12.0102
-12.0043
-11.9984
-11.9925
-11.9865
-11.9805
-11.9746
-11.9686
-11.9626
-11.9566
-11.9507
-11.9447
-11.9388
-11.9329
-11.9271
-11.9213
-11.9155
-11.9098
-11.9042
-11.8986
-11.8931
-11.8877
-11.8823
-11.8771
-11.8719
-11.8668
-11.8618
-11.8569
-11.8521
-11.8474
-11.8429
-11.8384
-11.8341
-11.8299
-11.8258
-11.8218
-11.818
-11.8143
-11.8108
-11.8073
-11.8041
-11.8009
-11.798
-11.7951
-11.7925
-11.7899
-11.7876
-11.7854
-11.7833
-11.7814
-11.7797
-11.7781
-11.7767
-11.7755
-11.7744
-11.7735
-11.7727
-11.7721
-11.7717
-11.7715
-11.7714
-15.6947
-15.6948
-15.695
-15.6954
-15.696
-15.6967
-15.6976
-15.6987
-15.7
-15.7014
-15.703
-15.7047
-15.7066
-15.7086
-15.7109
-15.7132
-15.7158
-15.7185
-15.7213
-15.7243
-15.7274
-15.7307
-15.7341
-15.7377
-15.7414
-15.7452
-15.7492
-15.7533
-15.7575
-15.7618
-15.7663
-15.7709
-15.7756
-15.7804
-15.7853
-15.7903
-15.7954
-15.8006
-15.8059
-15.8113
-15.8167
-15.8223
-15.8278
-15.8335
-15.8392
-15.845
-15.8508
-15.8567
-15.8626
-15.8685
-15.8745
-15.8804
-15.8864
-15.8924
-15.8985
-15.9045
-15.9104
-15.9164
-15.9224
-15.9283
-15.9342
-15.94
-15.9458
-15.9516
-15.9573
-15.9629
-15.9684
-15.9739
-15.9793
-15.9846
-15.9898
-15.9949
-15.9998
-16.0047
-16.0094
-16.014
-16.0185
-16.0228
-16.027
-16.031
-16.0349
-16.0386
-16.0422
-16.0455
-16.0487
-16.0518
-16.0546
-16.0573
-16.0597
-16.062
-16.0641
-16.0659
-16.0676
-16.0691
-16.0704
-16.0714
-16.0723
-16.0729
-16.0733
-16.0735
-16.0735
-16.0733
-16.0729
-16.0723
-16.0714
-16.0704
-16.0691
-16.0676
-16.066
-16.0641
-16.062
-16.0598
-16.0573
-16.0546
-16.0518
-16.0488
-16.0456
-16.0422
-16.0387
-16.035
-16.0311
-16.0271
-16.0229
-16.0185
-16.0141
-16.0095
-16.0048
-15.9999
-15.9949
-15.9899
-15.9847
-15.9794
-15.974
-15.9685
-15.963
-15.9574
-15.9517
-15.9459
-15.9401
-15.9343
-15.9284
-15.9225
-15.9165
-15.9106
-15.9046
-15.8986
-15.8926
-15.8866
-15.8806
-15.8746
-15.8686
-15.8627
-15.8568
-15.8509
-15.8451
-15.8394
-15.8336
-15.828
-15.8224
-15.8169
-15.8114
-15.8061
-15.8008
-15.7956
-15.7905
-15.7855
-15.7805
-15.7757
-15.771
-15.7665
-15.762
-15.7577
-15.7534
-15.7493
-15.7454
-15.7415
-15.7378
-15.7343
-15.7308
-15.7276
-15.7244
-15.7215
-15.7186
-15.7159
-15.7134
-15.711
-15.7088
-15.7068
-15.7049
-15.7031
-15.7015
-15.7001
-15.6989
-15.6978
-15.6969
-15.6961
-15.6956
-15.6951
-15.6949
-15.6948
-19.6179
-19.618
-19.6183
-19.6187
-19.6193
-19.62
-19.6209
-19.622
-19.6232
-19.6247
-19.6262
-19.628
-19.6299
-19.6319
-19.6342
-19.6366
-19.6391
-19.6418
-19.6446
-19.6476
-19.6508
-19.6541
-19.6575
-19.6611
-19.6648
-19.6686
-19.6726
-19.6767
-19.681
-19.6853
-19.6898
-19.6944
-19.6991
-19.7039
-19.7089
-19.7139
-19.719
-19.7242
-19.7295
-19.7349
-19.7404
-19.7459
-19.7516
-19.7572
-19.763
-19.7688
-19.7746
-19.7805
-19.7864
-19.7924
-19.7984
-19.8044
-19.8104
-19.8164
-19.8225
-19.8285
-19.8345
-19.8405
-19.8465
-19.8525
-19.8584
-19.8643
-19.8701
-19.8759
-19.8816
-19.8872
-19.8928
-19.8983
-19.9037
-19.909
-19.9142
-19.9193
-19.9243
-19.9292
-19.934
-19.9386
-19.9431
-19.9475
-19.9517
-19.9557
-19.9596
-19.9634
-19.9669
-19.9703
-19.9735
-19.9766
-19.9794
-19.9821
-19.9846
-19.9869
-19.989
-19.9909
-19.9925
-19.994
-19.9953
-19.9964
-19.9972
-19.9978
-19.9983
-19.9985
-19.9985
-19.9983
-19.9979
-19.9972
-19.9964
-19.9953
-19.994
-19.9926
-19.9909
-19.989
-19.9869
-19.9846
-19.9822
-19.9795
-19.9766
-19.9736
-19.9704
-19.967
-19.9634
-19.9597
-19.9558
-19.9517
-19.9475
-19.9432
-19.9387
-19.9341
-19.9293
-19.9244
-19.9194
-19.9143
-19.9091
-19.9038
-19.8984
-19.8929
-19.8873
-19.8817
-19.876
-19.8702
-19.8644
-19.8585
-19.8526
-19.8466
-19.8406
-19.8346
-19.8286
-19.8226
-19.8166
-19.8105
-19.8045
-19.7985
-19.7925
-19.7866
-19.7806
-19.7748
-19.7689
-19.7631
-19.7574
-19.7517
-19.7461
-19.7405
-19.7351
-19.7297
-19.7244
-19.7192
-19.714
-19.709
-19.7041
-19.6993
-19.6946
-19.69
-19.6855
-19.6811
-19.6769
-19.6728
-19.6688
-19.6649
-19.6612
-19.6577
-19.6542
-19.6509
-19.6478
-19.6448
-19.642
-19.6393
-19.6367
-19.6343
-19.6321
-19.6301
-19.6281
-19.6264
-19.6248
-19.6234
-19.6222
-19.6211
-19.6202
-19.6194
-19.6188
-19.6184
-19.6182
-19.6181
-23.541
-23.5411
-23.5414
-23.5418
-23.5423
-23.5431
-23.544
-23.5451
-23.5464
-23.5478
-23.5494
-23.5511
-23.553
-23.5551
-23.5573
-23.5597
-23.5623
-23.565
-23.5678
-23.5708
-23.574
-23.5773
-23.5807
-23.5843
-23.588
-23.5919
-23.5959
-23.6
-23.6043
-23.6087
-23.6132
-23.6178
-23.6225
-23.6274
-23.6323
-23.6374
-23.6425
-23.6478
-23.6531
-23.6585
-23.664
-23.6696
-23.6752
-23.6809
-23.6867
-23.6925
-23.6984
-23.7043
-23.7103
-23.7163
-23.7223
-23.7283
-23.7344
-23.7404
-23.7465
-23.7526
-23.7586
-23.7647
-23.7707
-23.7767
-23.7826
-23.7885
-23.7944
-23.8002
-23.806
-23.8116
-23.8172
-23.8228
-23.8282
-23.8336
-23.8388
-23.844
-23.849
-23.8539
-23.8587
-23.8634
-23.8679
-23.8723
-23.8765
-23.8806
-23.8845
-23.8883
-23.8919
-23.8953
-23.8985
-23.9016
-23.9045
-23.9072
-23.9097
-23.912
-23.9141
-23.916
-23.9177
-23.9192
-23.9204
-23.9215
-23.9224
-23.923
-23.9234
-23.9237
-23.9237
-23.9234
-23.923
-23.9224
-23.9215
-23.9205
-23.9192
-23.9177
-23.916
-23.9141
-23.912
-23.9097
-23.9072
-23.9045
-23.9016
-23.8986
-23.8953
-23.8919
-23.8883
-23.8846
-23.8806
-23.8766
-23.8723
-23.868
-23.8634
-23.8588
-23.854
-23.8491
-23.844
-23.8389
-23.8337
-23.8283
-23.8229
-23.8173
-23.8117
-23.8061
-23.8003
-23.7945
-23.7886
-23.7827
-23.7768
-23.7708
-23.7648
-23.7587
-23.7527
-23.7466
-23.7405
-23.7345
-23.7284
-23.7224
-23.7164
-23.7104
-23.7044
-23.6985
-23.6927
-23.6868
-23.6811
-23.6754
-23.6697
-23.6641
-23.6586
-23.6532
-23.6479
-23.6427
-23.6375
-23.6325
-23.6275
-23.6227
-23.6179
-23.6133
-23.6088
-23.6044
-23.6002
-23.5961
-23.5921
-23.5882
-23.5845
-23.5809
-23.5774
-23.5741
-23.571
-23.568
-23.5651
-23.5624
-23.5599
-23.5575
-23.5553
-23.5532
-23.5513
-23.5495
-23.5479
-23.5465
-23.5453
-23.5442
-23.5433
-23.5425
-23.5419
-23.5415
-23.5413
-23.5412
-27.4639
-27.464
-27.4643
-27.4647
-27.4653
-27.466
-27.467
-27.4681
-27.4693
-27.4707
-27.4723
-27.4741
-27.476
-27.4781
-27.4803
-27.4827
-27.4853
-27.488
-27.4909
-27.4939
-27.4971
-27.5004
-27.5038
-27.5074
-27.5112
-27.5151
-27.5191
-27.5232
-27.5275
-27.5319
-27.5364
-27.5411
-27.5458
-27.5507
-27.5557
-27.5607
-27.5659
-27.5712
-27.5766
-27.582
-27.5875
-27.5931
-27.5988
-27.6045
-27.6103
-27.6162
-27.6221
-27.6281
-27.6341
-27.6401
-27.6461
-27.6522
-27.6583
-27.6644
-27.6705
-27.6766
-27.6827
-27.6888
-27.6949
-27.7009
-27.7069
-27.7128
-27.7187
-27.7246
-27.7304
-27.7361
-27.7418
-27.7473
-27.7528
-27.7582
-27.7635
-27.7687
-27.7738
-27.7787
-27.7835
-27.7882
-27.7928
-27.7972
-27.8015
-27.8056
-27.8096
-27.8134
-27.817
-27.8204
-27.8237
-27.8268
-27.8297
-27.8324
-27.8349
-27.8373
-27.8394
-27.8413
-27.843
-27.8445
-27.8458
-27.8469
-27.8477
-27.8484
-27.8488
-27.8491
-27.8491
-27.8488
-27.8484
-27.8478
-27.8469
-27.8458
-27.8445
-27.843
-27.8413
-27.8394
-27.8373
-27.835
-27.8325
-27.8297
-27.8268
-27.8238
-27.8205
-27.817
-27.8134
-27.8096
-27.8057
-27.8016
-27.7973
-27.7929
-27.7883
-27.7836
-27.7788
-27.7738
-27.7688
-27.7636
-27.7583
-27.7529
-27.7474
-27.7419
-27.7362
-27.7305
-27.7247
-27.7188
-27.7129
-27.707
-27.701
-27.695
-27.6889
-27.6828
-27.6767
-27.6706
-27.6645
-27.6584
-27.6523
-27.6463
-27.6402
-27.6342
-27.6282
-27.6222
-27.6163
-27.6105
-27.6047
-27.5989
-27.5933
-27.5877
-27.5821
-27.5767
-27.5713
-27.5661
-27.5609
-27.5558
-27.5508
-27.546
-27.5412
-27.5366
-27.5321
-27.5277
-27.5234
-27.5192
-27.5152
-27.5113
-27.5076
-27.504
-27.5005
-27.4972
-27.4941
-27.491
-27.4882
-27.4854
-27.4829
-27.4805
-27.4782
-27.4762
-27.4742
-27.4725
-27.4709
-27.4695
-27.4682
-27.4671
-27.4662
-27.4654
-27.4649
-27.4644
-27.4642
-27.4641
-31.3867
-31.3868
-31.387
-31.3875
-31.388
-31.3888
-31.3897
-31.3908
-31.3921
-31.3935
-31.3951
-31.3969
-31.3988
-31.4009
-31.4032
-31.4056
-31.4081
-31.4109
-31.4138
-31.4168
-31.42
-31.4233
-31.4268
-31.4304
-31.4342
-31.4381
-31.4421
-31.4463
-31.4506
-31.455
-31.4596
-31.4642
-31.469
-31.4739
-31.4789
-31.484
-31.4892
-31.4945
-31.4999
-31.5054
-31.511
-31.5166
-31.5223
-31.5281
-31.5339
-31.5398
-31.5458
-31.5518
-31.5578
-31.5639
-31.57
-31.5761
-31.5822
-31.5884
-31.5945
-31.6007
-31.6068
-31.613
-31.6191
-31.6251
-31.6312
-31.6372
-31.6432
-31.6491
-31.6549
-31.6607
-31.6664
-31.672
-31.6775
-31.683
-31.6883
-31.6935
-31.6986
-31.7036
-31.7085
-31.7133
-31.7179
-31.7223
-31.7266
-31.7308
-31.7348
-31.7386
-31.7423
-31.7458
-31.7491
-31.7522
-31.7551
-31.7579
-31.7604
-31.7627
-31.7649
-31.7668
-31.7686
-31.7701
-31.7714
-31.7725
-31.7733
-31.774
-31.7744
-31.7747
-31.7747
-31.7744
-31.774
-31.7734
-31.7725
-31.7714
-31.7701
-31.7686
-31.7669
-31.7649
-31.7628
-31.7604
-31.7579
-31.7552
-31.7522
-31.7491
-31.7458
-31.7423
-31.7387
-31.7348
-31.7308
-31.7267
-31.7224
-31.7179
-31.7133
-31.7086
-31.7037
-31.6987
-31.6936
-31.6884
-31.683
-31.6776
-31.6721
-31.6665
-31.6608
-31.655
-31.6492
-31.6433
-31.6373
-31.6313
-31.6253
-31.6192
-31.6131
-31.607
-31.6008
-31.5947
-31.5885
-31.5824
-31.5762
-31.5701
-31.564
-31.558
-31.5519
-31.5459
-31.54
-31.5341
-31.5282
-31.5225
-31.5168
-31.5111
-31.5056
-31.5001
-31.4947
-31.4894
-31.4842
-31.4791
-31.4741
-31.4692
-31.4644
-31.4597
-31.4552
-31.4508
-31.4465
-31.4423
-31.4382
-31.4343
-31.4306
-31.427
-31.4235
-31.4201
-31.417
-31.4139
-31.411
-31.4083
-31.4057
-31.4033
-31.4011
-31.399
-31.3971
-31.3953
-31.3937
-31.3923
-31.391
-31.3899
-31.389
-31.3882
-31.3876
-31.3872
-31.387
-31.3869
-35.3093
-35.3094
-35.3096
-35.31
-35.3106
-35.3114
-35.3123
-35.3134
-35.3147
-35.3162
-35.3178
-35.3195
-35.3215
-35.3236
-35.3258
-35.3283
-35.3309
-35.3336
-35.3365
-35.3396
-35.3428
-35.3461
-35.3496
-35.3533
-35.357
-35.361
-35.365
-35.3692
-35.3736
-35.378
-35.3826
-35.3873
-35.3921
-35.397
-35.4021
-35.4072
-35.4125
-35.4178
-35.4232
-35.4287
-35.4343
-35.44
-35.4458
-35.4516
-35.4575
-35.4634
-35.4694
-35.4755
-35.4815
-35.4877
-35.4938
-35.5
-35.5062
-35.5124
-35.5186
-35.5248
-35.531
-35.5372
-35.5433
-35.5494
-35.5555
-35.5616
-35.5676
-35.5736
-35.5795
-35.5853
-35.5911
-35.5967
-35.6023
-35.6078
-35.6132
-35.6185
-35.6236
-35.6287
-35.6336
-35.6384
-35.6431
-35.6476
-35.6519
-35.6561
-35.6602
-35.664
-35.6677
-35.6713
-35.6746
-35.6778
-35.6807
-35.6835
-35.6861
-35.6884
-35.6906
-35.6926
-35.6943
-35.6959
-35.6972
-35.6983
-35.6992
-35.6998
-35.7003
-35.7005
-35.7005
-35.7003
-35.6998
-35.6992
-35.6983
-35.6972
-35.6959
-35.6943
-35.6926
-35.6906
-35.6885
-35.6861
-35.6835
-35.6808
-35.6778
-35.6747
-35.6713
-35.6678
-35.6641
-35.6602
-35.6562
-35.652
-35.6476
-35.6431
-35.6385
-35.6337
-35.6288
-35.6237
-35.6186
-35.6133
-35.6079
-35.6024
-35.5968
-35.5911
-35.5854
-35.5796
-35.5737
-35.5677
-35.5617
-35.5557
-35.5496
-35.5434
-35.5373
-35.5311
-35.5249
-35.5187
-35.5125
-35.5063
-35.5001
-35.4939
-35.4878
-35.4817
-35.4756
-35.4696
-35.4636
-35.4576
-35.4517
-35.4459
-35.4402
-35.4345
-35.4289
-35.4234
-35.4179
-35.4126
-35.4074
-35.4022
-35.3972
-35.3923
-35.3874
-35.3827
-35.3782
-35.3737
-35.3694
-35.3652
-35.3611
-35.3572
-35.3534
-35.3498
-35.3463
-35.3429
-35.3397
-35.3367
-35.3338
-35.331
-35.3284
-35.326
-35.3237
-35.3216
-35.3197
-35.3179
-35.3163
-35.3149
-35.3136
-35.3125
-35.3116
-35.3108
-35.3102
-35.3098
-35.3095
-35.3095
-39.2317
-39.2318
-39.232
-39.2325
-39.2331
-39.2338
-39.2348
-39.2359
-39.2372
-39.2386
-39.2402
-39.242
-39.244
-39.2461
-39.2484
-39.2508
-39.2534
-39.2562
-39.2591
-39.2622
-39.2654
-39.2688
-39.2723
-39.276
-39.2798
-39.2837
-39.2878
-39.292
-39.2964
-39.3009
-39.3055
-39.3102
-39.3151
-39.32
-39.3251
-39.3303
-39.3356
-39.341
-39.3464
-39.352
-39.3576
-39.3634
-39.3692
-39.375
-39.381
-39.387
-39.393
-39.3991
-39.4052
-39.4114
-39.4176
-39.4238
-39.4301
-39.4363
-39.4426
-39.4489
-39.4551
-39.4614
-39.4676
-39.4738
-39.4799
-39.4861
-39.4921
-39.4982
-39.5041
-39.51
-39.5158
-39.5216
-39.5272
-39.5328
-39.5382
-39.5435
-39.5488
-39.5539
-39.5589
-39.5637
-39.5684
-39.573
-39.5774
-39.5816
-39.5857
-39.5896
-39.5934
-39.597
-39.6003
-39.6035
-39.6065
-39.6093
-39.612
-39.6144
-39.6165
-39.6185
-39.6203
-39.6219
-39.6232
-39.6243
-39.6252
-39.6259
-39.6263
-39.6266
-39.6266
-39.6263
-39.6259
-39.6252
-39.6243
-39.6232
-39.6219
-39.6203
-39.6186
-39.6166
-39.6144
-39.612
-39.6094
-39.6066
-39.6036
-39.6004
-39.597
-39.5934
-39.5897
-39.5858
-39.5817
-39.5775
-39.573
-39.5685
-39.5638
-39.5589
-39.554
-39.5489
-39.5436
-39.5383
-39.5328
-39.5273
-39.5216
-39.5159
-39.5101
-39.5042
-39.4983
-39.4922
-39.4862
-39.48
-39.4739
-39.4677
-39.4615
-39.4552
-39.449
-39.4427
-39.4365
-39.4302
-39.424
-39.4177
-39.4115
-39.4054
-39.3992
-39.3931
-39.3871
-39.3811
-39.3752
-39.3693
-39.3635
-39.3578
-39.3521
-39.3466
-39.3411
-39.3357
-39.3304
-39.3253
-39.3202
-39.3152
-39.3104
-39.3057
-39.301
-39.2966
-39.2922
-39.288
-39.2839
-39.2799
-39.2761
-39.2725
-39.2689
-39.2656
-39.2623
-39.2593
-39.2563
-39.2536
-39.251
-39.2485
-39.2463
-39.2441
-39.2422
-39.2404
-39.2388
-39.2373
-39.2361
-39.2349
-39.234
-39.2332
-39.2326
-39.2322
-39.232
-39.2319
-43.154
-43.1541
-43.1543
-43.1547
-43.1553
-43.1561
-43.1571
-43.1582
-43.1595
-43.1609
-43.1625
-43.1643
-43.1663
-43.1684
-43.1707
-43.1732
-43.1758
-43.1786
-43.1815
-43.1846
-43.1879
-43.1913
-43.1948
-43.1985
-43.2024
-43.2063
-43.2105
-43.2147
-43.2191
-43.2236
-43.2283
-43.233
-43.2379
-43.2429
-43.2481
-43.2533
-43.2586
-43.264
-43.2696
-43.2752
-43.2809
-43.2866
-43.2925
-43.2984
-43.3044
-43.3104
-43.3165
-43.3227
-43.3289
-43.3351
-43.3414
-43.3477
-43.354
-43.3603
-43.3666
-43.373
-43.3793
-43.3856
-43.3919
-43.3981
-43.4044
-43.4106
-43.4167
-43.4228
-43.4288
-43.4348
-43.4407
-43.4465
-43.4522
-43.4578
-43.4633
-43.4687
-43.474
-43.4792
-43.4842
-43.4892
-43.4939
-43.4985
-43.503
-43.5073
-43.5115
-43.5154
-43.5192
-43.5228
-43.5263
-43.5295
-43.5325
-43.5354
-43.538
-43.5405
-43.5427
-43.5447
-43.5465
-43.5481
-43.5494
-43.5506
-43.5515
-43.5522
-43.5526
-43.5528
-43.5528
-43.5526
-43.5522
-43.5515
-43.5506
-43.5495
-43.5481
-43.5465
-43.5447
-43.5427
-43.5405
-43.5381
-43.5354
-43.5326
-43.5295
-43.5263
-43.5229
-43.5193
-43.5155
-43.5115
-43.5074
-43.5031
-43.4986
-43.494
-43.4892
-43.4843
-43.4793
-43.4741
-43.4688
-43.4634
-43.4579
-43.4523
-43.4466
-43.4408
-43.4349
-43.4289
-43.4229
-43.4168
-43.4107
-43.4045
-43.3983
-43.392
-43.3857
-43.3794
-43.3731
-43.3668
-43.3604
-43.3541
-43.3478
-43.3415
-43.3353
-43.329
-43.3228
-43.3167
-43.3106
-43.3045
-43.2986
-43.2926
-43.2868
-43.281
-43.2753
-43.2697
-43.2642
-43.2588
-43.2534
-43.2482
-43.2431
-43.2381
-43.2332
-43.2284
-43.2238
-43.2193
-43.2149
-43.2106
-43.2065
-43.2025
-43.1987
-43.195
-43.1914
-43.188
-43.1848
-43.1817
-43.1788
-43.176
-43.1734
-43.1709
-43.1686
-43.1665
-43.1645
-43.1627
-43.1611
-43.1596
-43.1583
-43.1572
-43.1563
-43.1555
-43.1549
-43.1545
-43.1542
-43.1541
-47.076
-47.0761
-47.0764
-47.0768
-47.0774
-47.0782
-47.0792
-47.0803
-47.0816
-47.083
-47.0847
-47.0865
-47.0885
-47.0906
-47.0929
-47.0954
-47.0981
-47.1009
-47.1038
-47.1069
-47.1102
-47.1136
-47.1172
-47.1209
-47.1248
-47.1288
-47.133
-47.1373
-47.1417
-47.1463
-47.1509
-47.1557
-47.1607
-47.1657
-47.1709
-47.1762
-47.1815
-47.187
-47.1926
-47.1982
-47.204
-47.2098
-47.2157
-47.2217
-47.2278
-47.2339
-47.24
-47.2463
-47.2525
-47.2588
-47.2651
-47.2715
-47.2779
-47.2843
-47.2907
-47.2971
-47.3035
-47.3098
-47.3162
-47.3225
-47.3288
-47.3351
-47.3413
-47.3475
-47.3536
-47.3596
-47.3656
-47.3715
-47.3773
-47.383
-47.3886
-47.394
-47.3994
-47.4046
-47.4098
-47.4147
-47.4196
-47.4243
-47.4288
-47.4332
-47.4374
-47.4414
-47.4452
-47.4489
-47.4524
-47.4557
-47.4588
-47.4616
-47.4643
-47.4668
-47.4691
-47.4711
-47.4729
-47.4745
-47.4759
-47.4771
-47.478
-47.4787
-47.4791
-47.4794
-47.4794
-47.4791
-47.4787
-47.478
-47.4771
-47.4759
-47.4745
-47.4729
-47.4711
-47.4691
-47.4668
-47.4644
-47.4617
-47.4588
-47.4557
-47.4524
-47.449
-47.4453
-47.4414
-47.4374
-47.4332
-47.4288
-47.4243
-47.4196
-47.4148
-47.4098
-47.4047
-47.3995
-47.3941
-47.3886
-47.383
-47.3774
-47.3716
-47.3657
-47.3597
-47.3537
-47.3476
-47.3414
-47.3352
-47.329
-47.3227
-47.3163
-47.31
-47.3036
-47.2972
-47.2908
-47.2844
-47.278
-47.2716
-47.2653
-47.2589
-47.2526
-47.2464
-47.2402
-47.234
-47.2279
-47.2219
-47.2159
-47.21
-47.2041
-47.1984
-47.1927
-47.1872
-47.1817
-47.1763
-47.171
-47.1659
-47.1608
-47.1559
-47.1511
-47.1464
-47.1419
-47.1374
-47.1331
-47.129
-47.125
-47.1211
-47.1174
-47.1138
-47.1104
-47.1071
-47.104
-47.101
-47.0982
-47.0956
-47.0931
-47.0908
-47.0886
-47.0867
-47.0849
-47.0832
-47.0817
-47.0804
-47.0793
-47.0784
-47.0776
-47.077
-47.0766
-47.0763
-47.0762
-50.9979
-50.998
-50.9983
-50.9987
-50.9993
-51.0001
-51.0011
-51.0022
-51.0035
-51.005
-51.0067
-51.0085
-51.0105
-51.0126
-51.015
-51.0175
-51.0201
-51.023
-51.0259
-51.0291
-51.0324
-51.0358
-51.0394
-51.0432
-51.0471
-51.0512
-51.0554
-51.0597
-51.0641
-51.0687
-51.0735
-51.0783
-51.0833
-51.0884
-51.0936
-51.0989
-51.1044
-51.1099
-51.1155
-51.1212
-51.1271
-51.1329
-51.1389
-51.145
-51.1511
-51.1572
-51.1635
-51.1698
-51.1761
-51.1825
-51.1889
-51.1953
-51.2018
-51.2082
-51.2147
-51.2212
-51.2277
-51.2341
-51.2406
-51.247
-51.2534
-51.2597
-51.266
-51.2723
-51.2784
-51.2846
-51.2906
-51.2966
-51.3024
-51.3082
-51.3139
-51.3195
-51.3249
-51.3302
-51.3354
-51.3405
-51.3454
-51.3501
-51.3547
-51.3592
-51.3634
-51.3675
-51.3714
-51.3752
-51.3787
-51.382
-51.3852
-51.3881
-51.3908
-51.3933
-51.3956
-51.3977
-51.3996
-51.4012
-51.4026
-51.4038
-51.4047
-51.4054
-51.4059
-51.4061
-51.4061
-51.4059
-51.4054
-51.4047
-51.4038
-51.4026
-51.4012
-51.3996
-51.3977
-51.3957
-51.3934
-51.3909
-51.3881
-51.3852
-51.3821
-51.3787
-51.3752
-51.3715
-51.3676
-51.3635
-51.3592
-51.3548
-51.3502
-51.3454
-51.3405
-51.3355
-51.3303
-51.325
-51.3195
-51.314
-51.3083
-51.3025
-51.2967
-51.2907
-51.2847
-51.2785
-51.2724
-51.2661
-51.2598
-51.2535
-51.2471
-51.2407
-51.2342
-51.2278
-51.2213
-51.2148
-51.2083
-51.2019
-51.1954
-51.189
-51.1826
-51.1762
-51.1699
-51.1636
-51.1574
-51.1512
-51.1451
-51.1391
-51.1331
-51.1272
-51.1214
-51.1157
-51.11
-51.1045
-51.0991
-51.0938
-51.0886
-51.0835
-51.0785
-51.0736
-51.0689
-51.0643
-51.0598
-51.0555
-51.0513
-51.0473
-51.0434
-51.0396
-51.036
-51.0326
-51.0293
-51.0261
-51.0231
-51.0203
-51.0176
-51.0151
-51.0128
-51.0107
-51.0087
-51.0068
-51.0052
-51.0037
-51.0024
-51.0013
-51.0003
-50.9995
-50.9989
-50.9985
-50.9982
-50.9981
-54.9197
-54.9198
-54.92
-54.9205
-54.9211
-54.9219
-54.9228
-54.924
-54.9253
-54.9268
-54.9285
-54.9303
-54.9323
-54.9345
-54.9369
-54.9394
-54.9421
-54.9449
-54.9479
-54.9511
-54.9544
-54.9579
-54.9615
-54.9653
-54.9693
-54.9734
-54.9776
-54.982
-54.9865
-54.9911
-54.9959
-55.0008
-55.0058
-55.011
-55.0162
-55.0216
-55.0271
-55.0327
-55.0384
-55.0441
-55.05
-55.056
-55.062
-55.0681
-55.0743
-55.0806
-55.0869
-55.0932
-55.0996
-55.1061
-55.1126
-55.1191
-55.1256
-55.1322
-55.1387
-55.1453
-55.1519
-55.1584
-55.1649
-55.1714
-55.1779
-55.1844
-55.1907
-55.1971
-55.2034
-55.2096
-55.2157
-55.2218
-55.2277
-55.2336
-55.2393
-55.245
-55.2505
-55.2559
-55.2612
-55.2663
-55.2713
-55.2762
-55.2808
-55.2853
-55.2897
-55.2938
-55.2978
-55.3016
-55.3052
-55.3086
-55.3118
-55.3148
-55.3176
-55.3201
-55.3225
-55.3246
-55.3265
-55.3281
-55.3295
-55.3307
-55.3317
-55.3324
-55.3329
-55.3331
-55.3331
-55.3329
-55.3324
-55.3317
-55.3307
-55.3295
-55.3281
-55.3265
-55.3246
-55.3225
-55.3201
-55.3176
-55.3148
-55.3118
-55.3087
-55.3053
-55.3017
-55.2979
-55.2939
-55.2897
-55.2854
-55.2809
-55.2762
-55.2714
-55.2664
-55.2613
-55.256
-55.2506
-55.2451
-55.2394
-55.2337
-55.2278
-55.2218
-55.2158
-55.2097
-55.2035
-55.1972
-55.1909
-55.1845
-55.178
-55.1716
-55.1651
-55.1585
-55.152
-55.1454
-55.1389
-55.1323
-55.1257
-55.1192
-55.1127
-55.1062
-55.0998
-55.0934
-55.087
-55.0807
-55.0745
-55.0683
-55.0622
-55.0561
-55.0502
-55.0443
-55.0385
-55.0328
-55.0272
-55.0218
-55.0164
-55.0111
-55.006
-55.001
-54.996
-54.9913
-54.9866
-54.9821
-54.9778
-54.9735
-54.9694
-54.9655
-54.9617
-54.9581
-54.9546
-54.9513
-54.9481
-54.9451
-54.9422
-54.9395
-54.937
-54.9347
-54.9325
-54.9305
-54.9286
-54.927
-54.9255
-54.9242
-54.923
-54.922
-54.9213
-54.9206
-54.9202
-54.9199
-54.9199
-58.8412
-58.8413
-58.8416
-58.842
-58.8427
-58.8435
-58.8444
-58.8456
-58.8469
-58.8484
-58.8501
-58.852
-58.854
-58.8562
-58.8586
-58.8611
-58.8638
-58.8667
-58.8697
-58.8729
-58.8763
-58.8798
-58.8835
-58.8873
-58.8913
-58.8954
-58.8997
-58.9041
-58.9087
-58.9134
-58.9182
-58.9231
-58.9282
-58.9334
-58.9387
-58.9442
-58.9497
-58.9554
-58.9611
-58.967
-58.9729
-58.9789
-58.9851
-58.9912
-58.9975
-59.0038
-59.0102
-59.0167
-59.0231
-59.0297
-59.0362
-59.0428
-59.0495
-59.0561
-59.0628
-59.0694
-59.0761
-59.0827
-59.0893
-59.0959
-59.1025
-59.109
-59.1155
-59.122
-59.1283
-59.1347
-59.1409
-59.147
-59.1531
-59.1591
-59.1649
-59.1706
-59.1763
-59.1818
-59.1871
-59.1924
-59.1974
-59.2023
-59.2071
-59.2117
-59.2161
-59.2204
-59.2244
-59.2283
-59.2319
-59.2354
-59.2386
-59.2417
-59.2445
-59.2471
-59.2495
-59.2516
-59.2536
-59.2552
-59.2567
-59.2579
-59.2589
-59.2596
-59.2601
-59.2604
-59.2604
-59.2601
-59.2596
-59.2589
-59.2579
-59.2567
-59.2553
-59.2536
-59.2517
-59.2495
-59.2471
-59.2445
-59.2417
-59.2387
-59.2354
-59.232
-59.2283
-59.2245
-59.2204
-59.2162
-59.2118
-59.2072
-59.2024
-59.1975
-59.1924
-59.1872
-59.1818
-59.1764
-59.1707
-59.165
-59.1591
-59.1532
-59.1471
-59.141
-59.1348
-59.1284
-59.1221
-59.1156
-59.1092
-59.1026
-59.0961
-59.0895
-59.0828
-59.0762
-59.0695
-59.0629
-59.0562
-59.0496
-59.043
-59.0364
-59.0298
-59.0233
-59.0168
-59.0103
-59.004
-58.9976
-58.9914
-58.9852
-58.9791
-58.9731
-58.9671
-58.9613
-58.9555
-58.9499
-58.9443
-58.9389
-58.9336
-58.9284
-58.9233
-58.9183
-58.9135
-58.9088
-58.9043
-58.8999
-58.8956
-58.8915
-58.8875
-58.8836
-58.88
-58.8765
-58.8731
-58.8699
-58.8669
-58.864
-58.8613
-58.8587
-58.8564
-58.8542
-58.8521
-58.8503
-58.8486
-58.8471
-58.8458
-58.8446
-58.8436
-58.8428
-58.8422
-58.8418
-58.8415
-58.8414
-62.7626
-62.7627
-62.763
-62.7634
-62.764
-62.7649
-62.7658
-62.767
-62.7683
-62.7699
-62.7716
-62.7734
-62.7755
-62.7777
-62.7801
-62.7827
-62.7854
-62.7883
-62.7914
-62.7946
-62.798
-62.8016
-62.8053
-62.8091
-62.8132
-62.8173
-62.8216
-62.8261
-62.8307
-62.8355
-62.8403
-62.8453
-62.8505
-62.8557
-62.8611
-62.8666
-62.8722
-62.878