/*--------------------------------*- C++ -*----------------------------------*\
| =========                 |                                                 |
| \\      /  F ield         | OpenFOAM: The Open Source CFD Toolbox           |
|  \\    /   O peration     | Version:  2412                                  |
|   \\  /    A nd           | Website:  www.openfoam.com                      |
|    \\/     M anipulation  |                                                 |
\*---------------------------------------------------------------------------*/
FoamFile
{
    version     2.0;
    format      ascii;
    arch        "LSB;label=32;scalar=64";
    class       volScalarField;
    location    "1.09";
    object      p_rgh;
}
// * * * * * * * * * * * * * * * * * * * * * * * * * * * * * * * * * * * * * //

dimensions      [1 -1 -2 0 0 0 0];

internalField   nonuniform List<scalar> 
40000
(
1.962
1.96191
1.96167
1.96127
1.9607
1.95996
1.95906
1.95798
1.95675
1.95534
1.95378
1.95205
1.95016
1.94812
1.94591
1.94355
1.94104
1.93837
1.93555
1.93258
1.92946
1.9262
1.9228
1.91926
1.91558
1.91177
1.90782
1.90375
1.89955
1.89523
1.89079
1.88623
1.88157
1.87679
1.87192
1.86694
1.86186
1.8567
1.85145
1.84611
1.8407
1.83521
1.82966
1.82404
1.81836
1.81263
1.80686
1.80104
1.79518
1.78929
1.78338
1.77744
1.7715
1.76554
1.75958
1.75363
1.74769
1.74176
1.73585
1.72998
1.72414
1.71834
1.71259
1.70689
1.70126
1.69569
1.69019
1.68478
1.67945
1.67421
1.66907
1.66404
1.65911
1.6543
1.64962
1.64506
1.64064
1.63635
1.63221
1.62822
1.62439
1.62071
1.6172
1.61385
1.61068
1.60769
1.60488
1.60225
1.59981
1.59757
1.59551
1.59366
1.592
1.59055
1.5893
1.58826
1.58742
1.58679
1.58637
1.58616
1.58616
1.58636
1.58678
1.58741
1.58824
1.58928
1.59053
1.59198
1.59363
1.59549
1.59754
1.59978
1.60222
1.60484
1.60765
1.61064
1.61381
1.61715
1.62065
1.62433
1.62816
1.63215
1.63629
1.64057
1.64499
1.64954
1.65423
1.65903
1.66395
1.66899
1.67412
1.67936
1.68469
1.6901
1.69559
1.70116
1.70679
1.71249
1.71824
1.72403
1.72987
1.73574
1.74165
1.74757
1.75351
1.75946
1.76542
1.77137
1.77732
1.78325
1.78916
1.79505
1.80091
1.80672
1.8125
1.81823
1.8239
1.82952
1.83507
1.84056
1.84597
1.8513
1.85655
1.86171
1.86679
1.87176
1.87664
1.88141
1.88608
1.89063
1.89507
1.89939
1.90359
1.90766
1.9116
1.91542
1.91909
1.92263
1.92604
1.9293
1.93241
1.93538
1.9382
1.94087
1.94338
1.94575
1.94795
1.95
1.95189
1.95361
1.95518
1.95658
1.95782
1.9589
1.95981
1.96055
1.96113
1.96155
1.96179
1.96188
1.96208
1.96199
1.96176
1.96136
1.96079
1.96005
1.95914
1.95807
1.95683
1.95543
1.95387
1.95214
1.95025
1.9482
1.946
1.94363
1.94112
1.93845
1.93563
1.93266
1.92954
1.92628
1.92288
1.91933
1.91565
1.91184
1.90789
1.90381
1.89961
1.89529
1.89085
1.88629
1.88162
1.87685
1.87197
1.86699
1.86191
1.85675
1.85149
1.84615
1.84074
1.83525
1.82969
1.82407
1.81839
1.81266
1.80688
1.80106
1.7952
1.7893
1.78339
1.77745
1.7715
1.76554
1.75958
1.75362
1.74768
1.74175
1.73584
1.72996
1.72412
1.71831
1.71256
1.70686
1.70122
1.69565
1.69015
1.68473
1.6794
1.67416
1.66901
1.66397
1.65905
1.65424
1.64955
1.64499
1.64056
1.63627
1.63213
1.62814
1.6243
1.62062
1.6171
1.61376
1.61059
1.60759
1.60478
1.60215
1.59971
1.59746
1.59541
1.59355
1.59189
1.59044
1.58919
1.58814
1.58731
1.58668
1.58625
1.58604
1.58604
1.58625
1.58667
1.58729
1.58813
1.58917
1.59042
1.59187
1.59353
1.59538
1.59743
1.59968
1.60211
1.60474
1.60755
1.61054
1.61371
1.61705
1.62057
1.62424
1.62808
1.63207
1.63621
1.64049
1.64492
1.64947
1.65416
1.65897
1.66389
1.66893
1.67407
1.67931
1.68464
1.69006
1.69555
1.70112
1.70676
1.71246
1.71821
1.72401
1.72985
1.73573
1.74163
1.74756
1.75351
1.75946
1.76542
1.77138
1.77733
1.78326
1.78918
1.79507
1.80092
1.80675
1.81252
1.81826
1.82393
1.82955
1.83511
1.84059
1.84601
1.85134
1.8566
1.86176
1.86684
1.87182
1.87669
1.88147
1.88614
1.89069
1.89513
1.89945
1.90365
1.90773
1.91167
1.91549
1.91917
1.92271
1.92611
1.92937
1.93249
1.93546
1.93828
1.94095
1.94347
1.94583
1.94803
1.95008
1.95197
1.9537
1.95527
1.95667
1.95791
1.95899
1.9599
1.96064
1.96122
1.96163
1.96187
1.96196
1.96233
1.96224
1.96201
1.9616
1.96103
1.96029
1.95938
1.95831
1.95707
1.95566
1.9541
1.95237
1.95048
1.94843
1.94622
1.94386
1.94134
1.93866
1.93584
1.93287
1.92975
1.92648
1.92308
1.91953
1.91584
1.91202
1.90807
1.90399
1.89979
1.89546
1.89101
1.88645
1.88178
1.877
1.87211
1.86713
1.86204
1.85687
1.85161
1.84627
1.84084
1.83535
1.82978
1.82415
1.81847
1.81273
1.80694
1.80111
1.79524
1.78934
1.78341
1.77747
1.77151
1.76554
1.75957
1.75361
1.74765
1.74171
1.73579
1.72991
1.72405
1.71824
1.71248
1.70677
1.70112
1.69554
1.69003
1.6846
1.67926
1.67401
1.66886
1.66381
1.65888
1.65406
1.64936
1.64479
1.64036
1.63606
1.63191
1.62791
1.62406
1.62038
1.61686
1.61351
1.61033
1.60733
1.60451
1.60187
1.59943
1.59718
1.59512
1.59326
1.5916
1.59014
1.58889
1.58784
1.587
1.58637
1.58595
1.58573
1.58573
1.58594
1.58636
1.58699
1.58782
1.58887
1.59012
1.59157
1.59323
1.59509
1.59714
1.59939
1.60184
1.60447
1.60728
1.61028
1.61346
1.61681
1.62032
1.62401
1.62785
1.63185
1.636
1.64029
1.64472
1.64929
1.65398
1.6588
1.66373
1.66878
1.67393
1.67917
1.68451
1.68994
1.69544
1.70102
1.70667
1.71238
1.71814
1.72395
1.7298
1.73568
1.7416
1.74754
1.75349
1.75945
1.76542
1.77139
1.77735
1.78329
1.78921
1.79511
1.80098
1.80681
1.81259
1.81833
1.82402
1.82964
1.83521
1.8407
1.84612
1.85146
1.85672
1.86189
1.86697
1.87196
1.87684
1.88162
1.8863
1.89086
1.8953
1.89963
1.90383
1.90791
1.91186
1.91568
1.91936
1.92291
1.92632
1.92958
1.9327
1.93567
1.9385
1.94117
1.94369
1.94605
1.94826
1.95031
1.9522
1.95393
1.9555
1.95691
1.95815
1.95923
1.96014
1.96088
1.96146
1.96187
1.96211
1.9622
1.96275
1.96266
1.96242
1.96201
1.96144
1.96069
1.95978
1.95871
1.95747
1.95606
1.95449
1.95276
1.95086
1.94881
1.9466
1.94423
1.94171
1.93903
1.9362
1.93323
1.9301
1.92683
1.92342
1.91986
1.91617
1.91234
1.90839
1.9043
1.90009
1.89575
1.8913
1.88673
1.88204
1.87725
1.87236
1.86736
1.86227
1.85708
1.85181
1.84646
1.84102
1.83551
1.82994
1.8243
1.8186
1.81284
1.80704
1.8012
1.79532
1.7894
1.78346
1.7775
1.77153
1.76555
1.75956
1.75358
1.74761
1.74165
1.73572
1.72982
1.72395
1.71812
1.71234
1.70662
1.70095
1.69536
1.68983
1.68439
1.67903
1.67377
1.6686
1.66354
1.65859
1.65375
1.64904
1.64446
1.64001
1.6357
1.63154
1.62752
1.62367
1.61997
1.61644
1.61307
1.60988
1.60687
1.60404
1.6014
1.59895
1.59669
1.59462
1.59276
1.59109
1.58963
1.58837
1.58732
1.58648
1.58584
1.58542
1.58521
1.58521
1.58542
1.58584
1.58647
1.58731
1.58835
1.58961
1.59107
1.59273
1.5946
1.59666
1.59891
1.60137
1.604
1.60683
1.60984
1.61302
1.61638
1.61991
1.62361
1.62746
1.63147
1.63563
1.63994
1.64439
1.64897
1.65368
1.65851
1.66346
1.66852
1.67368
1.67894
1.6843
1.68974
1.69526
1.70086
1.70652
1.71224
1.71802
1.72384
1.72971
1.73561
1.74154
1.7475
1.75346
1.75944
1.76543
1.77141
1.77738
1.78334
1.78928
1.79519
1.80107
1.80691
1.81271
1.81846
1.82416
1.8298
1.83537
1.84088
1.84631
1.85166
1.85693
1.86212
1.86721
1.8722
1.8771
1.88189
1.88657
1.89114
1.89559
1.89993
1.90414
1.90822
1.91218
1.91601
1.9197
1.92325
1.92666
1.92993
1.93306
1.93604
1.93886
1.94154
1.94406
1.94643
1.94865
1.9507
1.95259
1.95433
1.9559
1.9573
1.95855
1.95963
1.96054
1.96129
1.96187
1.96228
1.96252
1.96261
1.96333
1.96324
1.963
1.96259
1.96201
1.96126
1.96035
1.95927
1.95803
1.95662
1.95504
1.95331
1.95141
1.94935
1.94714
1.94476
1.94223
1.93955
1.93671
1.93373
1.9306
1.92732
1.9239
1.92033
1.91663
1.9128
1.90883
1.90473
1.90051
1.89616
1.89169
1.88711
1.88241
1.87761
1.8727
1.86769
1.86258
1.85738
1.8521
1.84672
1.84127
1.83575
1.83016
1.8245
1.81878
1.81301
1.80719
1.80133
1.79542
1.78949
1.78353
1.77755
1.77156
1.76555
1.75955
1.75354
1.74755
1.74158
1.73562
1.7297
1.7238
1.71796
1.71215
1.70641
1.70072
1.6951
1.68955
1.68409
1.67871
1.67342
1.66823
1.66315
1.65818
1.65332
1.64859
1.64399
1.63952
1.63519
1.63101
1.62698
1.6231
1.61939
1.61584
1.61246
1.60926
1.60623
1.60339
1.60074
1.59827
1.596
1.59393
1.59205
1.59038
1.58891
1.58765
1.58659
1.58574
1.58511
1.58468
1.58447
1.58447
1.58468
1.5851
1.58573
1.58658
1.58763
1.58889
1.59036
1.59203
1.5939
1.59597
1.59824
1.6007
1.60335
1.60619
1.60921
1.61241
1.61579
1.61933
1.62305
1.62692
1.63095
1.63513
1.63945
1.64392
1.64852
1.65325
1.6581
1.66307
1.66815
1.67334
1.67862
1.684
1.68946
1.695
1.70062
1.70631
1.71205
1.71785
1.7237
1.72959
1.73551
1.74146
1.74744
1.75343
1.75943
1.76543
1.77143
1.77743
1.78341
1.78936
1.79529
1.80119
1.80706
1.81287
1.81864
1.82436
1.83002
1.83561
1.84113
1.84658
1.85195
1.85724
1.86243
1.86754
1.87255
1.87746
1.88226
1.88695
1.89153
1.896
1.90035
1.90457
1.90867
1.91263
1.91647
1.92017
1.92373
1.92715
1.93043
1.93356
1.93655
1.93938
1.94206
1.94459
1.94697
1.94919
1.95124
1.95314
1.95488
1.95645
1.95787
1.95911
1.96019
1.96111
1.96186
1.96244
1.96285
1.96309
1.96318
1.96408
1.96399
1.96374
1.96333
1.96275
1.962
1.96108
1.96
1.95875
1.95734
1.95576
1.95402
1.95211
1.95005
1.94783
1.94545
1.94291
1.94022
1.93737
1.93438
1.93124
1.92795
1.92451
1.92094
1.91723
1.91338
1.9094
1.90529
1.90105
1.89669
1.8922
1.8876
1.88289
1.87807
1.87314
1.86812
1.86299
1.85777
1.85246
1.84707
1.8416
1.83605
1.83044
1.82476
1.81902
1.81322
1.80738
1.80149
1.79556
1.78961
1.78362
1.77761
1.77159
1.76556
1.75953
1.7535
1.74748
1.74147
1.73549
1.72954
1.72362
1.71774
1.71191
1.70613
1.70042
1.69477
1.68919
1.6837
1.67829
1.67298
1.66776
1.66265
1.65765
1.65277
1.64801
1.64338
1.63889
1.63454
1.63033
1.62628
1.62238
1.61864
1.61507
1.61168
1.60845
1.60541
1.60255
1.59988
1.5974
1.59512
1.59303
1.59114
1.58946
1.58798
1.58671
1.58565
1.5848
1.58415
1.58373
1.58351
1.58351
1.58372
1.58415
1.58479
1.58563
1.58669
1.58796
1.58944
1.59112
1.593
1.59509
1.59737
1.59984
1.60251
1.60537
1.60841
1.61163
1.61502
1.61859
1.62232
1.62622
1.63027
1.63447
1.63882
1.64331
1.64794
1.65269
1.65757
1.66257
1.66768
1.67289
1.6782
1.68361
1.6891
1.69467
1.70032
1.70603
1.71181
1.71763
1.72351
1.72943
1.73538
1.74136
1.74736
1.75338
1.75941
1.76544
1.77147
1.77749
1.78349
1.78948
1.79543
1.80136
1.80725
1.81309
1.81888
1.82462
1.8303
1.83591
1.84146
1.84693
1.85232
1.85762
1.86284
1.86796
1.87299
1.87792
1.88274
1.88745
1.89205
1.89653
1.90089
1.90512
1.90924
1.91322
1.91706
1.92077
1.92435
1.92778
1.93107
1.93421
1.93721
1.94005
1.94274
1.94528
1.94766
1.94988
1.95195
1.95385
1.95559
1.95717
1.95859
1.95984
1.96092
1.96184
1.96259
1.96318
1.96359
1.96383
1.96392
1.96499
1.96489
1.96465
1.96423
1.96365
1.9629
1.96198
1.96089
1.95964
1.95822
1.95664
1.95489
1.95298
1.9509
1.94867
1.94628
1.94374
1.94103
1.93818
1.93517
1.93202
1.92872
1.92527
1.92168
1.91796
1.91409
1.91009
1.90597
1.90171
1.89733
1.89283
1.88821
1.88348
1.87864
1.87369
1.86864
1.86349
1.85825
1.85291
1.8475
1.842
1.83643
1.83079
1.82508
1.81931
1.81348
1.80761
1.80169
1.79574
1.78975
1.78373
1.77769
1.77164
1.76557
1.75951
1.75344
1.74739
1.74135
1.73533
1.72934
1.72339
1.71748
1.71161
1.7058
1.70005
1.69436
1.68875
1.68323
1.67778
1.67243
1.66718
1.66204
1.65701
1.65209
1.6473
1.64264
1.63812
1.63373
1.6295
1.62542
1.62149
1.61773
1.61413
1.61071
1.60747
1.6044
1.60152
1.59883
1.59633
1.59403
1.59193
1.59003
1.58833
1.58684
1.58556
1.58449
1.58363
1.58299
1.58256
1.58234
1.58234
1.58255
1.58298
1.58362
1.58448
1.58554
1.58682
1.58831
1.59
1.5919
1.594
1.5963
1.59879
1.60148
1.60436
1.60742
1.61066
1.61408
1.61767
1.62143
1.62536
1.62944
1.63367
1.63805
1.64257
1.64723
1.65201
1.65693
1.66196
1.6671
1.67235
1.67769
1.68313
1.68866
1.69427
1.69995
1.7057
1.71151
1.71737
1.72328
1.72923
1.73522
1.74124
1.74727
1.75333
1.75939
1.76545
1.77151
1.77757
1.7836
1.78962
1.79561
1.80156
1.80748
1.81335
1.81917
1.82494
1.83064
1.83629
1.84186
1.84735
1.85277
1.8581
1.86334
1.86849
1.87354
1.87848
1.88332
1.88805
1.89267
1.89717
1.90155
1.90581
1.90993
1.91393
1.91779
1.92152
1.92511
1.92855
1.93185
1.93501
1.93801
1.94087
1.94357
1.94612
1.94851
1.95074
1.95281
1.95472
1.95647
1.95806
1.95948
1.96073
1.96182
1.96274
1.96349
1.96408
1.96449
1.96474
1.96483
1.96606
1.96597
1.96572
1.96531
1.96472
1.96396
1.96304
1.96195
1.96069
1.95926
1.95767
1.95592
1.954
1.95192
1.94968
1.94728
1.94472
1.942
1.93914
1.93612
1.93295
1.92963
1.92617
1.92256
1.91882
1.91494
1.91092
1.90677
1.9025
1.8981
1.89357
1.88893
1.88418
1.87931
1.87433
1.86926
1.86408
1.85881
1.85345
1.848
1.84248
1.83687
1.8312
1.82546
1.81965
1.8138
1.80789
1.80193
1.79594
1.78991
1.78386
1.77778
1.77169
1.76559
1.75948
1.75338
1.74728
1.7412
1.73514
1.72911
1.72312
1.71716
1.71126
1.7054
1.69961
1.69388
1.68823
1.68266
1.67718
1.67179
1.6665
1.66131
1.65624
1.65129
1.64646
1.64176
1.6372
1.63278
1.62851
1.6244
1.62044
1.61664
1.61302
1.60957
1.60629
1.6032
1.6003
1.59758
1.59507
1.59274
1.59062
1.5887
1.58699
1.58549
1.5842
1.58312
1.58225
1.5816
1.58117
1.58095
1.58095
1.58116
1.58159
1.58224
1.5831
1.58418
1.58547
1.58697
1.58868
1.59059
1.59271
1.59503
1.59755
1.60026
1.60316
1.60625
1.60952
1.61297
1.61659
1.62038
1.62433
1.62845
1.63272
1.63713
1.64169
1.64638
1.65121
1.65616
1.66123
1.66641
1.6717
1.67709
1.68257
1.68814
1.69379
1.69951
1.7053
1.71115
1.71706
1.72301
1.72901
1.73503
1.74109
1.74717
1.75326
1.75936
1.76547
1.77157
1.77766
1.78373
1.78979
1.79581
1.8018
1.80775
1.81366
1.81952
1.82532
1.83106
1.83673
1.84233
1.84786
1.8533
1.85866
1.86393
1.86911
1.87418
1.87915
1.88402
1.88877
1.89341
1.89794
1.90234
1.90661
1.91076
1.91478
1.91866
1.9224
1.926
1.92946
1.93278
1.93595
1.93897
1.94184
1.94455
1.94711
1.94951
1.95175
1.95383
1.95575
1.95751
1.9591
1.96053
1.96178
1.96288
1.9638
1.96456
1.96515
1.96556
1.96581
1.9659
1.9673
1.96721
1.96696
1.96655
1.96596
1.9652
1.96427
1.96317
1.9619
1.96047
1.95887
1.95711
1.95518
1.95309
1.95084
1.94842
1.94585
1.94313
1.94024
1.93721
1.93402
1.93069
1.92721
1.92358
1.91982
1.91592
1.91188
1.90771
1.90341
1.89898
1.89443
1.88976
1.88498
1.88009
1.87508
1.86997
1.86477
1.85946
1.85407
1.84859
1.84303
1.83739
1.83168
1.8259
1.82006
1.81416
1.80821
1.80221
1.79618
1.79011
1.78401
1.77789
1.77175
1.76561
1.75945
1.7533
1.74716
1.74104
1.73493
1.72885
1.72281
1.7168
1.71085
1.70495
1.6991
1.69333
1.68763
1.68201
1.67648
1.67104
1.6657
1.66047
1.65536
1.65036
1.64548
1.64074
1.63614
1.63168
1.62737
1.62321
1.61922
1.61539
1.61173
1.60824
1.60494
1.60181
1.59888
1.59614
1.5936
1.59125
1.58911
1.58717
1.58544
1.58392
1.58262
1.58153
1.58065
1.58
1.57956
1.57934
1.57934
1.57955
1.57999
1.58064
1.58152
1.5826
1.58391
1.58542
1.58715
1.58908
1.59122
1.59356
1.5961
1.59884
1.60177
1.60489
1.60819
1.61167
1.61533
1.61916
1.62315
1.62731
1.63161
1.63607
1.64067
1.64541
1.65028
1.65528
1.66039
1.66562
1.67096
1.67639
1.68192
1.68754
1.69323
1.69901
1.70485
1.71075
1.7167
1.7227
1.72874
1.73482
1.74092
1.74705
1.75319
1.75934
1.76549
1.77163
1.77777
1.78389
1.78998
1.79605
1.80208
1.80808
1.81402
1.81992
1.82576
1.83153
1.83724
1.84288
1.84844
1.85392
1.85932
1.86462
1.86982
1.87493
1.87993
1.88483
1.88961
1.89427
1.89882
1.90325
1.90755
1.91172
1.91575
1.91966
1.92342
1.92704
1.93052
1.93386
1.93704
1.94008
1.94296
1.94569
1.94826
1.95067
1.95292
1.95501
1.95694
1.95871
1.96031
1.96174
1.963
1.9641
1.96503
1.96579
1.96638
1.9668
1.96705
1.96714
1.96871
1.96862
1.96837
1.96795
1.96736
1.96659
1.96566
1.96456
1.96328
1.96184
1.96024
1.95846
1.95652
1.95442
1.95215
1.94973
1.94714
1.9444
1.9415
1.93845
1.93524
1.93189
1.92839
1.92474
1.92096
1.91703
1.91297
1.90877
1.90444
1.89999
1.89541
1.89071
1.8859
1.88097
1.87593
1.87079
1.86555
1.86021
1.85478
1.84926
1.84365
1.83797
1.83222
1.8264
1.82051
1.81457
1.80858
1.80254
1.79645
1.79033
1.78419
1.77802
1.77183
1.76563
1.75943
1.75322
1.74703
1.74085
1.73469
1.72855
1.72245
1.7164
1.71038
1.70443
1.69853
1.6927
1.68695
1.68127
1.67569
1.6702
1.6648
1.65952
1.65435
1.6493
1.64438
1.63959
1.63493
1.63043
1.62607
1.62187
1.61783
1.61396
1.61026
1.60673
1.60339
1.60024
1.59727
1.5945
1.59193
1.58955
1.58739
1.58543
1.58368
1.58214
1.58082
1.57972
1.57883
1.57817
1.57773
1.5775
1.5775
1.57772
1.57816
1.57882
1.57971
1.58081
1.58212
1.58366
1.5854
1.58736
1.58952
1.59189
1.59446
1.59723
1.60019
1.60334
1.60668
1.6102
1.6139
1.61777
1.62181
1.62601
1.63036
1.63487
1.63951
1.6443
1.64922
1.65427
1.65944
1.66472
1.67011
1.6756
1.68118
1.68685
1.69261
1.69843
1.70433
1.71028
1.71629
1.72235
1.72844
1.73457
1.74073
1.74691
1.7531
1.75931
1.76551
1.7717
1.77789
1.78406
1.79021
1.79632
1.8024
1.80844
1.81443
1.82038
1.82626
1.83208
1.83783
1.84351
1.84911
1.85463
1.86006
1.8654
1.87064
1.87578
1.88082
1.88574
1.89056
1.89525
1.89983
1.90428
1.90861
1.9128
1.91687
1.92079
1.92458
1.92822
1.93172
1.93508
1.93828
1.94133
1.94423
1.94697
1.94956
1.95199
1.95425
1.95635
1.95829
1.96007
1.96168
1.96312
1.96439
1.96549
1.96643
1.96719
1.96779
1.96821
1.96846
1.96855
1.97029
1.9702
1.96995
1.96953
1.96893
1.96816
1.96722
1.96611
1.96483
1.96338
1.96176
1.95998
1.95803
1.95591
1.95363
1.95119
1.94859
1.94583
1.94291
1.93984
1.93661
1.93324
1.92971
1.92604
1.92223
1.91828
1.91419
1.90996
1.9056
1.90112
1.89651
1.89178
1.88693
1.88196
1.87689
1.87171
1.86642
1.86104
1.85557
1.85001
1.84436
1.83863
1.83283
1.82696
1.82103
1.81504
1.80899
1.8029
1.79676
1.79059
1.78439
1.77816
1.77191
1.76566
1.75939
1.75313
1.74688
1.74064
1.73441
1.72822
1.72206
1.71594
1.70987
1.70385
1.69789
1.692
1.68618
1.68045
1.6748
1.66925
1.6638
1.65845
1.65322
1.64812
1.64314
1.63829
1.63358
1.62902
1.62461
1.62036
1.61627
1.61235
1.60861
1.60504
1.60166
1.59846
1.59546
1.59265
1.59005
1.58765
1.58545
1.58347
1.5817
1.58014
1.57881
1.57769
1.57679
1.57612
1.57567
1.57544
1.57544
1.57566
1.57611
1.57678
1.57767
1.57879
1.58012
1.58167
1.58344
1.58542
1.58761
1.59001
1.59262
1.59542
1.59842
1.60161
1.60499
1.60856
1.6123
1.61622
1.6203
1.62455
1.62896
1.63351
1.63822
1.64306
1.64804
1.65314
1.65837
1.66371
1.66916
1.67471
1.68035
1.68609
1.6919
1.69779
1.70375
1.70976
1.71583
1.72195
1.72811
1.7343
1.74052
1.74676
1.75301
1.75927
1.76553
1.77179
1.77803
1.78426
1.79046
1.79663
1.80276
1.80885
1.8149
1.82089
1.82682
1.83269
1.83849
1.84421
1.84986
1.85542
1.86089
1.86627
1.87155
1.87673
1.88181
1.88677
1.89162
1.89635
1.90096
1.90544
1.9098
1.91402
1.91811
1.92207
1.92588
1.92955
1.93307
1.93645
1.93967
1.94274
1.94566
1.94842
1.95102
1.95346
1.95574
1.95786
1.95981
1.96159
1.96321
1.96466
1.96594
1.96705
1.96799
1.96876
1.96936
1.96978
1.97003
1.97013
1.97204
1.97195
1.9717
1.97127
1.97067
1.9699
1.96895
1.96783
1.96654
1.96508
1.96345
1.96166
1.95969
1.95756
1.95527
1.95281
1.95019
1.94741
1.94447
1.94138
1.93813
1.93473
1.93118
1.92748
1.92364
1.91966
1.91554
1.91128
1.90689
1.90237
1.89773
1.89296
1.88807
1.88306
1.87795
1.87272
1.8674
1.86197
1.85645
1.85084
1.84514
1.83937
1.83351
1.82759
1.8216
1.81555
1.80945
1.8033
1.7971
1.79087
1.78461
1.77832
1.77201
1.76569
1.75936
1.75303
1.74671
1.7404
1.73412
1.72785
1.72163
1.71544
1.70929
1.70321
1.69718
1.69122
1.68533
1.67953
1.67382
1.66819
1.66268
1.65727
1.65197
1.6468
1.64176
1.63685
1.63208
1.62746
1.623
1.61869
1.61455
1.61057
1.60678
1.60316
1.59973
1.5965
1.59345
1.59061
1.58797
1.58553
1.58331
1.58129
1.5795
1.57792
1.57657
1.57543
1.57452
1.57384
1.57338
1.57315
1.57315
1.57338
1.57383
1.57451
1.57542
1.57655
1.5779
1.57947
1.58127
1.58328
1.5855
1.58793
1.59057
1.59341
1.59645
1.59969
1.60311
1.60673
1.61052
1.61449
1.61863
1.62293
1.6274
1.63201
1.63678
1.64168
1.64672
1.65189
1.65718
1.66259
1.66811
1.67373
1.67944
1.68524
1.69112
1.69708
1.70311
1.70919
1.71533
1.72152
1.72774
1.734
1.74029
1.7466
1.75292
1.75924
1.76557
1.77189
1.77819
1.78448
1.79074
1.79697
1.80316
1.80931
1.81542
1.82146
1.82745
1.83337
1.83922
1.845
1.85069
1.8563
1.86182
1.86725
1.87257
1.87779
1.88291
1.88791
1.8928
1.89757
1.90221
1.90673
1.91112
1.91538
1.9195
1.92348
1.92732
1.93101
1.93456
1.93796
1.94121
1.9443
1.94724
1.95002
1.95264
1.9551
1.95739
1.95952
1.96149
1.96329
1.96491
1.96637
1.96766
1.96878
1.96973
1.9705
1.9711
1.97153
1.97178
1.97187
1.97396
1.97387
1.97362
1.97318
1.97258
1.9718
1.97085
1.96972
1.96842
1.96695
1.96531
1.9635
1.96152
1.95938
1.95707
1.95459
1.95195
1.94915
1.94619
1.94307
1.9398
1.93637
1.93279
1.92907
1.9252
1.92118
1.91703
1.91273
1.90831
1.90375
1.89906
1.89425
1.88932
1.88427
1.87911
1.87384
1.86847
1.86299
1.85742
1.85176
1.84601
1.84017
1.83426
1.82828
1.82223
1.81612
1.80996
1.80374
1.79748
1.79119
1.78485
1.7785
1.77212
1.76573
1.75933
1.75293
1.74654
1.74015
1.73379
1.72745
1.72115
1.71489
1.70867
1.7025
1.6964
1.69036
1.6844
1.67852
1.67273
1.66704
1.66145
1.65597
1.6506
1.64536
1.64024
1.63527
1.63043
1.62575
1.62122
1.61685
1.61265
1.60862
1.60477
1.6011
1.59762
1.59433
1.59124
1.58835
1.58567
1.5832
1.58094
1.5789
1.57708
1.57547
1.5741
1.57295
1.57202
1.57133
1.57087
1.57063
1.57063
1.57086
1.57132
1.57201
1.57293
1.57408
1.57545
1.57705
1.57887
1.58091
1.58317
1.58564
1.58831
1.5912
1.59429
1.59757
1.60105
1.60471
1.60856
1.61259
1.61679
1.62115
1.62568
1.63036
1.63519
1.64017
1.64528
1.65052
1.65588
1.66136
1.66695
1.67264
1.67843
1.68431
1.69027
1.6963
1.7024
1.70856
1.71478
1.72104
1.72734
1.73368
1.74004
1.74642
1.75281
1.75921
1.76561
1.77199
1.77837
1.78473
1.79105
1.79735
1.80361
1.80982
1.81599
1.82209
1.82814
1.83412
1.84003
1.84586
1.85161
1.85727
1.86284
1.86832
1.87369
1.87896
1.88412
1.88916
1.89409
1.8989
1.90359
1.90815
1.91257
1.91686
1.92102
1.92503
1.9289
1.93263
1.9362
1.93963
1.9429
1.94602
1.94898
1.95178
1.95442
1.95689
1.95921
1.96135
1.96333
1.96514
1.96678
1.96825
1.96955
1.97068
1.97163
1.97241
1.97301
1.97344
1.9737
1.97379
1.97606
1.97596
1.97571
1.97527
1.97466
1.97388
1.97292
1.97178
1.97047
1.96899
1.96734
1.96551
1.96352
1.96136
1.95903
1.95653
1.95387
1.95104
1.94806
1.94492
1.94162
1.93816
1.93455
1.9308
1.92689
1.92284
1.91865
1.91432
1.90985
1.90525
1.90053
1.89567
1.89069
1.8856
1.88039
1.87507
1.86964
1.86411
1.85848
1.85276
1.84695
1.84106
1.83509
1.82904
1.82293
1.81675
1.81052
1.80423
1.7979
1.79153
1.78513
1.7787
1.77224
1.76577
1.7593
1.75282
1.74635
1.73988
1.73344
1.72702
1.72063
1.71429
1.70799
1.70174
1.69555
1.68943
1.68339
1.67743
1.67156
1.66578
1.66011
1.65455
1.6491
1.64378
1.63859
1.63354
1.62863
1.62388
1.61928
1.61484
1.61057
1.60648
1.60257
1.59884
1.5953
1.59196
1.58882
1.58589
1.58316
1.58065
1.57836
1.57628
1.57443
1.5728
1.5714
1.57023
1.56929
1.56859
1.56812
1.56788
1.56788
1.56811
1.56858
1.56928
1.57022
1.57138
1.57278
1.5744
1.57625
1.57833
1.58062
1.58313
1.58585
1.58878
1.59192
1.59526
1.59879
1.60251
1.60642
1.61051
1.61478
1.61921
1.62381
1.62856
1.63347
1.63852
1.6437
1.64902
1.65446
1.66002
1.66569
1.67147
1.67734
1.6833
1.68934
1.69545
1.70164
1.70788
1.71418
1.72053
1.72691
1.73333
1.73977
1.74623
1.7527
1.75918
1.76565
1.77212
1.77857
1.785
1.7914
1.79777
1.8041
1.81038
1.81661
1.82279
1.8289
1.83494
1.84091
1.8468
1.85261
1.85833
1.86396
1.86949
1.87491
1.88023
1.88544
1.89054
1.89551
1.90036
1.90509
1.90969
1.91416
1.91849
1.92268
1.92673
1.93063
1.93439
1.93799
1.94145
1.94475
1.94789
1.95087
1.9537
1.95636
1.95885
1.96118
1.96335
1.96534
1.96717
1.96882
1.9703
1.97161
1.97274
1.97371
1.97449
1.9751
1.97553
1.97579
1.97588
1.97832
1.97823
1.97797
1.97753
1.97692
1.97612
1.97516
1.97401
1.97269
1.9712
1.96953
1.96769
1.96568
1.9635
1.96115
1.95863
1.95595
1.9531
1.95009
1.94692
1.94359
1.9401
1.93646
1.93267
1.92873
1.92464
1.92041
1.91604
1.91153
1.90689
1.90211
1.89721
1.89218
1.88703
1.88177
1.87639
1.87091
1.86532
1.85963
1.85385
1.84798
1.84202
1.83598
1.82987
1.82368
1.81743
1.81113
1.80477
1.79836
1.79191
1.78543
1.77891
1.77238
1.76583
1.75927
1.7527
1.74614
1.73959
1.73306
1.72655
1.72008
1.71364
1.70725
1.70091
1.69464
1.68843
1.6823
1.67624
1.67028
1.66442
1.65866
1.65301
1.64748
1.64207
1.6368
1.63167
1.62668
1.62184
1.61717
1.61266
1.60832
1.60416
1.60018
1.59639
1.59279
1.58939
1.5862
1.58321
1.58044
1.57788
1.57555
1.57344
1.57155
1.56989
1.56847
1.56728
1.56632
1.56561
1.56513
1.56488
1.56488
1.56512
1.5656
1.56631
1.56726
1.56845
1.56987
1.57153
1.57341
1.57552
1.57785
1.5804
1.58317
1.58616
1.58935
1.59274
1.59634
1.60012
1.6041
1.60826
1.61259
1.6171
1.62178
1.62661
1.63159
1.63672
1.64199
1.6474
1.65293
1.65857
1.66433
1.67019
1.67615
1.6822
1.68833
1.69454
1.70081
1.70715
1.71354
1.71997
1.72644
1.73295
1.73948
1.74602
1.75258
1.75914
1.7657
1.77225
1.77879
1.7853
1.79178
1.79823
1.80463
1.81099
1.8173
1.82354
1.82972
1.83584
1.84187
1.84783
1.8537
1.85948
1.86517
1.87076
1.87624
1.88162
1.88688
1.89202
1.89705
1.90195
1.90672
1.91137
1.91588
1.92025
1.92448
1.92856
1.9325
1.93629
1.93993
1.94342
1.94675
1.94992
1.95293
1.95578
1.95846
1.96098
1.96333
1.96551
1.96752
1.96936
1.97103
1.97252
1.97384
1.97498
1.97595
1.97674
1.97736
1.9778
1.97805
1.97815
1.98076
1.98067
1.98041
1.97997
1.97935
1.97855
1.97757
1.97642
1.97508
1.97358
1.9719
1.97004
1.96801
1.96581
1.96344
1.9609
1.95819
1.95531
1.95228
1.94907
1.94571
1.94219
1.93852
1.93469
1.93071
1.92658
1.92231
1.91789
1.91334
1.90865
1.90382
1.89887
1.89379
1.88859
1.88327
1.87783
1.87228
1.86663
1.86088
1.85503
1.84909
1.84306
1.83695
1.83076
1.8245
1.81817
1.81179
1.80535
1.79886
1.79233
1.78576
1.77916
1.77253
1.76589
1.75924
1.75258
1.74593
1.73929
1.73266
1.72606
1.71948
1.71295
1.70646
1.70003
1.69365
1.68735
1.68112
1.67497
1.66891
1.66295
1.65709
1.65135
1.64573
1.64023
1.63487
1.62964
1.62457
1.61965
1.61489
1.6103
1.60588
1.60165
1.5976
1.59374
1.59007
1.58661
1.58336
1.58032
1.5775
1.57489
1.57251
1.57036
1.56844
1.56675
1.5653
1.56409
1.56311
1.56238
1.56189
1.56165
1.56164
1.56189
1.56237
1.5631
1.56407
1.56528
1.56673
1.56841
1.57033
1.57248
1.57486
1.57746
1.58028
1.58332
1.58657
1.59003
1.59369
1.59754
1.60159
1.60582
1.61024
1.61483
1.61958
1.6245
1.62957
1.63479
1.64015
1.64565
1.65127
1.65701
1.66286
1.66882
1.67487
1.68102
1.68725
1.69355
1.69992
1.70636
1.71284
1.71937
1.72594
1.73254
1.73917
1.74581
1.75246
1.75912
1.76577
1.7724
1.77903
1.78562
1.79219
1.79872
1.80521
1.81165
1.81804
1.82436
1.83062
1.8368
1.84291
1.84894
1.85488
1.86073
1.86648
1.87213
1.87768
1.88311
1.88843
1.89363
1.89871
1.90366
1.90849
1.91318
1.91773
1.92215
1.92642
1.93054
1.93452
1.93835
1.94203
1.94554
1.9489
1.9521
1.95514
1.95802
1.96072
1.96326
1.96564
1.96784
1.96987
1.97172
1.97341
1.97491
1.97624
1.9774
1.97837
1.97917
1.97979
1.98023
1.98049
1.98059
1.98338
1.98328
1.98302
1.98258
1.98195
1.98114
1.98016
1.97899
1.97765
1.97613
1.97443
1.97256
1.97051
1.96829
1.96589
1.96333
1.96059
1.95769
1.95462
1.95139
1.94799
1.94444
1.94073
1.93686
1.93284
1.92867
1.92435
1.91989
1.91528
1.91054
1.90566
1.90065
1.89552
1.89025
1.88487
1.87937
1.87376
1.86804
1.86222
1.8563
1.85029
1.84418
1.83799
1.83173
1.82538
1.81898
1.8125
1.80598
1.7994
1.79278
1.78611
1.77942
1.7727
1.76596
1.75921
1.75246
1.7457
1.73896
1.73223
1.72552
1.71885
1.71221
1.70562
1.69908
1.6926
1.68619
1.67985
1.6736
1.66744
1.66137
1.65541
1.64957
1.64385
1.63825
1.63279
1.62747
1.6223
1.61729
1.61245
1.60777
1.60327
1.59895
1.59482
1.59089
1.58715
1.58363
1.58031
1.57721
1.57433
1.57167
1.56924
1.56705
1.56509
1.56337
1.56189
1.56065
1.55965
1.55891
1.55841
1.55816
1.55816
1.5584
1.5589
1.55964
1.56063
1.56187
1.56335
1.56506
1.56702
1.56921
1.57164
1.57429
1.57717
1.58027
1.58358
1.58711
1.59084
1.59477
1.59889
1.60321
1.60771
1.61238
1.61723
1.62223
1.6274
1.63271
1.63817
1.64377
1.64949
1.65533
1.66128
1.66735
1.67351
1.67976
1.68609
1.6925
1.69898
1.70551
1.7121
1.71874
1.72541
1.73212
1.73884
1.74558
1.75234
1.75909
1.76584
1.77257
1.77929
1.78598
1.79264
1.79926
1.80584
1.81237
1.81884
1.82524
1.83158
1.83785
1.84403
1.85014
1.85615
1.86207
1.86789
1.87361
1.87922
1.88472
1.8901
1.89536
1.90049
1.9055
1.91038
1.91512
1.91972
1.92418
1.9285
1.93267
1.93669
1.94056
1.94427
1.94782
1.95122
1.95445
1.95752
1.96042
1.96315
1.96572
1.96811
1.97034
1.97238
1.97426
1.97596
1.97748
1.97882
1.97999
1.98097
1.98178
1.9824
1.98285
1.98311
1.9832
1.98618
1.98608
1.98581
1.98537
1.98473
1.98392
1.98292
1.98175
1.98039
1.97886
1.97714
1.97525
1.97318
1.97094
1.96852
1.96593
1.96316
1.96023
1.95713
1.95386
1.95043
1.94684
1.94309
1.93918
1.93512
1.9309
1.92653
1.92202
1.91736
1.91257
1.90763
1.90257
1.89737
1.89204
1.88659
1.88103
1.87535
1.86956
1.86366
1.85766
1.85157
1.84539
1.83912
1.83276
1.82634
1.81984
1.81328
1.80666
1.79998
1.79326
1.7865
1.77971
1.77289
1.76605
1.75919
1.75233
1.74547
1.73862
1.73178
1.72496
1.71818
1.71143
1.70472
1.69807
1.69148
1.68495
1.6785
1.67214
1.66586
1.65969
1.65362
1.64767
1.64184
1.63613
1.63057
1.62515
1.61988
1.61477
1.60983
1.60506
1.60047
1.59606
1.59185
1.58783
1.58402
1.58042
1.57704
1.57387
1.57093
1.56822
1.56574
1.5635
1.5615
1.55974
1.55822
1.55696
1.55595
1.55518
1.55467
1.55442
1.55442
1.55467
1.55518
1.55594
1.55695
1.55821
1.55972
1.56147
1.56347
1.56571
1.56819
1.57089
1.57383
1.57699
1.58038
1.58398
1.58778
1.59179
1.596
1.60041
1.60499
1.60976
1.6147
1.61981
1.62507
1.63049
1.63605
1.64175
1.64758
1.65353
1.6596
1.66577
1.67204
1.67841
1.68485
1.69138
1.69797
1.70461
1.71132
1.71806
1.72485
1.73166
1.7385
1.74535
1.75221
1.75907
1.76592
1.77276
1.77958
1.78637
1.79313
1.79985
1.80652
1.81314
1.8197
1.82619
1.83262
1.83897
1.84524
1.85142
1.85751
1.86351
1.86941
1.87519
1.88087
1.88644
1.89188
1.89721
1.9024
1.90747
1.9124
1.9172
1.92186
1.92637
1.93073
1.93495
1.93901
1.94292
1.94667
1.95026
1.95369
1.95696
1.96006
1.96299
1.96575
1.96834
1.97076
1.97301
1.97507
1.97697
1.97868
1.98022
1.98157
1.98275
1.98374
1.98456
1.98519
1.98564
1.9859
1.986
1.98915
1.98905
1.98879
1.98833
1.9877
1.98687
1.98587
1.98468
1.98331
1.98176
1.98003
1.97811
1.97602
1.97376
1.97131
1.96869
1.9659
1.96294
1.9598
1.9565
1.95303
1.9494
1.94561
1.94165
1.93754
1.93328
1.92886
1.9243
1.91958
1.91473
1.90974
1.9046
1.89934
1.89395
1.88843
1.8828
1.87704
1.87118
1.8652
1.85912
1.85295
1.84668
1.84032
1.83388
1.82736
1.82076
1.8141
1.80739
1.80061
1.79379
1.78692
1.78002
1.77309
1.76614
1.75918
1.7522
1.74523
1.73826
1.7313
1.72437
1.71746
1.7106
1.70377
1.697
1.69028
1.68364
1.67707
1.67059
1.66419
1.6579
1.65171
1.64564
1.63969
1.63388
1.6282
1.62267
1.61729
1.61208
1.60703
1.60216
1.59747
1.59297
1.58867
1.58457
1.58068