/*--------------------------------*- C++ -*----------------------------------*\
| =========                 |                                                 |
| \\      /  F ield         | OpenFOAM: The Open Source CFD Toolbox           |
|  \\    /   O peration     | Version:  2412                                  |
|   \\  /    A nd           | Website:  www.openfoam.com                      |
|    \\/     M anipulation  |                                                 |
\*---------------------------------------------------------------------------*/
FoamFile
{
    version     2.0;
    format      ascii;
    arch        "LSB;label=32;scalar=64";
    class       surfaceScalarField;
    location    "1.09";
    object      phi;
}
// * * * * * * * * * * * * * * * * * * * * * * * * * * * * * * * * * * * * * //

dimensions      [0 3 -1 0 0 0 0];

oriented        oriented;

internalField   nonuniform List<scalar> 
79600
(
2.03158e-11
-2.03202e-11
4.15526e-11
-2.1237e-11
6.69077e-11
-2.53553e-11
9.41395e-11
-2.72322e-11
1.22249e-10
-2.81103e-11
1.50501e-10
-2.82523e-11
1.78608e-10
-2.81079e-11
2.06496e-10
-2.78878e-11
2.34128e-10
-2.76321e-11
2.6151e-10
-2.73821e-11
2.88646e-10
-2.71359e-11
3.1553e-10
-2.68836e-11
3.42156e-10
-2.66247e-11
3.68514e-10
-2.63571e-11
3.94592e-10
-2.60779e-11
4.20377e-10
-2.57849e-11
4.45854e-10
-2.54757e-11
4.71004e-10
-2.51499e-11
4.95812e-10
-2.48069e-11
5.20258e-10
-2.44459e-11
5.44325e-10
-2.40661e-11
5.67993e-10
-2.36673e-11
5.91242e-10
-2.32488e-11
6.14053e-10
-2.28105e-11
6.36405e-10
-2.2352e-11
6.58279e-10
-2.18734e-11
6.79654e-10
-2.13745e-11
7.0051e-10
-2.08556e-11
7.20827e-10
-2.03168e-11
7.40584e-10
-1.97579e-11
7.59762e-10
-1.91787e-11
7.78341e-10
-1.8579e-11
7.96299e-10
-1.79584e-11
8.13617e-10
-1.73171e-11
8.30272e-10
-1.66552e-11
8.46245e-10
-1.59731e-11
8.61515e-10
-1.52707e-11
8.76062e-10
-1.4548e-11
8.89866e-10
-1.38049e-11
9.02907e-10
-1.30412e-11
9.15163e-10
-1.2257e-11
9.26616e-10
-1.14529e-11
9.37245e-10
-1.0629e-11
9.4703e-10
-9.7858e-12
9.55953e-10
-8.92372e-12
9.63995e-10
-8.04322e-12
9.7114e-10
-7.1449e-12
9.77369e-10
-6.22951e-12
9.82665e-10
-5.29785e-12
9.87015e-10
-4.35066e-12
9.90402e-10
-3.38856e-12
9.92813e-10
-2.41201e-12
9.94234e-10
-1.42125e-12
9.94649e-10
-4.15645e-13
9.94047e-10
6.026e-13
9.92418e-10
1.62851e-12
9.89756e-10
2.66189e-12
9.86054e-10
3.70251e-12
9.81304e-10
4.75012e-12
9.75501e-10
5.80362e-12
9.68639e-10
6.86178e-12
9.60716e-10
7.92331e-12
9.51728e-10
8.98697e-12
9.41677e-10
1.00515e-11
9.30561e-10
1.11153e-11
9.18385e-10
1.21769e-11
9.05151e-10
1.32342e-11
8.90865e-10
1.42855e-11
8.75535e-10
1.53292e-11
8.5917e-10
1.63636e-11
8.41783e-10
1.73874e-11
8.23384e-10
1.83991e-11
8.03988e-10
1.93968e-11
7.8361e-10
2.03788e-11
7.62268e-10
2.13433e-11
7.3998e-10
2.22886e-11
7.16767e-10
2.3213e-11
6.92652e-10
2.41149e-11
6.67659e-10
2.49924e-11
6.41814e-10
2.58439e-11
6.15146e-10
2.66676e-11
5.87684e-10
2.74618e-11
5.59459e-10
2.82247e-11
5.30504e-10
2.89545e-11
5.00853e-10
2.96498e-11
4.70544e-10
3.0309e-11
4.39613e-10
3.0931e-11
4.08099e-10
3.15144e-11
3.76042e-10
3.20579e-11
3.43483e-10
3.25601e-11
3.10464e-10
3.30199e-11
2.77027e-10
3.34364e-11
2.43218e-10
3.3809e-11
2.09082e-10
3.41366e-11
1.74662e-10
3.44185e-11
1.40007e-10
3.46545e-11
1.05163e-10
3.4844e-11
7.01763e-11
3.49865e-11
3.50945e-11
3.50817e-11
-3.41336e-14
3.51287e-11
-3.51628e-11
3.51287e-11
-7.0245e-11
3.50819e-11
-1.05232e-10
3.4987e-11
-1.40077e-10
3.48447e-11
-1.74733e-10
3.46553e-11
-2.09153e-10
3.44191e-11
-2.43291e-10
3.41368e-11
-2.77101e-10
3.38092e-11
-3.10539e-10
3.34371e-11
-3.43559e-10
3.3021e-11
-3.76121e-10
3.25618e-11
-4.08182e-10
3.20607e-11
-4.39699e-10
3.15182e-11
-4.70634e-10
3.09354e-11
-5.00949e-10
3.03138e-11
-5.30604e-10
2.96545e-11
-5.59564e-10
2.89592e-11
-5.87794e-10
2.82298e-11
-6.15261e-10
2.74673e-11
-6.41935e-10
2.66735e-11
-6.67785e-10
2.58506e-11
-6.92784e-10
2.49997e-11
-7.16905e-10
2.41226e-11
-7.40126e-10
2.32212e-11
-7.62422e-10
2.22972e-11
-7.83774e-10
2.13523e-11
-8.04162e-10
2.03883e-11
-8.23569e-10
1.94068e-11
-8.41979e-10
1.84096e-11
-8.59378e-10
1.73988e-11
-8.75752e-10
1.63757e-11
-8.91093e-10
1.53415e-11
-9.05391e-10
1.42984e-11
-9.1864e-10
1.32487e-11
-9.30832e-10
1.21929e-11
-9.41965e-10
1.11328e-11
-9.52038e-10
1.00708e-11
-9.61047e-10
9.00826e-12
-9.68993e-10
7.94616e-12
-9.75878e-10
6.88568e-12
-9.81706e-10
5.82785e-12
-9.8648e-10
4.77393e-12
-9.90205e-10
3.72501e-12
-9.92886e-10
2.68166e-12
-9.94532e-10
1.64508e-12
-9.9515e-10
6.16586e-13
-9.94747e-10
-4.02995e-13
-9.93338e-10
-1.40927e-12
-9.90938e-10
-2.39958e-12
-9.87564e-10
-3.37459e-12
-9.83231e-10
-4.33362e-12
-9.77954e-10
-5.27657e-12
-9.7175e-10
-6.20378e-12
-9.64636e-10
-7.11488e-12
-9.56627e-10
-8.00916e-12
-9.47741e-10
-8.88635e-12
-9.37995e-10
-9.74643e-12
-9.27405e-10
-1.05895e-11
-9.15991e-10
-1.14138e-11
-9.03771e-10
-1.22187e-11
-8.90766e-10
-1.30041e-11
-8.76997e-10
-1.37696e-11
-8.62483e-10
-1.45137e-11
-8.47248e-10
-1.52356e-11
-8.31313e-10
-1.59359e-11
-8.14697e-10
-1.66152e-11
-7.97422e-10
-1.72741e-11
-7.7951e-10
-1.79126e-11
-7.6098e-10
-1.85309e-11
-7.41852e-10
-1.9129e-11
-7.22144e-10
-1.97078e-11
-7.01878e-10
-2.02672e-11
-6.81072e-10
-2.08048e-11
-6.59753e-10
-2.13189e-11
-6.37944e-10
-2.18086e-11
-6.15669e-10
-2.22756e-11
-5.92947e-10
-2.27219e-11
-5.69797e-10
-2.31501e-11
-5.46237e-10
-2.35615e-11
-5.2228e-10
-2.39552e-11
-4.97948e-10
-2.43313e-11
-4.73263e-10
-2.46873e-11
-4.48243e-10
-2.50206e-11
-4.22914e-10
-2.5331e-11
-3.97295e-10
-2.56181e-11
-3.71409e-10
-2.5884e-11
-3.45276e-10
-2.61324e-11
-3.18912e-10
-2.63644e-11
-2.92332e-10
-2.65808e-11
-2.6555e-10
-2.67818e-11
-2.38586e-10
-2.69635e-11
-2.11462e-10
-2.71237e-11
-1.84199e-10
-2.72622e-11
-1.56819e-10
-2.7379e-11
-1.29343e-10
-2.74762e-11
-1.01794e-10
-2.755e-11
-7.42117e-11
-2.7582e-11
-4.6729e-11
-2.74837e-11
-2.01607e-11
-2.65685e-11
-2.01582e-11
3.17945e-11
-5.21151e-11
6.74718e-11
-5.69155e-11
1.01919e-10
-5.98034e-11
1.36733e-10
-6.20462e-11
1.71985e-10
-6.33617e-11
2.07564e-10
-6.38323e-11
2.43319e-10
-6.38636e-11
2.79092e-10
-6.3661e-11
3.14791e-10
-6.33307e-11
3.50341e-10
-6.29305e-11
3.85688e-10
-6.24815e-11
4.20794e-10
-6.19893e-11
4.55628e-10
-6.14574e-11
4.90158e-10
-6.08866e-11
5.24357e-10
-6.02761e-11
5.58198e-10
-5.96247e-11
5.91654e-10
-5.89312e-11
6.24701e-10
-5.8195e-11
6.5731e-10
-5.74155e-11
6.89457e-10
-5.65917e-11
7.21114e-10
-5.57229e-11
7.52256e-10
-5.48084e-11
7.82855e-10
-5.38476e-11
8.12885e-10
-5.284e-11
8.42319e-10
-5.17854e-11
8.7113e-10
-5.06835e-11
8.9929e-10
-4.95344e-11
9.26772e-10
-4.83381e-11
9.53549e-10
-4.70943e-11
9.79593e-10
-4.58028e-11
1.00488e-09
-4.44633e-11
1.02937e-09
-4.30756e-11
1.05306e-09
-4.16394e-11
1.07589e-09
-4.01551e-11
1.09786e-09
-3.86227e-11
1.11893e-09
-3.70426e-11
1.13907e-09
-3.54146e-11
1.15826e-09
-3.3739e-11
1.17647e-09
-3.20157e-11
1.19367e-09
-3.02451e-11
1.20984e-09
-2.84278e-11
1.22495e-09
-2.65644e-11
1.23898e-09
-2.46556e-11
1.2519e-09
-2.27021e-11
1.26368e-09
-2.07048e-11
1.2743e-09
-1.8665e-11
1.28373e-09
-1.65839e-11
1.29197e-09
-1.44632e-11
1.29897e-09
-1.23042e-11
1.30473e-09
-1.01087e-11
1.30921e-09
-7.87814e-12
1.31242e-09
-5.61427e-12
1.31431e-09
-3.31904e-12
1.31489e-09
-9.94919e-13
1.31414e-09
1.35644e-12
1.31204e-09
3.73121e-12
1.30857e-09
6.12797e-12
1.30373e-09
8.54386e-12
1.2975e-09
1.09764e-11
1.28988e-09
1.3423e-11
1.28086e-09
1.58807e-11
1.27044e-09
1.83466e-11
1.25861e-09
2.08177e-11
1.24537e-09
2.32907e-11
1.23072e-09
2.57621e-11
1.21467e-09
2.8228e-11
1.19722e-09
3.06845e-11
1.17838e-09
3.31279e-11
1.15815e-09
3.55544e-11
1.13656e-09
3.79603e-11
1.1136e-09
4.03418e-11
1.08931e-09
4.26949e-11
1.06369e-09
4.50155e-11
1.03677e-09
4.72993e-11
1.00857e-09
4.95425e-11
9.79121e-10
5.1741e-11
9.48442e-10
5.38911e-11
9.16568e-10
5.59887e-11
8.8353e-10
5.80297e-11
8.49363e-10
6.00101e-11
8.14104e-10
6.19259e-11
7.77792e-10
6.37729e-11
7.40469e-10
6.55473e-11
7.02178e-10
6.72452e-11
6.62963e-10
6.88632e-11
6.22874e-10
7.0398e-11
5.8196e-10
7.18463e-11
5.4027e-10
7.32047e-11
4.97859e-10
7.44702e-11
4.5478e-10
7.56398e-11
4.11089e-10
7.67111e-11
3.66843e-10
7.76822e-11
3.221e-10
7.8551e-11
2.7692e-10
7.93155e-11
2.31365e-10
7.99739e-11
1.85494e-10
8.05248e-11
1.3937e-10
8.09672e-11
9.30572e-11
8.12999e-11
4.66171e-11
8.15218e-11
1.12722e-13
8.16325e-11
-4.63915e-11
8.16325e-11
-9.28319e-11
8.15219e-11
-1.39146e-10
8.13e-11
-1.8527e-10
8.09676e-11
-2.31141e-10
8.05255e-11
-2.76698e-10
7.99747e-11
-3.21879e-10
7.93166e-11
-3.66623e-10
7.85528e-11
-4.1087e-10
7.7685e-11
-4.54563e-10
7.67148e-11
-4.97645e-10
7.5644e-11
-5.40059e-10
7.44752e-11
-5.81752e-10
7.32106e-11
-6.2267e-10
7.18528e-11
-6.62762e-10
7.0405e-11
-7.0198e-10
6.88707e-11
-7.40274e-10
6.72531e-11
-7.77601e-10
6.55561e-11
-8.13916e-10
6.3783e-11
-8.49178e-10
6.1937e-11
-8.83349e-10
6.00224e-11
-9.16391e-10
5.8043e-11
-9.48269e-10
5.60024e-11
-9.78952e-10
5.39049e-11
-1.00841e-09
5.17549e-11
-1.03661e-09
4.95567e-11
-1.06354e-09
4.73142e-11
-1.08916e-09
4.50314e-11
-1.11346e-09
4.27119e-11
-1.13642e-09
4.03601e-11
-1.15803e-09
3.79801e-11
-1.17826e-09
3.55751e-11
-1.19711e-09
3.3149e-11
-1.21457e-09
3.07067e-11
-1.23063e-09
2.82523e-11
-1.24529e-09
2.57886e-11
-1.25853e-09
2.33195e-11
-1.27038e-09
2.08491e-11
-1.28081e-09
1.83803e-11
-1.28984e-09
1.59157e-11
-1.29747e-09
1.34578e-11
-1.3037e-09
1.10098e-11
-1.30856e-09
8.5754e-12
-1.31203e-09
6.15701e-12
-1.31414e-09
3.75699e-12
-1.31491e-09
1.37918e-12
-1.31434e-09
-9.73028e-13
-1.31245e-09
-3.2971e-12
-1.30926e-09
-5.59111e-12
-1.30478e-09
-7.85286e-12
-1.29904e-09
-1.00801e-11
-1.29204e-09
-1.2271e-11
-1.28382e-09
-1.44247e-11
-1.2744e-09
-1.654e-11
-1.26379e-09
-1.86159e-11
-1.25202e-09
-2.06518e-11
-1.23912e-09
-2.26468e-11
-1.22511e-09
-2.45997e-11
-1.21002e-09
-2.65092e-11
-1.19386e-09
-2.83739e-11
-1.17667e-09
-3.01929e-11
-1.15848e-09
-3.19644e-11
-1.1393e-09
-3.36877e-11
-1.11918e-09
-3.53625e-11
-1.09812e-09
-3.69884e-11
-1.07617e-09
-3.85653e-11
-1.05335e-09
-4.00944e-11
-1.02969e-09
-4.15762e-11
-1.00521e-09
-4.30094e-11
-9.79948e-10
-4.4395e-11
-9.53923e-10
-4.5733e-11
-9.27166e-10
-4.70244e-11
-8.99704e-10
-4.82656e-11
-8.71565e-10
-4.94569e-11
-8.42778e-10
-5.05962e-11
-8.1337e-10
-5.16846e-11
-7.83366e-10
-5.27257e-11
-7.52794e-10
-5.37217e-11
-7.21682e-10
-5.46743e-11
-6.90054e-10
-5.55826e-11
-6.5794e-10
-5.64465e-11
-6.25364e-10
-5.72645e-11
-5.92352e-10
-5.80332e-11
-5.5893e-10
-5.87531e-11
-5.25122e-10
-5.94244e-11
-4.90956e-10
-6.00488e-11
-4.56456e-10
-6.06309e-11
-4.21649e-10
-6.11722e-11
-3.8656e-10
-6.16722e-11
-3.51211e-10
-6.21305e-11
-3.15626e-10
-6.2545e-11
-2.79835e-10
-6.2914e-11
-2.4386e-10
-6.32364e-11
-2.07726e-10
-6.35136e-11
-1.71456e-10
-6.37464e-11
-1.3507e-10
-6.39346e-11
-9.85896e-11
-6.40609e-11
-6.21042e-11
-6.397e-11
-2.65336e-11
-6.21429e-11
-4.66934e-11
2.95506e-11
-8.16659e-11
6.82437e-11
-9.56088e-11
1.05728e-10
-9.72886e-11
1.42592e-10
-9.89098e-11
1.79276e-10
-1.00046e-10
2.15953e-10
-1.00509e-10
2.52656e-10
-1.00566e-10
2.89328e-10
-1.00333e-10
3.25913e-10
-9.99148e-11
3.62357e-10
-9.93737e-11
3.98612e-10
-9.87364e-11
4.3464e-10
-9.8016e-11
4.70402e-10
-9.72199e-11
5.05868e-10
-9.63514e-11
5.41004e-10
-9.5412e-11
5.75782e-10
-9.44021e-11
6.10173e-10
-9.33215e-11
6.44149e-10
-9.21701e-11
6.77681e-10
-9.09474e-11
7.10743e-10
-8.96527e-11
7.43306e-10
-8.82853e-11
7.75342e-10
-8.68445e-11
8.06824e-10
-8.53296e-11
8.37725e-10
-8.37401e-11
8.68016e-10
-8.20758e-11
8.97669e-10
-8.03362e-11
9.26656e-10
-7.85212e-11
9.54948e-10
-7.66304e-11
9.82516e-10
-7.46637e-11
1.00933e-09
-7.26205e-11
1.03537e-09
-7.05007e-11
1.0606e-09
-6.83039e-11
1.08499e-09
-6.60303e-11
1.10852e-09
-6.36798e-11
1.13114e-09
-6.12528e-11
1.15285e-09
-5.87493e-11
1.1736e-09
-5.61696e-11
1.19338e-09
-5.35139e-11
1.21214e-09
-5.07828e-11
1.22987e-09
-4.79768e-11
1.24654e-09
-4.50969e-11
1.26212e-09
-4.21439e-11
1.27658e-09
-3.91191e-11
1.28991e-09
-3.60235e-11
1.30206e-09
-3.28585e-11
1.31302e-09
-2.96261e-11
1.32276e-09
-2.63283e-11
1.33127e-09
-2.29674e-11
1.33851e-09
-1.95456e-11
1.34446e-09
-1.60654e-11
1.34911e-09
-1.25293e-11
1.35244e-09
-8.94036e-12
1.35442e-09
-5.30187e-12
1.35504e-09
-1.61769e-12
1.35429e-09
2.10931e-12
1.35215e-09
5.87568e-12
1.3486e-09
9.67758e-12
1.34363e-09
1.35108e-11
1.33723e-09
1.7371e-11
1.3294e-09
2.12538e-11
1.32013e-09
2.51546e-11
1.30941e-09
2.90686e-11
1.29723e-09
3.29908e-11
1.28361e-09
3.69161e-11
1.26853e-09
4.08386e-11
1.25201e-09
4.47525e-11
1.23404e-09
4.86519e-11
1.21464e-09
5.25309e-11
1.19381e-09
5.63836e-11
1.17157e-09
6.02041e-11
1.14792e-09
6.3986e-11
1.12289e-09
6.77228e-11
1.0965e-09
7.14079e-11
1.06877e-09
7.5035e-11
1.03971e-09
7.85977e-11
1.00936e-09
8.20897e-11
9.7775e-10
8.55046e-11
9.44904e-10
8.8836e-11
9.10856e-10
9.20773e-11
8.75645e-10
9.52221e-11
8.39307e-10
9.82641e-11
8.01883e-10
1.01197e-10
7.63415e-10
1.04015e-10
7.23948e-10
1.06711e-10
6.83529e-10
1.09281e-10
6.42207e-10
1.11719e-10
6.00032e-10
1.1402e-10
5.57058e-10
1.16178e-10
5.13339e-10
1.18189e-10
4.6893e-10
1.20048e-10
4.23889e-10
1.21752e-10
3.78276e-10
1.23296e-10
3.32149e-10
1.24678e-10
2.85571e-10
1.25894e-10
2.38604e-10
1.26941e-10
1.91311e-10
1.27817e-10
1.43758e-10
1.28521e-10
9.60078e-11
1.2905e-10
4.81268e-11
1.29403e-10
1.7946e-13
1.2958e-10
-4.77679e-11
1.2958e-10
-9.5649e-11
1.29403e-10
-1.43399e-10
1.2905e-10
-1.90953e-10
1.28521e-10
-2.38247e-10
1.27818e-10
-2.85214e-10
1.26942e-10
-3.31793e-10
1.25896e-10
-3.77921e-10
1.24681e-10
-4.23536e-10
1.23301e-10
-4.68579e-10
1.21758e-10
-5.12989e-10
1.20055e-10
-5.56711e-10
1.18196e-10
-5.99688e-10
1.16186e-10
-6.41865e-10
1.14028e-10
-6.83189e-10
1.11728e-10
-7.2361e-10
1.09291e-10
-7.63079e-10
1.06722e-10
-8.01549e-10
1.04027e-10
-8.38976e-10
1.0121e-10
-8.75316e-10
9.82786e-11
-9.10531e-10
9.52373e-11
-9.44581e-10
9.20932e-11
-9.77431e-10
8.88524e-11
-1.00905e-09
8.55215e-11
-1.0394e-09
8.21073e-11
-1.06846e-09
7.86162e-11
-1.0962e-09
7.50546e-11
-1.12259e-09
7.14287e-11
-1.14762e-09
6.77446e-11
-1.17127e-09
6.40088e-11
-1.19352e-09
6.02281e-11
-1.21435e-09
5.6409e-11
-1.23376e-09
5.2557e-11
-1.25173e-09
4.86789e-11
-1.26826e-09
4.47814e-11
-1.28334e-09
4.08699e-11
-1.29697e-09
3.69496e-11
-1.30914e-09
3.30265e-11
-1.31987e-09
2.91059e-11
-1.32915e-09
2.51928e-11
-1.33698e-09
2.12919e-11
-1.34338e-09
1.7408e-11
-1.34835e-09
1.35462e-11
-1.35191e-09
9.71142e-12
-1.35406e-09
5.90762e-12
-1.35482e-09
2.13936e-12
-1.3542e-09
-1.58901e-12
-1.35223e-09
-5.2732e-12
-1.34891e-09
-8.91066e-12
-1.34426e-09
-1.24972e-11
-1.33831e-09
-1.60298e-11
-1.33108e-09
-1.95061e-11
-1.32258e-09
-2.29233e-11
-1.31284e-09
-2.62793e-11
-1.30188e-09
-2.95727e-11
-1.28973e-09
-3.28023e-11
-1.27641e-09
-3.59657e-11
-1.26195e-09
-3.90603e-11
-1.24638e-09
-4.20852e-11
-1.22971e-09
-4.50388e-11
-1.21198e-09
-4.79194e-11
-1.19322e-09
-5.07257e-11
-1.17345e-09
-5.34568e-11
-1.1527e-09
-5.61119e-11
-1.131e-09
-5.86898e-11
-1.10838e-09
-6.11911e-11
-1.08486e-09
-6.36156e-11
-1.06047e-09
-6.59637e-11
-1.03524e-09
-6.82343e-11
-1.00921e-09
-7.04292e-11
-9.82395e-10
-7.25474e-11
-9.54829e-10
-7.45891e-11
-9.2654e-10
-7.65539e-11
-8.97555e-10
-7.84406e-11
-8.67903e-10
-8.02481e-11
-8.37611e-10
-8.19775e-11
-8.06705e-10
-8.36311e-11
-7.75216e-10
-8.52114e-11
-7.43169e-10
-8.67196e-11
-7.10596e-10
-8.8156e-11
-6.77524e-10
-8.95194e-11
-6.43978e-10
-9.08091e-11
-6.09986e-10
-9.20258e-11
-5.75573e-10
-9.31672e-11
-5.40761e-10
-9.42345e-11
-5.05581e-10
-9.52309e-11
-4.70057e-10
-9.61558e-11
-4.34215e-10
-9.7012e-11
-3.98085e-10
-9.78022e-11
-3.6169e-10
-9.85244e-11
-3.25057e-10
-9.91777e-11
-2.88211e-10
-9.97606e-11
-2.51174e-10
-1.00273e-10
-2.13969e-10
-1.00717e-10
-1.76624e-10
-1.01095e-10
-1.39157e-10
-1.01404e-10
-1.01595e-10
-1.01622e-10
-6.40433e-11
-1.0152e-10
-2.74883e-11
-9.8697e-11
-7.41807e-11
2.77895e-11
-1.09455e-10
6.6229e-11
-1.34047e-10
1.04715e-10
-1.35774e-10
1.42439e-10
-1.36633e-10
1.79744e-10
-1.37351e-10
2.16884e-10
-1.37648e-10
2.53908e-10
-1.37589e-10
2.90818e-10
-1.37242e-10
3.27597e-10
-1.36693e-10
3.64211e-10
-1.35987e-10
4.00624e-10
-1.3515e-10
4.36804e-10
-1.34196e-10
4.72716e-10
-1.33132e-10
5.08331e-10
-1.31965e-10
5.43616e-10
-1.30697e-10
5.78543e-10
-1.29329e-10
6.13084e-10
-1.27862e-10
6.47209e-10
-1.26296e-10
6.80892e-10
-1.2463e-10
7.14104e-10
-1.22864e-10
7.46817e-10
-1.20998e-10
7.79004e-10
-1.19031e-10
8.10636e-10
-1.16961e-10
8.41686e-10
-1.1479e-10
8.72125e-10
-1.12515e-10
9.01926e-10
-1.10137e-10
9.3106e-10
-1.07655e-10
9.59498e-10
-1.05069e-10
9.87211e-10
-1.02378e-10
1.01417e-09
-9.95813e-11
1.04035e-09
-9.66795e-11
1.06572e-09
-9.36721e-11
1.09025e-09
-9.0559e-11
1.11391e-09
-8.73402e-11
1.13667e-09
-8.4016e-11
1.15851e-09
-8.05867e-11
1.17939e-09
-7.70525e-11
1.19929e-09
-7.34139e-11
1.21818e-09
-6.96718e-11
1.23603e-09
-6.58271e-11
1.25281e-09
-6.18808e-11
1.2685e-09
-5.78344e-11
1.28307e-09
-5.36892e-11
1.29649e-09
-4.9447e-11
1.30874e-09
-4.51098e-11
1.3198e-09
-4.068e-11
1.32963e-09
-3.61604e-11
1.33822e-09
-3.15539e-11
1.34553e-09
-2.68637e-11
1.35156e-09
-2.2093e-11
1.35628e-09
-1.72454e-11
1.35966e-09
-1.23249e-11
1.36169e-09
-7.33608e-12
1.36236e-09
-2.28417e-12
1.36164e-09
2.82766e-12
1.35952e-09
7.994e-12
1.35599e-09
1.32092e-11
1.35103e-09
1.84678e-11
1.34464e-09
2.37641e-11
1.3368e-09
2.90918e-11
1.32751e-09
3.44445e-11
1.31677e-09
3.98155e-11
1.30456e-09
4.5198e-11
1.29089e-09
5.05846e-11
1.27576e-09
5.59674e-11
1.25918e-09
6.13387e-11
1.24114e-09
6.66906e-11
1.22165e-09
7.20149e-11
1.20073e-09
7.73036e-11
1.17839e-09
8.25483e-11
1.15464e-09
8.774e-11
1.12949e-09
9.28702e-11
1.10297e-09
9.79297e-11
1.07509e-09
1.0291e-10
1.04589e-09
1.07802e-10
1.01538e-09
1.12597e-10
9.83601e-10
1.17287e-10
9.50577e-10
1.21861e-10
9.16344e-10
1.26312e-10
8.80937e-10
1.30629e-10
8.44395e-10
1.34806e-10
8.06758e-10
1.38833e-10
7.6807e-10
1.42703e-10
7.28374e-10
1.46406e-10
6.87719e-10
1.49936e-10
6.46153e-10
1.53284e-10
6.03728e-10
1.56444e-10
5.60497e-10
1.59408e-10
5.16514e-10
1.62171e-10
4.71836e-10
1.64726e-10
4.26521e-10
1.67067e-10
3.80629e-10
1.6919e-10
3.34219e-10
1.71088e-10
2.87354e-10
1.72759e-10
2.40097e-10
1.74198e-10
1.92512e-10
1.75402e-10
1.44663e-10
1.76369e-10
9.66167e-11
1.77096e-10
4.8438e-11
1.77582e-10
1.92862e-13
1.77825e-10
-4.80525e-11
1.77825e-10
-9.62315e-11
1.77582e-10
-1.44278e-10
1.77097e-10
-1.92127e-10
1.7637e-10
-2.39713e-10
1.75404e-10
-2.86971e-10
1.742e-10
-3.33836e-10
1.72762e-10
-3.80247e-10
1.71093e-10
-4.26141e-10
1.69195e-10
-4.71457e-10
1.67074e-10
-5.16137e-10
1.64733e-10
-5.60122e-10
1.62179e-10
-6.03355e-10
1.59418e-10
-6.45782e-10
1.56454e-10
-6.8735e-10
1.53295e-10
-7.28007e-10
1.49949e-10
-7.67703e-10
1.4642e-10
-8.06394e-10
1.42718e-10
-8.44034e-10
1.3885e-10
-8.80579e-10
1.34823e-10
-9.15988e-10
1.30647e-10
-9.50225e-10
1.26329e-10
-9.83252e-10
1.2188e-10
-1.01504e-09
1.17307e-10
-1.04554e-09
1.12619e-10
-1.07475e-09
1.07825e-10
-1.10263e-09
1.02934e-10
-1.12915e-09
9.79549e-11
-1.1543e-09
9.28963e-11
-1.17806e-09
8.77669e-11
-1.20041e-09
8.25759e-11
-1.22133e-09
7.73328e-11
-1.24082e-09
7.20457e-11
-1.25886e-09
6.67226e-11
-1.27545e-09
6.13721e-11
-1.29058e-09
5.60024e-11
-1.30425e-09
5.06212e-11
-1.31646e-09
4.52361e-11
-1.32721e-09
3.98546e-11
-1.3365e-09
3.44843e-11
-1.34434e-09
2.91323e-11
-1.35074e-09
2.38047e-11
-1.3557e-09
1.85076e-11
-1.35924e-09
1.32476e-11
-1.36136e-09
8.03097e-12
-1.36208e-09
2.86332e-12
-1.36142e-09
-2.24996e-12
-1.3594e-09
-7.30231e-12
-1.35602e-09
-1.22899e-11
-1.35131e-09
-1.72075e-11
-1.34528e-09
-2.20516e-11
-1.33797e-09
-2.68189e-11
-1.32939e-09
-3.15059e-11
-1.31956e-09
-3.6109e-11
-1.3085e-09
-4.06255e-11
-1.29625e-09
-4.50529e-11
-1.28283e-09
-4.93884e-11
-1.26826e-09
-5.36291e-11
-1.25257e-09
-5.77735e-11
-1.23579e-09
-6.18198e-11
-1.21794e-09
-6.57664e-11
-1.19906e-09
-6.96117e-11
-1.17916e-09
-7.33543e-11
-1.15828e-09
-7.69924e-11
-1.13644e-09
-8.05248e-11
-1.11368e-09
-8.39524e-11
-1.09003e-09
-8.72746e-11
-1.0655e-09
-9.04913e-11
-1.04013e-09
-9.36027e-11
-1.01395e-09
-9.66081e-11
-9.86988e-10
-9.95087e-11
-9.59273e-10
-1.02303e-10
-9.30834e-10
-1.04993e-10
-9.01697e-10
-1.07576e-10
-8.71891e-10
-1.10053e-10
-8.41445e-10
-1.12425e-10
-8.10385e-10
-1.14691e-10
-7.7874e-10
-1.16856e-10
-7.46537e-10
-1.18921e-10
-7.13805e-10
-1.20887e-10
-6.80573e-10
-1.22752e-10
-6.46866e-10
-1.24516e-10
-6.12712e-10
-1.2618e-10
-5.78136e-10
-1.27743e-10
-5.43165e-10
-1.29207e-10
-5.07824e-10
-1.30571e-10
-4.72139e-10
-1.3184e-10
-4.36138e-10
-1.33013e-10
-3.99846e-10
-1.34093e-10
-3.63289e-10
-1.3508e-10
-3.26493e-10
-1.35974e-10
-2.89484e-10
-1.36772e-10
-2.52282e-10
-1.37475e-10
-2.14911e-10
-1.38086e-10
-1.77398e-10
-1.38607e-10
-1.39768e-10
-1.39035e-10
-1.02049e-10
-1.39342e-10
-6.43571e-11
-1.39216e-10
-2.76807e-11
-1.35372e-10
-1.0186e-10
2.72347e-11
-1.3669e-10
6.50448e-11
-1.71856e-10
1.0365e-10
-1.74378e-10
1.41804e-10
-1.74787e-10
1.79547e-10
-1.75093e-10
2.17028e-10
-1.75129e-10
2.54309e-10
-1.74869e-10
2.91427e-10
-1.74359e-10
3.28376e-10
-1.73641e-10
3.65134e-10
-1.72746e-10
4.01677e-10
-1.71693e-10
4.37975e-10
-1.70494e-10
4.74e-10
-1.69157e-10
5.09723e-10
-1.67688e-10
5.45116e-10
-1.66089e-10
5.80149e-10
-1.64362e-10
6.14795e-10
-1.62508e-10
6.49026e-10
-1.60527e-10
6.82815e-10
-1.58418e-10
7.16134e-10
-1.56182e-10
7.48954e-10
-1.53818e-10
7.81249e-10
-1.51325e-10
8.12989e-10
-1.48702e-10
8.44148e-10
-1.45948e-10
8.74696e-10
-1.43064e-10
9.04606e-10
-1.40047e-10
9.3385e-10
-1.36898e-10
9.62398e-10
-1.33617e-10
9.90222e-10
-1.30202e-10
1.01729e-09
-1.26652e-10
1.04358e-09
-1.22969e-10
1.06906e-09
-1.19151e-10
1.0937e-09
-1.15198e-10
1.11747e-09
-1.11111e-10
1.14034e-09
-1.06889e-10
1.16229e-09
-1.02533e-10
1.18328e-09
-9.80436e-11
1.20329e-09
-9.34213e-11
1.22228e-09
-8.86671e-11
1.24023e-09
-8.37822e-11
1.25712e-09
-7.8768e-11
1.27291e-09
-7.36262e-11
1.28758e-09
-6.83586e-11
1.3011e-09
-6.29675e-11
1.31345e-09
-5.74555e-11
1.3246e-09
-5.18255e-11
1.33452e-09
-4.60811e-11
1.34319e-09
-4.02258e-11
1.35059e-09
-3.42635e-11
1.35669e-09
-2.81984e-11
1.36148e-09
-2.20351e-11
1.36493e-09
-1.57786e-11
1.36703e-09
-9.4346e-12
1.36776e-09
-3.00976e-12
1.36709e-09
3.49255e-12
1.36502e-09
1.00645e-11
1.36153e-09
1.66991e-11
1.35661e-09
2.33895e-11
1.35025e-09
3.01284e-11
1.34243e-09
3.69078e-11
1.33316e-09
4.37195e-11
1.32242e-09
5.05548e-11
1.31021e-09
5.74049e-11
1.29654e-09
6.42604e-11
1.28139e-09
7.11116e-11
1.26478e-09
7.79486e-11
1.24671e-09
8.47614e-11
1.22719e-09
9.15398e-11
1.20622e-09
9.82732e-11
1.18381e-09
1.04951e-10
1.15999e-09
1.11561e-10
1.13477e-09
1.18094e-10
1.10816e-09
1.24537e-10
1.08019e-09
1.3088e-10
1.05088e-09
1.37111e-10
1.02027e-09
1.43218e-10
9.88363e-10
1.4919e-10
9.55209e-10
1.55017e-10
9.20836e-10
1.60685e-10
8.85281e-10
1.66185e-10
8.48583e-10
1.71505e-10
8.10781e-10
1.76635e-10
7.71918e-10
1.81564e-10
7.32041e-10
1.86282e-10
6.91197e-10
1.90779e-10
6.49434e-10
1.95045e-10
6.06806e-10
1.99072e-10
5.63364e-10
2.0285e-10
5.19164e-10
2.0637e-10
4.74264e-10
2.09626e-10
4.28722e-10
2.1261e-10
3.82597e-10
2.15315e-10
3.35951e-10
2.17735e-10
2.88846e-10
2.19864e-10
2.41345e-10
2.21698e-10
1.93515e-10
2.23233e-10
1.45418e-10
2.24466e-10
9.71216e-11
2.25393e-10
4.86917e-11
2.26012e-10
1.95002e-13
2.26322e-10
-4.8302e-11
2.26322e-10
-9.67323e-11
2.26013e-10
-1.45029e-10
2.25394e-10
-1.93127e-10
2.24468e-10
-2.40958e-10
2.23236e-10
-2.88459e-10
2.21702e-10
-3.35565e-10
2.19868e-10
-3.82212e-10
2.1774e-10
-4.28338e-10
2.1532e-10
-4.73882e-10
2.12616e-10
-5.18783e-10
2.09634e-10
-5.62984e-10
2.06379e-10
-6.06428e-10
2.0286e-10
-6.49058e-10
1.99084e-10
-6.90822e-10
1.9506e-10
-7.31668e-10
1.90795e-10
-7.71546e-10
1.863e-10
-8.10411e-10
1.81582e-10
-8.48216e-10
1.76654e-10
-8.84918e-10
1.71524e-10
-9.20476e-10
1.66205e-10
-9.54852e-10
1.60706e-10
-9.8801e-10
1.55038e-10
-1.01991e-09
1.49214e-10
-1.05054e-09
1.43243e-10
-1.07985e-09
1.37137e-10
-1.10782e-09
1.30907e-10
-1.13443e-09
1.24566e-10
-1.15966e-09
1.18123e-10
-1.18348e-09
1.11592e-10
-1.20588e-09
1.04982e-10
-1.22686e-09
9.83065e-11
-1.24638e-09
9.1575e-11
-1.26446e-09
8.4798e-11
-1.28107e-09
7.79859e-11
-1.29622e-09
7.11495e-11
-1.3099e-09
6.42993e-11
-1.32211e-09
5.7445e-11
-1.33285e-09
5.0596e-11
-1.34212e-09
4.37617e-11
-1.34994e-09
3.69513e-11
-1.35631e-09
3.01727e-11
-1.36124e-09
2.34334e-11
-1.36473e-09
1.67416e-11
-1.36681e-09
1.01055e-11
-1.36748e-09
3.53262e-12
-1.36676e-09
-2.97002e-12
-1.36466e-09
-9.39533e-12
-1.36121e-09
-1.57377e-11
-1.35643e-09
-2.19915e-11
-1.35033e-09
-2.8152e-11
-1.34293e-09
-3.42146e-11
-1.33426e-09
-4.01747e-11
-1.32434e-09
-4.60279e-11
-1.3132e-09
-5.17698e-11
-1.30085e-09
-5.73967e-11
-1.28733e-09
-6.29064e-11
-1.27267e-09
-6.82962e-11
-1.25688e-09
-7.35634e-11
-1.23999e-09
-7.87051e-11
-1.22204e-09
-8.37195e-11
-1.20304e-09
-8.86051e-11
-1.18304e-09
-9.33596e-11
-1.16205e-09
-9.79811e-11
-1.14011e-09
-1.02469e-10
-1.11723e-09
-1.06824e-10
-1.09346e-09
-1.11044e-10
-1.06883e-09
-1.1513e-10
-1.04335e-09
-1.19083e-10
-1.01706e-09
-1.22899e-10
-9.89982e-10
-1.26581e-10
-9.62156e-10
-1.30129e-10
-9.33605e-10
-1.33543e-10
-9.04357e-10
-1.36823e-10
-8.74441e-10
-1.39969e-10
-8.43884e-10
-1.4298e-10
-8.12716e-10
-1.4586e-10
-7.80964e-10
-1.4861e-10
-7.48653e-10
-1.51231e-10
-7.15814e-10
-1.53725e-10
-6.82473e-10
-1.56092e-10
-6.4866e-10
-1.5833e-10
-6.144e-10
-1.6044e-10
-5.79719e-10
-1.62423e-10
-5.44645e-10
-1.64281e-10
-5.09201e-10
-1.66015e-10
-4.73414e-10
-1.67626e-10
-4.37309e-10
-1.69117e-10
-4.00917e-10
-1.70488e-10
-3.64257e-10
-1.71739e-10
-3.27358e-10
-1.72872e-10
-2.90246e-10
-1.73885e-10
-2.52942e-10
-1.74779e-10
-2.15471e-10
-1.75557e-10
-1.7786e-10
-1.76219e-10
-1.40136e-10
-1.76759e-10
-1.02325e-10
-1.77148e-10
-6.45468e-11
-1.76995e-10
-2.77882e-11
-1.72134e-10
-1.29649e-10
2.71429e-11
-1.63832e-10
6.46277e-11
-2.0934e-10
1.03203e-10
-2.12952e-10
1.41542e-10
-2.13126e-10
1.79545e-10
-2.13096e-10
2.17277e-10
-2.1286e-10
2.54795e-10
-2.12386e-10
2.9212e-10
-2.11684e-10
3.29251e-10
-2.10773e-10
3.66174e-10
-2.09669e-10
4.02867e-10
-2.08387e-10
4.39308e-10
-2.06935e-10
4.75469e-10
-2.05319e-10
5.11325e-10
-2.03543e-10
5.46847e-10
-2.01611e-10
5.8201e-10
-1.99524e-10
6.16784e-10
-1.97282e-10
6.51143e-10
-1.94886e-10
6.85061e-10
-1.92335e-10
7.18509e-10
-1.89629e-10
7.51459e-10
-1.86767e-10
7.83883e-10
-1.83749e-10
8.15755e-10
-1.80573e-10
8.47045e-10
-1.77238e-10
8.77725e-10
-1.73744e-10
9.07768e-10
-1.7009e-10
9.37145e-10
-1.66275e-10
9.65827e-10
-1.62299e-10
9.93785e-10
-1.5816e-10
1.02099e-09
-1.53858e-10
1.04742e-09
-1.49393e-10
1.07303e-09
-1.44765e-10
1.0978e-09
-1.39972e-10
1.12171e-09
-1.35016e-10
1.14472e-09
-1.29896e-10
1.16679e-09
-1.24613e-10
1.18792e-09
-1.19168e-10
1.20806e-09
-1.13561e-10
1.22718e-09
-1.07793e-10
1.24527e-09
-1.01867e-10
1.26228e-09
-9.57827e-11
1.2782e-09
-8.95435e-11
1.29299e-09
-8.31512e-11
1.30663e-09
-7.66086e-11
1.3191e-09
-6.99188e-11
1.33036e-09
-6.30855e-11
1.34039e-09
-5.61127e-11
1.34917e-09
-4.90047e-11
1.35667e-09
-4.17662e-11
1.36287e-09
-3.44021e-11
1.36776e-09
-2.6918e-11
1.3713e-09
-1.93201e-11
1.37348e-09
-1.16152e-11
1.37428e-09
-3.81085e-12
1.37368e-09
4.08809e-12
1.37167e-09
1.20724e-11
1.36824e-09
2.01336e-11
1.36337e-09
2.82635e-11
1.35704e-09
3.64529e-11
1.34926e-09
4.46921e-11
1.34001e-09
5.29711e-11
1.32928e-09
6.12794e-11
1.31708e-09
6.96063e-11
1.3034e-09
7.79403e-11
1.28824e-09
8.627e-11
1.27161e-09
9.45831e-11
1.2535e-09
1.02867e-10
1.23393e-09
1.1111e-10
1.2129e-09
1.19299e-10
1.19044e-09
1.2742e-10
1.16654e-09
1.35461e-10
1.14122e-09
1.43407e-10
1.11451e-09
1.51246e-10
1.08643e-09
1.58962e-10
1.057e-09
1.66543e-10
1.02625e-09
1.73973e-10
9.94199e-10
1.8124e-10
9.60887e-10
1.88329e-10
9.26345e-10
1.95227e-10
8.9061e-10
2.0192e-10
8.5372e-10
2.08395e-10
8.15717e-10
2.14639e-10
7.76643e-10
2.20639e-10
7.36544e-10
2.26381e-10
6.95468e-10
2.31855e-10
6.53465e-10
2.37048e-10
6.10587e-10
2.4195e-10
5.66888e-10
2.46549e-10
5.22424e-10
2.50836e-10
4.77251e-10
2.54799e-10
4.3143e-10
2.58432e-10
3.8502e-10
2.61725e-10
3.38083e-10
2.64671e-10
2.90682e-10
2.67264e-10
2.42883e-10
2.69498e-10
1.94749e-10
2.71367e-10
1.46347e-10
2.72868e-10
9.7742e-11
2.73997e-10
4.90025e-11
2.74751e-10
1.95695e-13
2.75129e-10
-4.86113e-11
2.75129e-10
-9.73509e-11
2.74752e-10
-1.45956e-10
2.73999e-10
-1.94359e-10
2.72871e-10
-2.42494e-10
2.71371e-10
-2.90294e-10
2.69502e-10
-3.37695e-10
2.67269e-10
-3.84633e-10
2.64677e-10
-4.31044e-10
2.61731e-10
-4.76867e-10
2.58439e-10
-5.22041e-10
2.54808e-10
-5.66507e-10
2.50845e-10
-6.10208e-10
2.46561e-10
-6.53087e-10
2.41964e-10
-6.95091e-10
2.37064e-10
-7.36169e-10
2.31872e-10
-7.7627e-10
2.264e-10
-8.15346e-10
2.20658e-10
-8.53353e-10
2.1466e-10
-8.90245e-10
2.08417e-10
-9.25984e-10
2.01943e-10
-9.60528e-10
1.95251e-10
-9.93843e-10
1.88355e-10
-1.02589e-09
1.81267e-10
-1.05665e-09
1.74001e-10
-1.08609e-09
1.66572e-10
-1.11417e-09
1.58992e-10
-1.14088e-09
1.51277e-10
-1.1662e-09
1.4344e-10
-1.1901e-09
1.35496e-10
-1.21257e-09
1.27457e-10
-1.2336e-09
1.19337e-10
-1.25317e-09
1.11149e-10
-1.27128e-09
1.02907e-10
-1.28792e-09
9.46234e-11
-1.30308e-09
8.63108e-11
-1.31677e-09
7.79822e-11
-1.32897e-09
6.96495e-11
-1.3397e-09
6.13241e-11
-1.34895e-09
5.30169e-11
-1.35674e-09
4.47387e-11
-1.36307e-09
3.64999e-11
-1.36794e-09
2.83103e-11
-1.37138e-09
2.01796e-11
-1.3734e-09
1.21175e-11
-1.374e-09
4.13304e-12
-1.3732e-09
-3.76529e-12
-1.37102e-09
-1.15698e-11
-1.36749e-09
-1.92735e-11
-1.36261e-09
-2.68697e-11
-1.35641e-09
-3.43519e-11
-1.34891e-09
-4.17137e-11
-1.34013e-09
-4.89502e-11
-1.3301e-09
-5.60562e-11
-1.31884e-09
-6.30267e-11
-1.30638e-09
-6.98572e-11
-1.29274e-09
-7.65449e-11
-1.27795e-09
-8.3087e-11
-1.26204e-09
-8.94797e-11
-1.24502e-09
-9.5719e-11
-1.22694e-09
-1.01803e-10
-1.20782e-09
-1.07729e-10
-1.18768e-09
-1.13496e-10
-1.16656e-09
-1.19103e-10
-1.14448e-09
-1.24549e-10
-1.12147e-09
-1.29831e-10
-1.09757e-09
-1.3495e-10
-1.07279e-09
-1.39905e-10
-1.04718e-09
-1.44697e-10
-1.02075e-09
-1.49325e-10
-9.93543e-10
-1.53789e-10
-9.65581e-10
-1.5809e-10
-9.36896e-10
-1.62229e-10
-9.07514e-10
-1.66204e-10
-8.77465e-10
-1.70018e-10