/*--------------------------------*- C++ -*----------------------------------*\
| =========                 |                                                 |
| \\      /  F ield         | OpenFOAM: The Open Source CFD Toolbox           |
|  \\    /   O peration     | Version:  2412                                  |
|   \\  /    A nd           | Website:  www.openfoam.com                      |
|    \\/     M anipulation  |                                                 |
\*---------------------------------------------------------------------------*/
FoamFile
{
    version     2.0;
    format      ascii;
    arch        "LSB;label=32;scalar=64";
    class       volVectorField;
    location    "1.09";
    object      U;
}
// * * * * * * * * * * * * * * * * * * * * * * * * * * * * * * * * * * * * * //

dimensions      [0 1 -1 0 0 0 0];

internalField   nonuniform List<vector> 
40000
(
(1.09947e-05 -6.80615e-06 0)
(3.01897e-05 -5.76227e-06 0)
(5.43321e-05 -9.32928e-06 0)
(7.98399e-05 -1.07768e-05 0)
(0.000108117 -1.12136e-05 0)
(0.000136352 -1.13147e-05 0)
(0.000164555 -1.12336e-05 0)
(0.000192547 -1.11266e-05 0)
(0.000220301 -1.10064e-05 0)
(0.000247819 -1.08978e-05 0)
(0.000275083 -1.07977e-05 0)
(0.000302096 -1.06964e-05 0)
(0.000328855 -1.05934e-05 0)
(0.000355351 -1.04878e-05 0)
(0.000381573 -1.03783e-05 0)
(0.000407507 -1.02633e-05 0)
(0.00043314 -1.01414e-05 0)
(0.000458456 -1.00127e-05 0)
(0.000483438 -9.87711e-06 0)
(0.000508067 -9.73418e-06 0)
(0.000532326 -9.58366e-06 0)
(0.000556196 -9.42539e-06 0)
(0.000579656 -9.25918e-06 0)
(0.000602688 -9.08485e-06 0)
(0.000625272 -8.9023e-06 0)
(0.000647387 -8.71152e-06 0)
(0.000669014 -8.51257e-06 0)
(0.000690132 -8.30559e-06 0)
(0.000710721 -8.09069e-06 0)
(0.00073076 -7.86784e-06 0)
(0.00075023 -7.63693e-06 0)
(0.000769111 -7.39777e-06 0)
(0.000787382 -7.15027e-06 0)
(0.000805022 -6.89445e-06 0)
(0.000822011 -6.63047e-06 0)
(0.000838327 -6.35848e-06 0)
(0.000853951 -6.07852e-06 0)
(0.000868862 -5.79052e-06 0)
(0.000883039 -5.4944e-06 0)
(0.000896463 -5.1901e-06 0)
(0.000909114 -4.87763e-06 0)
(0.000920971 -4.55714e-06 0)
(0.000932013 -4.2288e-06 0)
(0.000942222 -3.89277e-06 0)
(0.000951578 -3.54917e-06 0)
(0.000960063 -3.19821e-06 0)
(0.000967658 -2.84015e-06 0)
(0.000974346 -2.47527e-06 0)
(0.000980111 -2.10391e-06 0)
(0.000984936 -1.7264e-06 0)
(0.000988806 -1.34299e-06 0)
(0.000991706 -9.53848e-07 0)
(0.000993624 -5.58983e-07 0)
(0.000994545 -1.58113e-07 0)
(0.000994452 2.4801e-07 0)
(0.000993336 6.57607e-07 0)
(0.000991192 1.06986e-06 0)
(0.000988011 1.48488e-06 0)
(0.000983785 1.90252e-06 0)
(0.000978509 2.32242e-06 0)
(0.000972177 2.7442e-06 0)
(0.000964785 3.16738e-06 0)
(0.000956329 3.59143e-06 0)
(0.000946809 4.01586e-06 0)
(0.000936226 4.44009e-06 0)
(0.000924579 4.86344e-06 0)
(0.000911873 5.28512e-06 0)
(0.000898113 5.70436e-06 0)
(0.000883304 6.12049e-06 0)
(0.000867456 6.53292e-06 0)
(0.000850578 6.94108e-06 0)
(0.000832684 7.34432e-06 0)
(0.000813785 7.74197e-06 0)
(0.000793896 8.13332e-06 0)
(0.000773034 8.51769e-06 0)
(0.000751216 8.89446e-06 0)
(0.000728463 9.26297e-06 0)
(0.000704797 9.62254e-06 0)
(0.00068024 9.97249e-06 0)
(0.000654819 1.03122e-05 0)
(0.000628559 1.06409e-05 0)
(0.000601491 1.09581e-05 0)
(0.000573644 1.12628e-05 0)
(0.00054505 1.15545e-05 0)
(0.000515744 1.18324e-05 0)
(0.00048576 1.20961e-05 0)
(0.000455136 1.23449e-05 0)
(0.00042391 1.25784e-05 0)
(0.00039212 1.27959e-05 0)
(0.000359808 1.29969e-05 0)
(0.000327015 1.3181e-05 0)
(0.000293783 1.33478e-05 0)
(0.000260156 1.3497e-05 0)
(0.000226179 1.36281e-05 0)
(0.000191896 1.37411e-05 0)
(0.000157354 1.38358e-05 0)
(0.0001226 1.39122e-05 0)
(8.76799e-05 1.39699e-05 0)
(5.26412e-05 1.40089e-05 0)
(1.75326e-05 1.40284e-05 0)
(-1.76009e-05 1.40283e-05 0)
(-5.27097e-05 1.40085e-05 0)
(-8.77491e-05 1.39695e-05 0)
(-0.00012267 1.39117e-05 0)
(-0.000157425 1.38351e-05 0)
(-0.000191967 1.374e-05 0)
(-0.000226251 1.36265e-05 0)
(-0.000260229 1.3495e-05 0)
(-0.000293857 1.33458e-05 0)
(-0.000327091 1.31791e-05 0)
(-0.000359886 1.29953e-05 0)
(-0.000392202 1.27948e-05 0)
(-0.000423995 1.25779e-05 0)
(-0.000455225 1.2345e-05 0)
(-0.000485853 1.20967e-05 0)
(-0.000515842 1.18334e-05 0)
(-0.000545153 1.15558e-05 0)
(-0.000573751 1.12647e-05 0)
(-0.000601603 1.09604e-05 0)
(-0.000628677 1.06436e-05 0)
(-0.000654942 1.03152e-05 0)
(-0.000680369 9.9756e-06 0)
(-0.000704932 9.62556e-06 0)
(-0.000728606 9.26592e-06 0)
(-0.000751367 8.8973e-06 0)
(-0.000773193 8.52039e-06 0)
(-0.000794065 8.13593e-06 0)
(-0.000813965 7.74454e-06 0)
(-0.000832875 7.34688e-06 0)
(-0.00085078 6.94381e-06 0)
(-0.000867668 6.53588e-06 0)
(-0.000883527 6.12348e-06 0)
(-0.000898347 5.70756e-06 0)
(-0.000912121 5.28894e-06 0)
(-0.000924843 4.86788e-06 0)
(-0.000936506 4.44504e-06 0)
(-0.000947109 4.02148e-06 0)
(-0.00095665 3.59782e-06 0)
(-0.000965127 3.17445e-06 0)
(-0.000972543 2.75185e-06 0)
(-0.000978899 2.33043e-06 0)
(-0.000984199 1.91064e-06 0)
(-0.000988447 1.49286e-06 0)
(-0.000991649 1.07714e-06 0)
(-0.000993812 6.63735e-07 0)
(-0.000994944 2.52912e-07 0)
(-0.000995052 -1.54422e-07 0)
(-0.000994143 -5.56134e-07 0)
(-0.000992237 -9.51324e-07 0)
(-0.000989349 -1.34038e-06 0)
(-0.000985494 -1.72304e-06 0)
(-0.000980688 -2.09917e-06 0)
(-0.000974946 -2.46885e-06 0)
(-0.000968284 -2.83193e-06 0)
(-0.000960721 -3.18817e-06 0)
(-0.000952272 -3.53751e-06 0)
(-0.000942953 -3.88002e-06 0)
(-0.000932782 -4.21574e-06 0)
(-0.000921778 -4.54398e-06 0)
(-0.000909959 -4.86456e-06 0)
(-0.000897345 -5.17769e-06 0)
(-0.000883956 -5.48309e-06 0)
(-0.000869812 -5.78003e-06 0)
(-0.000854937 -6.06816e-06 0)
(-0.00083935 -6.34777e-06 0)
(-0.000823072 -6.61923e-06 0)
(-0.000806125 -6.88254e-06 0)
(-0.000788529 -7.13753e-06 0)
(-0.000770305 -7.38408e-06 0)
(-0.000751473 -7.62242e-06 0)
(-0.000732052 -7.85334e-06 0)
(-0.000712062 -8.07719e-06 0)
(-0.000691525 -8.29263e-06 0)
(-0.000670462 -8.49866e-06 0)
(-0.000648898 -8.69462e-06 0)
(-0.000626855 -8.88132e-06 0)
(-0.000604354 -9.05956e-06 0)
(-0.000581414 -9.2306e-06 0)
(-0.000558054 -9.39497e-06 0)
(-0.000534292 -9.55236e-06 0)
(-0.000510145 -9.70331e-06 0)
(-0.000485636 -9.84704e-06 0)
(-0.000460784 -9.98227e-06 0)
(-0.000435609 -1.01082e-05 0)
(-0.000410134 -1.02235e-05 0)
(-0.000384379 -1.03288e-05 0)
(-0.000358366 -1.04259e-05 0)
(-0.000332115 -1.05162e-05 0)
(-0.000305639 -1.0601e-05 0)
(-0.000278956 -1.06811e-05 0)
(-0.000252083 -1.07545e-05 0)
(-0.000225038 -1.08195e-05 0)
(-0.000197843 -1.08754e-05 0)
(-0.000170519 -1.09224e-05 0)
(-0.000143089 -1.0962e-05 0)
(-0.000115574 -1.09921e-05 0)
(-8.79907e-05 -1.10033e-05 0)
(-6.03937e-05 -1.09749e-05 0)
(-3.34445e-05 -1.06994e-05 0)
(-8.83761e-06 -8.83611e-06 0)
(1.57945e-05 -3.66541e-05 0)
(5.04006e-05 -3.86807e-05 0)
(8.51605e-05 -4.30037e-05 0)
(0.000118937 -4.53956e-05 0)
(0.000154091 -4.66215e-05 0)
(0.000189563 -4.68511e-05 0)
(0.000225299 -4.66842e-05 0)
(0.000261111 -4.63759e-05 0)
(0.000296881 -4.60032e-05 0)
(0.000332532 -4.56188e-05 0)
(0.000367998 -4.52267e-05 0)
(0.000403238 -4.48203e-05 0)
(0.000438219 -4.43986e-05 0)
(0.00047291 -4.39584e-05 0)
(0.000507282 -4.34966e-05 0)
(0.000541308 -4.30103e-05 0)
(0.000574962 -4.24968e-05 0)
(0.000608218 -4.1955e-05 0)
(0.000641051 -4.1384e-05 0)
(0.000673433 -4.07827e-05 0)
(0.000705339 -4.01501e-05 0)
(0.000736742 -3.94854e-05 0)
(0.000767616 -3.87881e-05 0)
(0.000797934 -3.80575e-05 0)
(0.00082767 -3.72935e-05 0)
(0.000856796 -3.64958e-05 0)
(0.000885285 -3.56644e-05 0)
(0.000913111 -3.47995e-05 0)
(0.000940244 -3.3901e-05 0)
(0.000966659 -3.29688e-05 0)
(0.000992327 -3.20024e-05 0)
(0.00101722 -3.10017e-05 0)
(0.00104131 -2.99663e-05 0)
(0.00106458 -2.88965e-05 0)
(0.00108698 -2.77924e-05 0)
(0.00110851 -2.66543e-05 0)
(0.00112911 -2.54821e-05 0)
(0.00114878 -2.42759e-05 0)
(0.00116749 -2.30356e-05 0)
(0.0011852 -2.17613e-05 0)
(0.00120189 -2.04533e-05 0)
(0.00121753 -1.9112e-05 0)
(0.0012321 -1.77379e-05 0)
(0.00124557 -1.63317e-05 0)
(0.00125792 -1.48939e-05 0)
(0.00126913 -1.34255e-05 0)
(0.00127916 -1.19275e-05 0)
(0.001288 -1.0401e-05 0)
(0.00129562 -8.84716e-06 0)
(0.001302 -7.26722e-06 0)
(0.00130713 -5.66228e-06 0)
(0.00131097 -4.03346e-06 0)
(0.00131353 -2.38184e-06 0)
(0.00131476 -7.08226e-07 0)
(0.00131468 9.85162e-07 0)
(0.00131325 2.69499e-06 0)
(0.00131047 4.41901e-06 0)
(0.00130632 6.15615e-06 0)
(0.00130079 7.90493e-06 0)
(0.00129387 9.66359e-06 0)
(0.00128555 1.14302e-05 0)
(0.00127583 1.32028e-05 0)
(0.0012647 1.49791e-05 0)
(0.00125216 1.67569e-05 0)
(0.00123822 1.85336e-05 0)
(0.00122287 2.03065e-05 0)
(0.00120612 2.20726e-05 0)
(0.00118797 2.3829e-05 0)
(0.00116844 2.55731e-05 0)
(0.00114752 2.73023e-05 0)
(0.00112525 2.90139e-05 0)
(0.00110162 3.07051e-05 0)
(0.00107666 3.23729e-05 0)
(0.00105039 3.40145e-05 0)
(0.00102283 3.56268e-05 0)
(0.000993997 3.72072e-05 0)
(0.000963928 3.87527e-05 0)
(0.000932647 4.02606e-05 0)
(0.000900187 4.1728e-05 0)
(0.000866579 4.31518e-05 0)
(0.000831862 4.45292e-05 0)
(0.000796071 4.58575e-05 0)
(0.000759249 4.71335e-05 0)
(0.000721436 4.83546e-05 0)
(0.000682678 4.95182e-05 0)
(0.00064302 5.0622e-05 0)
(0.000602512 5.16637e-05 0)
(0.000561203 5.26408e-05 0)
(0.000519147 5.35511e-05 0)
(0.000476395 5.43925e-05 0)
(0.000433003 5.51631e-05 0)
(0.000389027 5.58617e-05 0)
(0.000344526 5.64867e-05 0)
(0.000299557 5.70367e-05 0)
(0.000254183 5.75105e-05 0)
(0.000208462 5.79071e-05 0)
(0.000162457 5.82259e-05 0)
(0.000116231 5.8466e-05 0)
(6.9847e-05 5.86267e-05 0)
(2.33692e-05 5.87071e-05 0)
(-2.31438e-05 5.87069e-05 0)
(-6.96216e-05 5.86263e-05 0)
(-0.000116006 5.84657e-05 0)
(-0.000162233 5.82257e-05 0)
(-0.000208238 5.79069e-05 0)
(-0.00025396 5.75102e-05 0)
(-0.000299336 5.70364e-05 0)
(-0.000344306 5.64867e-05 0)
(-0.000388809 5.58625e-05 0)
(-0.000432786 5.51647e-05 0)
(-0.00047618 5.43948e-05 0)
(-0.000518934 5.35546e-05 0)
(-0.000560994 5.26454e-05 0)
(-0.000602306 5.16693e-05 0)
(-0.000642817 5.06284e-05 0)
(-0.000682478 4.95251e-05 0)
(-0.000721239 4.83619e-05 0)
(-0.000759056 4.71418e-05 0)
(-0.000795882 4.58667e-05 0)
(-0.000831675 4.45393e-05 0)
(-0.000866397 4.31627e-05 0)
(-0.000900008 4.17397e-05 0)
(-0.000932472 4.02728e-05 0)
(-0.000963757 3.87653e-05 0)
(-0.000993832 3.72202e-05 0)
(-0.00102267 3.56404e-05 0)
(-0.00105023 3.4029e-05 0)
(-0.00107651 3.23885e-05 0)
(-0.00110148 3.07218e-05 0)
(-0.00112511 2.90319e-05 0)
(-0.00114739 2.73219e-05 0)
(-0.00116831 2.55938e-05 0)
(-0.00118786 2.38506e-05 0)
(-0.00120601 2.20959e-05 0)
(-0.00122277 2.03322e-05 0)
(-0.00123813 1.85618e-05 0)
(-0.00125208 1.67876e-05 0)
(-0.00126463 1.50125e-05 0)
(-0.00127577 1.32385e-05 0)
(-0.0012855 1.14673e-05 0)
(-0.00129383 9.7007e-06 0)
(-0.00130076 7.94089e-06 0)
(-0.0013063 6.19021e-06 0)
(-0.00131046 4.45015e-06 0)
(-0.00131325 2.72234e-06 0)
(-0.00131469 1.00911e-06 0)
(-0.00131478 -6.86671e-07 0)
(-0.00131356 -2.36107e-06 0)
(-0.00131101 -4.01194e-06 0)
(-0.00130718 -5.63869e-06 0)
(-0.00130206 -7.23987e-06 0)
(-0.00129569 -8.81458e-06 0)
(-0.00128808 -1.03625e-05 0)
(-0.00127926 -1.1883e-05 0)
(-0.00126924 -1.33753e-05 0)
(-0.00125805 -1.48391e-05 0)
(-0.00124571 -1.6274e-05 0)
(-0.00123225 -1.76793e-05 0)
(-0.00121769 -1.90535e-05 0)
(-0.00120206 -2.03955e-05 0)
(-0.00118539 -2.17048e-05 0)
(-0.00116769 -2.29802e-05 0)
(-0.00114901 -2.42203e-05 0)
(-0.00112935 -2.54249e-05 0)
(-0.00110876 -2.65939e-05 0)
(-0.00108726 -2.77279e-05 0)
(-0.00106487 -2.88277e-05 0)
(-0.00104162 -2.98938e-05 0)
(-0.00101755 -3.09253e-05 0)
(-0.000992671 -3.19232e-05 0)
(-0.000967021 -3.28878e-05 0)
(-0.000940626 -3.38195e-05 0)
(-0.000913514 -3.47151e-05 0)
(-0.000885714 -3.55734e-05 0)
(-0.000857252 -3.6393e-05 0)
(-0.000828153 -3.71753e-05 0)
(-0.000798443 -3.79234e-05 0)
(-0.000768147 -3.864e-05 0)
(-0.000737296 -3.93269e-05 0)
(-0.00070592 -3.99832e-05 0)
(-0.000674046 -4.06089e-05 0)
(-0.000641701 -4.12017e-05 0)
(-0.000608909 -4.1758e-05 0)
(-0.000575692 -4.22772e-05 0)
(-0.000542075 -4.27588e-05 0)
(-0.000508083 -4.32047e-05 0)
(-0.000473743 -4.36201e-05 0)
(-0.000439084 -4.40071e-05 0)
(-0.000404132 -4.43665e-05 0)
(-0.00036891 -4.46984e-05 0)
(-0.000333442 -4.49999e-05 0)
(-0.000297754 -4.52683e-05 0)
(-0.000261867 -4.55025e-05 0)
(-0.000225809 -4.57027e-05 0)
(-0.000189606 -4.587e-05 0)
(-0.000153279 -4.60018e-05 0)
(-0.000116822 -4.60769e-05 0)
(-8.0276e-05 -4.59621e-05 0)
(-4.45075e-05 -4.45371e-05 0)
(-1.06828e-05 -3.34207e-05 0)
(1.25995e-05 -6.62778e-05 0)
(4.87516e-05 -7.55108e-05 0)
(8.77674e-05 -7.75163e-05 0)
(0.000124303 -7.97188e-05 0)
(0.00016092 -8.12287e-05 0)
(0.000197534 -8.18725e-05 0)
(0.000234224 -8.19987e-05 0)
(0.000270928 -8.18349e-05 0)
(0.000307576 -8.14946e-05 0)
(0.000344108 -8.10445e-05 0)
(0.000380473 -8.05136e-05 0)
(0.000416626 -7.99146e-05 0)
(0.000452531 -7.92552e-05 0)
(0.000488154 -7.85387e-05 0)
(0.000523462 -7.77661e-05 0)
(0.000558425 -7.69371e-05 0)
(0.000593016 -7.60514e-05 0)
(0.000627204 -7.51087e-05 0)
(0.000660963 -7.41085e-05 0)
(0.000694265 -7.30499e-05 0)
(0.000727081 -7.19324e-05 0)
(0.000759384 -7.07552e-05 0)
(0.000791148 -6.95177e-05 0)
(0.000822343 -6.82196e-05 0)
(0.000852942 -6.68606e-05 0)
(0.000882918 -6.54403e-05 0)
(0.000912242 -6.39588e-05 0)
(0.000940886 -6.24159e-05 0)
(0.000968821 -6.08114e-05 0)
(0.000996018 -5.9145e-05 0)
(0.00102245 -5.74165e-05 0)
(0.00104809 -5.56256e-05 0)
(0.0010729 -5.37722e-05 0)
(0.00109686 -5.18565e-05 0)
(0.00111994 -4.98786e-05 0)
(0.00114211 -4.78387e-05 0)
(0.00116335 -4.57369e-05 0)
(0.00118362 -4.35733e-05 0)
(0.00120289 -4.13483e-05 0)
(0.00122114 -3.90623e-05 0)
(0.00123834 -3.67161e-05 0)
(0.00125447 -3.43103e-05 0)
(0.00126949 -3.1846e-05 0)
(0.00128339 -2.93239e-05 0)
(0.00129613 -2.67455e-05 0)
(0.00130769 -2.4112e-05 0)
(0.00131805 -2.14254e-05 0)
(0.00132717 -1.86875e-05 0)
(0.00133505 -1.59002e-05 0)
(0.00134165 -1.30655e-05 0)
(0.00134695 -1.01856e-05 0)
(0.00135094 -7.26271e-06 0)
(0.0013536 -4.29951e-06 0)
(0.0013549 -1.29906e-06 0)
(0.00135484 1.73589e-06 0)
(0.0013534 4.80273e-06 0)
(0.00135055 7.89819e-06 0)
(0.00134629 1.10189e-05 0)
(0.00134061 1.41616e-05 0)
(0.0013335 1.73228e-05 0)
(0.00132495 2.04986e-05 0)
(0.00131495 2.36853e-05 0)
(0.0013035 2.68788e-05 0)
(0.00129061 3.00748e-05 0)
(0.00127626 3.32686e-05 0)
(0.00126046 3.64554e-05 0)
(0.00124321 3.96301e-05 0)
(0.00122452 4.27879e-05 0)
(0.0012044 4.59239e-05 0)
(0.00118286 4.90334e-05 0)
(0.00115992 5.21112e-05 0)
(0.00113558 5.51521e-05 0)
(0.00110987 5.81508e-05 0)
(0.0010828 6.11021e-05 0)
(0.0010544 6.4001e-05 0)
(0.0010247 6.68424e-05 0)
(0.000993713 6.96213e-05 0)
(0.000961478 7.23324e-05 0)
(0.000928027 7.49705e-05 0)
(0.000893393 7.75304e-05 0)
(0.000857613 8.00069e-05 0)
(0.000820726 8.23949e-05 0)
(0.000782775 8.46892e-05 0)
(0.000743801 8.68849e-05 0)
(0.000703852 8.89776e-05 0)
(0.000662976 9.09626e-05 0)
(0.000621221 9.28358e-05 0)
(0.00057864 9.45927e-05 0)
(0.000535286 9.62293e-05 0)
(0.000491215 9.7742e-05 0)
(0.000446483 9.91277e-05 0)
(0.000401148 0.000100384 0)
(0.00035527 0.000101507 0)
(0.00030891 0.000102496 0)
(0.00026213 0.000103347 0)
(0.000214992 0.000104059 0)
(0.000167561 0.000104631 0)
(0.000119901 0.000105061 0)
(7.20781e-05 0.000105348 0)
(2.41579e-05 0.000105492 0)
(-2.3799e-05 0.000105492 0)
(-7.17191e-05 0.000105348 0)
(-0.000119543 0.00010506 0)
(-0.000167203 0.000104629 0)
(-0.000214635 0.000104057 0)
(-0.000261773 0.000103344 0)
(-0.000308555 0.000102493 0)
(-0.000354916 0.000101504 0)
(-0.000400795 0.000100381 0)
(-0.000446131 9.91258e-05 0)
(-0.000490865 9.77405e-05 0)
(-0.000534938 9.62285e-05 0)
(-0.000578294 9.4593e-05 0)
(-0.000620878 9.28375e-05 0)
(-0.000662635 9.0966e-05 0)
(-0.000703514 8.89829e-05 0)
(-0.000743465 8.68922e-05 0)
(-0.00078244 8.46987e-05 0)
(-0.000820394 8.24067e-05 0)
(-0.000857283 8.00206e-05 0)
(-0.000893066 7.75455e-05 0)
(-0.000927703 7.49868e-05 0)
(-0.000961158 7.23492e-05 0)
(-0.000993396 6.96382e-05 0)
(-0.00102438 6.68593e-05 0)
(-0.00105409 6.40179e-05 0)
(-0.00108249 6.11192e-05 0)
(-0.00110956 5.81681e-05 0)
(-0.00113528 5.51697e-05 0)
(-0.00115962 5.21292e-05 0)
(-0.00118257 4.90522e-05 0)
(-0.00120411 4.59436e-05 0)
(-0.00122424 4.28079e-05 0)
(-0.00124293 3.96511e-05 0)
(-0.00126018 3.64786e-05 0)
(-0.00127598 3.32945e-05 0)
(-0.00129034 3.01033e-05 0)
(-0.00130324 2.69102e-05 0)
(-0.00131469 2.37192e-05 0)
(-0.00132469 2.05342e-05 0)
(-0.00133325 1.73587e-05 0)
(-0.00134036 1.41966e-05 0)
(-0.00134605 1.10523e-05 0)
(-0.00135031 7.92948e-06 0)
(-0.00135316 4.83126e-06 0)
(-0.00135461 1.76185e-06 0)
(-0.00135468 -1.27475e-06 0)
(-0.00135338 -4.27584e-06 0)
(-0.00135074 -7.23837e-06 0)
(-0.00134675 -1.01593e-05 0)
(-0.00134145 -1.30359e-05 0)
(-0.00133486 -1.5866e-05 0)
(-0.00132699 -1.86478e-05 0)
(-0.00131787 -2.13795e-05 0)
(-0.00130751 -2.40602e-05 0)
(-0.00129595 -2.6689e-05 0)
(-0.00128322 -2.92642e-05 0)
(-0.00126932 -3.1784e-05 0)
(-0.0012543 -3.42475e-05 0)
(-0.00123818 -3.66533e-05 0)
(-0.00122098 -3.90001e-05 0)
(-0.00120273 -4.12863e-05 0)
(-0.00118346 -4.35114e-05 0)
(-0.0011632 -4.56746e-05 0)
(-0.00114197 -4.77753e-05 0)
(-0.00111981 -4.98136e-05 0)
(-0.00109673 -5.17896e-05 0)
(-0.00107277 -5.37036e-05 0)
(-0.00104796 -5.55542e-05 0)
(-0.00102232 -5.73431e-05 0)
(-0.000995893 -5.90698e-05 0)
(-0.000968699 -6.07349e-05 0)
(-0.000940769 -6.23367e-05 0)
(-0.000912132 -6.38747e-05 0)
(-0.000882814 -6.53476e-05 0)
(-0.000852841 -6.67565e-05 0)
(-0.000822237 -6.81043e-05 0)
(-0.000791031 -6.93931e-05 0)
(-0.000759254 -7.0624e-05 0)
(-0.000726938 -7.17969e-05 0)
(-0.000694114 -7.29111e-05 0)
(-0.000660806 -7.3965e-05 0)
(-0.000627038 -7.49566e-05 0)
(-0.000592833 -7.58845e-05 0)
(-0.000558216 -7.67493e-05 0)
(-0.000523214 -7.75542e-05 0)
(-0.000487856 -7.83027e-05 0)
(-0.000452169 -7.89982e-05 0)
(-0.00041618 -7.96425e-05 0)
(-0.000379917 -8.02343e-05 0)
(-0.000343402 -8.07715e-05 0)
(-0.000306659 -8.12511e-05 0)
(-0.000269712 -8.16708e-05 0)
(-0.000232587 -8.2032e-05 0)
(-0.000195313 -8.23366e-05 0)
(-0.000157909 -8.25835e-05 0)
(-0.000120366 -8.27538e-05 0)
(-8.27461e-05 -8.26564e-05 0)
(-4.60046e-05 -8.03327e-05 0)
(-1.09706e-05 -6.03491e-05 0)
(1.10311e-05 -9.63076e-05 0)
(4.65738e-05 -0.000115261 0)
(8.60541e-05 -0.000116546 0)
(0.000123837 -0.000117667 0)
(0.000161219 -0.00011856 0)
(0.000198356 -0.000118938 0)
(0.000235394 -0.000118926 0)
(0.000272347 -0.000118654 0)
(0.000309192 -0.000118195 0)
(0.000345895 -0.000117591 0)
(0.000382417 -0.000116869 0)
(0.000418722 -0.000116042 0)
(0.000454775 -0.000115121 0)
(0.000490545 -0.000114109 0)
(0.000526001 -0.00011301 0)
(0.000561114 -0.000111824 0)
(0.000595853 -0.000110553 0)
(0.000630191 -0.000109196 0)
(0.0006641 -0.000107754 0)
(0.000697551 -0.000106225 0)
(0.000730518 -0.000104609 0)
(0.000762972 -0.000102905 0)
(0.000794885 -0.000101113 0)
(0.00082623 -9.92328e-05 0)
(0.000856978 -9.72634e-05 0)
(0.000887103 -9.52048e-05 0)
(0.000916574 -9.30565e-05 0)
(0.000945364 -9.08182e-05 0)
(0.000973444 -8.84897e-05 0)
(0.00100078 -8.60705e-05 0)
(0.00102736 -8.35603e-05 0)
(0.00105314 -8.09589e-05 0)
(0.00107809 -7.82663e-05 0)
(0.00110219 -7.54826e-05 0)
(0.0011254 -7.26079e-05 0)
(0.00114771 -6.96424e-05 0)
(0.00116907 -6.65863e-05 0)
(0.00118946 -6.34401e-05 0)
(0.00120886 -6.02043e-05 0)
(0.00122723 -5.68797e-05 0)
(0.00124455 -5.34674e-05 0)
(0.00126079 -4.99685e-05 0)
(0.00127593 -4.63842e-05 0)
(0.00128993 -4.2716e-05 0)
(0.00130277 -3.89657e-05 0)
(0.00131442 -3.51354e-05 0)
(0.00132487 -3.12277e-05 0)
(0.00133408 -2.7245e-05 0)
(0.00134204 -2.31902e-05 0)
(0.00134871 -1.9066e-05 0)
(0.00135408 -1.48757e-05 0)
(0.00135814 -1.06225e-05 0)
(0.00136085 -6.31048e-06 0)
(0.0013622 -1.94376e-06 0)
(0.00136218 2.47377e-06 0)
(0.00136076 6.93815e-06 0)
(0.00135794 1.1445e-05 0)
(0.00135369 1.59894e-05 0)
(0.00134802 2.05663e-05 0)
(0.00134091 2.51704e-05 0)
(0.00133234 2.97962e-05 0)
(0.00132232 3.44378e-05 0)
(0.00131085 3.90892e-05 0)
(0.00129791 4.37441e-05 0)
(0.00128351 4.83956e-05 0)
(0.00126766 5.30368e-05 0)
(0.00125034 5.76607e-05 0)
(0.00123158 6.22603e-05 0)
(0.00121138 6.68287e-05 0)
(0.00118974 7.13586e-05 0)
(0.00116669 7.58425e-05 0)
(0.00114224 8.02729e-05 0)
(0.0011164 8.46422e-05 0)
(0.0010892 8.89429e-05 0)
(0.00106066 9.31674e-05 0)
(0.0010308 9.73085e-05 0)
(0.000999649 0.000101358 0)
(0.000967242 0.000105309 0)
(0.000933609 0.000109154 0)
(0.000898784 0.000112884 0)
(0.000862805 0.000116493 0)
(0.00082571 0.000119972 0)
(0.000787542 0.000123315 0)
(0.000748344 0.000126515 0)
(0.000708162 0.000129564 0)
(0.000667046 0.000132457 0)
(0.000625043 0.000135186 0)
(0.000582208 0.000137747 0)
(0.000538594 0.000140132 0)
(0.000494256 0.000142338 0)
(0.000449252 0.000144358 0)
(0.000403641 0.00014619 0)
(0.000357482 0.000147828 0)
(0.000310837 0.000149269 0)
(0.000263768 0.00015051 0)
(0.000216339 0.000151549 0)
(0.000168615 0.000152383 0)
(0.000120659 0.00015301 0)
(7.25385e-05 0.000153429 0)
(2.43204e-05 0.000153639 0)
(-2.39347e-05 0.000153639 0)
(-7.21528e-05 0.00015343 0)
(-0.000120274 0.000153011 0)
(-0.00016823 0.000152384 0)
(-0.000215956 0.00015155 0)
(-0.000263385 0.000150511 0)
(-0.000310455 0.000149269 0)
(-0.000357101 0.000147828 0)
(-0.000403261 0.00014619 0)
(-0.000448874 0.000144359 0)
(-0.000493879 0.000142339 0)
(-0.000538218 0.000140134 0)
(-0.000581834 0.00013775 0)
(-0.000624671 0.000135191 0)
(-0.000666675 0.000132463 0)
(-0.000707794 0.000129573 0)
(-0.000747977 0.000126526 0)
(-0.000787176 0.000123329 0)
(-0.000825347 0.000119988 0)
(-0.000862445 0.00011651 0)
(-0.000898427 0.000112903 0)
(-0.000933256 0.000109174 0)
(-0.000966892 0.000105331 0)
(-0.000999302 0.00010138 0)
(-0.00103045 9.7331e-05 0)
(-0.00106031 9.31903e-05 0)
(-0.00108886 8.89656e-05 0)
(-0.00111606 8.46647e-05 0)
(-0.0011419 8.0295e-05 0)
(-0.00116636 7.58641e-05 0)
(-0.00118941 7.13799e-05 0)
(-0.00121105 6.68503e-05 0)
(-0.00123126 6.22823e-05 0)
(-0.00125002 5.76832e-05 0)
(-0.00126734 5.30607e-05 0)
(-0.0012832 4.84218e-05 0)
(-0.0012976 4.37727e-05 0)
(-0.00131054 3.91204e-05 0)
(-0.00132202 3.44713e-05 0)
(-0.00133204 2.98315e-05 0)
(-0.00134061 2.5207e-05 0)
(-0.00134772 2.06031e-05 0)
(-0.0013534 1.60255e-05 0)
(-0.00135765 1.148e-05 0)
(-0.00136048 6.97154e-06 0)
(-0.0013619 2.5055e-06 0)
(-0.00136193 -1.91322e-06 0)
(-0.00136058 -6.28066e-06 0)
(-0.00135788 -1.05918e-05 0)
(-0.00135383 -1.48423e-05 0)
(-0.00134846 -1.9029e-05 0)
(-0.00134179 -2.3149e-05 0)
(-0.00133384 -2.71991e-05 0)
(-0.00132463 -3.11766e-05 0)
(-0.00131418 -3.50795e-05 0)
(-0.00130253 -3.8906e-05 0)
(-0.00128969 -4.26536e-05 0)
(-0.00127569 -4.63197e-05 0)
(-0.00126055 -4.9903e-05 0)
(-0.00124432 -5.34021e-05 0)
(-0.001227 -5.68152e-05 0)
(-0.00120863 -6.0141e-05 0)
(-0.00118923 -6.33782e-05 0)
(-0.00116884 -6.65253e-05 0)
(-0.00114748 -6.95812e-05 0)
(-0.00112518 -7.25465e-05 0)
(-0.00110197 -7.54207e-05 0)
(-0.00107787 -7.82034e-05 0)
(-0.00105291 -8.08942e-05 0)
(-0.00102713 -8.34938e-05 0)
(-0.00100056 -8.60024e-05 0)
(-0.000973218 -8.84194e-05 0)
(-0.000945139 -9.07456e-05 0)
(-0.00091635 -9.29796e-05 0)
(-0.000886879 -9.51207e-05 0)
(-0.000856752 -9.71707e-05 0)
(-0.000825994 -9.91307e-05 0)
(-0.000794634 -0.000101003 0)
(-0.000762701 -0.000102791 0)
(-0.000730228 -0.000104492 0)
(-0.000697244 -0.000106107 0)
(-0.000663776 -0.000107633 0)
(-0.000629845 -0.000109071 0)
(-0.000595477 -0.000110421 0)
(-0.000560698 -0.000111682 0)
(-0.000525534 -0.00011286 0)
(-0.000490017 -0.000113956 0)
(-0.000454172 -0.000114972 0)
(-0.000418026 -0.000115911 0)
(-0.000381602 -0.000116771 0)
(-0.000344923 -0.000117549 0)
(-0.000308013 -0.000118241 0)
(-0.000270898 -0.000118847 0)
(-0.000233609 -0.00011937 0)
(-0.000196172 -0.000119814 0)
(-0.000158602 -0.000120179 0)
(-0.000120896 -0.000120442 0)
(-8.31278e-05 -0.000120332 0)
(-4.62772e-05 -0.000117004 0)
(-1.10393e-05 -8.7997e-05 0)
(1.07875e-05 -0.000123409 0)
(4.56477e-05 -0.000153164 0)
(8.46907e-05 -0.000155114 0)
(0.000122964 -0.000155692 0)
(0.00016083 -0.000156157 0)
(0.000198378 -0.000156292 0)
(0.000235716 -0.00015612 0)
(0.000272891 -0.000155703 0)
(0.000309913 -0.000155085 0)
(0.000346765 -0.000154299 0)
(0.000383418 -0.000153366 0)
(0.000419842 -0.000152298 0)
(0.000456008 -0.000151105 0)
(0.000491888 -0.000149792 0)
(0.00052745 -0.000148363 0)
(0.000562668 -0.000146818 0)
(0.000597513 -0.00014516 0)
(0.000631956 -0.000143388 0)
(0.000665971 -0.000141502 0)
(0.000699529 -0.000139502 0)
(0.000732602 -0.000137388 0)
(0.000765164 -0.000135158 0)
(0.000797185 -0.000132812 0)
(0.000828638 -0.00013035 0)
(0.000859495 -0.000127771 0)
(0.000889729 -0.000125074 0)
(0.000919309 -0.000122259 0)
(0.000948209 -0.000119325 0)
(0.000976399 -0.000116272 0)
(0.00100385 -0.0001131 0)
(0.00103053 -0.000109808 0)
(0.00105642 -0.000106396 0)
(0.00108149 -0.000102863 0)
(0.0011057 -9.9211e-05 0)
(0.00112902 -9.54385e-05 0)
(0.00115143 -9.15464e-05 0)
(0.00117291 -8.75351e-05 0)
(0.00119341 -8.34051e-05 0)
(0.00121291 -7.91572e-05 0)
(0.00123139 -7.47925e-05 0)
(0.00124881 -7.03125e-05 0)
(0.00126516 -6.57184e-05 0)
(0.00128039 -6.10121e-05 0)
(0.00129449 -5.61955e-05 0)
(0.00130743 -5.1271e-05 0)
(0.00131917 -4.62413e-05 0)
(0.00132971 -4.11096e-05 0)
(0.00133901 -3.58791e-05 0)
(0.00134705 -3.05533e-05 0)
(0.0013538 -2.5136e-05 0)
(0.00135925 -1.96313e-05 0)
(0.00136338 -1.40435e-05 0)
(0.00136616 -8.37773e-06 0)
(0.00136757 -2.63916e-06 0)
(0.0013676 3.16663e-06 0)
(0.00136624 9.03433e-06 0)
(0.00136346 1.49583e-05 0)
(0.00135925 2.09322e-05 0)
(0.00135361 2.69492e-05 0)
(0.00134652 3.30023e-05 0)
(0.00133798 3.90841e-05 0)
(0.00132797 4.51869e-05 0)
(0.0013165 5.13026e-05 0)
(0.00130356 5.74228e-05 0)
(0.00128915 6.35388e-05 0)
(0.00127327 6.96416e-05 0)
(0.00125593 7.57222e-05 0)
(0.00123713 8.17716e-05 0)
(0.00121688 8.77804e-05 0)
(0.0011952 9.37389e-05 0)
(0.00117208 9.96375e-05 0)
(0.00114756 0.000105466 0)
(0.00112164 0.000111215 0)
(0.00109435 0.000116875 0)
(0.0010657 0.000122434 0)
(0.00103574 0.000127884 0)
(0.00100447 0.000133213 0)
(0.000971941 0.000138413 0)
(0.000938173 0.000143472 0)
(0.000903205 0.00014838 0)
(0.000867073 0.000153128 0)
(0.000829817 0.000157707 0)
(0.000791479 0.000162105 0)
(0.000752103 0.000166315 0)
(0.000711736 0.000170328 0)
(0.000670426 0.000174134 0)
(0.000628224 0.000177726 0)
(0.000585181 0.000181095 0)
(0.000541354 0.000184236 0)
(0.000496796 0.000187139 0)
(0.000451568 0.0001898 0)
(0.000405727 0.000192213 0)
(0.000359334 0.000194371 0)
(0.00031245 0.00019627 0)
(0.000265139 0.000197905 0)
(0.000217466 0.000199274 0)
(0.000169494 0.000200373 0)
(0.000121289 0.0002012 0)
(7.29181e-05 0.000201753 0)
(2.44485e-05 0.000202029 0)
(-2.40583e-05 0.00020203 0)
(-7.25281e-05 0.000201754 0)
(-0.0001209 0.000201203 0)
(-0.000169106 0.000200377 0)
(-0.000217078 0.000199279 0)
(-0.000264753 0.00019791 0)
(-0.000312064 0.000196275 0)
(-0.000358948 0.000194377 0)
(-0.000405342 0.000192219 0)
(-0.000451185 0.000189808 0)
(-0.000496415 0.000187147 0)
(-0.000540973 0.000184244 0)
(-0.000584803 0.000181105 0)
(-0.000627846 0.000177737 0)
(-0.00067005 0.000174146 0)
(-0.000711361 0.000170341 0)
(-0.00075173 0.00016633 0)
(-0.000791108 0.000162122 0)
(-0.000829448 0.000157724 0)
(-0.000866707 0.000153147 0)
(-0.000902843 0.0001484 0)
(-0.000937815 0.000143493 0)
(-0.000971586 0.000138435 0)
(-0.00100412 0.000133238 0)
(-0.00103539 0.00012791 0)
(-0.00106536 0.000122461 0)
(-0.001094 0.000116902 0)
(-0.0011213 0.000111243 0)
(-0.00114722 0.000105494 0)
(-0.00117175 9.96653e-05 0)
(-0.00119486 9.37664e-05 0)
(-0.00121655 8.78082e-05 0)
(-0.00123681 8.18002e-05 0)
(-0.00125561 7.57514e-05 0)
(-0.00127295 6.96714e-05 0)
(-0.00128883 6.35697e-05 0)
(-0.00130325 5.74553e-05 0)
(-0.00131619 5.13371e-05 0)
(-0.00132766 4.52233e-05 0)
(-0.00133767 3.91224e-05 0)
(-0.00134622 3.30427e-05 0)
(-0.00135331 2.6991e-05 0)
(-0.00135895 2.09741e-05 0)
(-0.00136316 1.49994e-05 0)
(-0.00136595 9.07423e-06 0)
(-0.00136732 3.20522e-06 0)
(-0.00136729 -2.6014e-06 0)
(-0.00136588 -8.33989e-06 0)
(-0.00136311 -1.40041e-05 0)
(-0.00135899 -1.95889e-05 0)
(-0.00135355 -2.50904e-05 0)
(-0.00134679 -3.05045e-05 0)
(-0.00133876 -3.58273e-05 0)
(-0.00132946 -4.10546e-05 0)
(-0.00131893 -4.61833e-05 0)
(-0.00130718 -5.12102e-05 0)
(-0.00129424 -5.61328e-05 0)
(-0.00128014 -6.09483e-05 0)
(-0.00126491 -6.56546e-05 0)
(-0.00124857 -7.02493e-05 0)
(-0.00123115 -7.47309e-05 0)
(-0.00121267 -7.90976e-05 0)
(-0.00119317 -8.33473e-05 0)
(-0.00117267 -8.74781e-05 0)
(-0.0011512 -9.1489e-05 0)
(-0.00112879 -9.53804e-05 0)
(-0.00110546 -9.91522e-05 0)
(-0.00108125 -0.000102803 0)
(-0.00105619 -0.000106335 0)
(-0.0010303 -0.000109745 0)
(-0.00100361 -0.000113035 0)
(-0.000976158 -0.000116205 0)
(-0.000947968 -0.000119256 0)
(-0.000919066 -0.000122187 0)
(-0.000889483 -0.000124997 0)
(-0.000859245 -0.000127687 0)
(-0.000828378 -0.000130258 0)
(-0.000796911 -0.000132714 0)
(-0.000764872 -0.000135056 0)
(-0.000732292 -0.000137285 0)
(-0.000699201 -0.0001394 0)
(-0.000665624 -0.000141401 0)
(-0.000631586 -0.000143288 0)
(-0.000597111 -0.000145062 0)
(-0.000562226 -0.000146724 0)
(-0.00052696 -0.000148275 0)
(-0.000491342 -0.000149719 0)
(-0.000455397 -0.000151055 0)
(-0.000419151 -0.000152284 0)
(-0.000382626 -0.000153408 0)
(-0.000345841 -0.000154422 0)
(-0.000308823 -0.000155324 0)
(-0.000271605 -0.000156116 0)
(-0.000234217 -0.000156804 0)
(-0.000196683 -0.000157392 0)
(-0.000159017 -0.000157877 0)
(-0.000121217 -0.000158229 0)
(-8.33613e-05 -0.000158095 0)
(-4.64335e-05 -0.000153747 0)
(-1.10896e-05 -0.00011575 0)
(1.07343e-05 -0.000150403 0)
(4.55124e-05 -0.000190723 0)
(8.40912e-05 -0.000193718 0)
(0.000122558 -0.000193943 0)
(0.000160689 -0.000194027 0)
(0.000198515 -0.000193901 0)
(0.000236104 -0.000193535 0)
(0.000273501 -0.000192937 0)
(0.000310716 -0.000192133 0)
(0.000347737 -0.000191144 0)
(0.000384544 -0.000189985 0)
(0.000421112 -0.000188666 0)
(0.000457415 -0.000187196 0)
(0.000493427 -0.000185578 0)
(0.00052912 -0.000183816 0)
(0.000564467 -0.000181912 0)
(0.000599439 -0.000179867 0)
(0.000634011 -0.00017768 0)
(0.000668153 -0.000175352 0)
(0.00070184 -0.000172882 0)
(0.000735043 -0.000170269 0)