/*--------------------------------*- C++ -*----------------------------------*\
| =========                 |                                                 |
| \\      /  F ield         | OpenFOAM: The Open Source CFD Toolbox           |
|  \\    /   O peration     | Version:  2412                                  |
|   \\  /    A nd           | Website:  www.openfoam.com                      |
|    \\/     M anipulation  |                                                 |
\*---------------------------------------------------------------------------*/
FoamFile
{
    version     2.0;
    format      ascii;
    arch        "LSB;label=32;scalar=64";
    class       volScalarField;
    location    "1.25";
    object      alpha.water;
}
// * * * * * * * * * * * * * * * * * * * * * * * * * * * * * * * * * * * * * //

dimensions      [0 0 0 0 0 0 0];

internalField   nonuniform List<scalar> 
40000
(
7.18484e-184
2.09729e-174
2.7654e-173
3.93441e-173
4.00559e-173
3.79472e-173
3.48298e-173
3.12264e-173
2.74102e-173
2.35738e-173
1.98619e-173
1.63844e-173
1.32224e-173
1.04284e-173
8.02898e-174
6.02686e-174
4.40454e-174
3.13031e-174
2.16044e-174
1.44554e-174
9.36083e-175
5.8572e-175
3.53576e-175
2.05527e-175
1.14728e-175
6.12757e-176
3.11836e-176
1.50459e-176
6.85568e-177
2.93537e-177
1.17419e-177
4.36387e-178
1.50204e-178
4.78365e-179
1.40797e-179
3.80518e-180
9.3463e-181
2.06161e-181
4.04311e-182
7.01288e-183
1.07305e-183
1.44317e-184
1.69633e-185
1.73182e-186
1.52782e-187
1.1603e-188
7.56211e-190
4.21481e-191
1.99843e-192
7.98401e-194
2.63624e-195
6.88314e-197
1.24856e-198
2.05976e-200
3.33106e-202
5.28168e-204
8.21092e-206
1.25133e-207
1.86882e-209
2.7339e-211
3.91544e-213
5.48643e-215
7.51642e-217
1.00606e-218
1.31454e-220
1.67529e-222
2.08054e-224
2.51537e-226
2.95742e-228
3.37776e-230
3.74308e-232
4.01942e-234
4.17678e-236
4.19401e-238
4.06301e-240
3.79108e-242
3.40082e-244
2.92721e-246
2.4124e-248
1.89915e-250
1.42459e-252
1.01539e-254
6.85602e-257
4.37063e-259
2.62074e-261
1.47195e-263
7.7072e-266
3.74191e-268
1.67412e-270
6.8522e-273
2.5439e-275
8.47846e-278
2.50477e-280
6.45512e-283
1.42123e-285
2.59848e-288
3.78677e-291
4.12353e-294
2.98352e-297
1.07837e-300
1.19718e-300
3.35572e-297
4.66108e-294
4.29088e-291
2.94807e-288
1.61336e-285
7.32886e-283
2.84343e-280
9.62161e-278
2.88552e-275
7.76781e-273
1.89655e-270
4.23595e-268
8.71788e-266
1.66359e-263
2.95938e-261
4.93095e-259
7.72784e-257
1.14343e-254
1.60266e-252
2.13442e-250
2.70848e-248
3.28305e-246
3.81016e-244
4.24274e-242
4.54197e-240
4.68301e-238
4.65824e-236
4.47729e-234
4.16424e-232
3.75297e-230
3.28159e-228
2.78726e-226
2.30219e-224
1.85109e-222
1.45031e-220
1.10826e-218
8.2669e-217
6.02432e-215
4.29199e-213
2.99148e-211
2.04105e-209
1.36393e-207
8.93065e-206
5.73144e-204
3.60579e-202
2.22373e-200
1.34407e-198
7.42605e-197
2.84121e-195
8.58347e-194
2.14103e-192
4.4964e-191
8.02837e-190
1.22537e-188
1.60461e-187
1.80872e-186
1.76203e-185
1.49138e-184
1.10363e-183
7.18095e-183
4.12304e-182
2.09451e-181
9.46444e-181
3.8426e-180
1.41844e-179
4.80944e-179
1.50764e-178
4.3738e-178
1.17537e-177
2.93512e-177
6.84868e-177
1.50183e-176
3.11035e-176
6.10738e-176
1.14274e-175
2.04602e-175
3.51852e-175
5.82736e-175
9.3121e-175
1.43798e-174
2.14917e-174
3.11405e-174
4.38177e-174
5.99583e-174
7.9881e-174
1.03766e-173
1.31595e-173
1.63124e-173
1.97851e-173
2.35012e-173
2.73599e-173
3.1241e-173
3.50113e-173
3.851e-173
4.13373e-173
4.14308e-173
2.91273e-173
2.04878e-174
5.7046e-184
2.345e-180
3.48118e-171
4.11449e-170
5.67983e-170
5.71604e-170
5.39966e-170
4.96765e-170
4.47669e-170
3.95612e-170
3.42894e-170
2.91411e-170
2.42695e-170
1.9792e-170
1.57895e-170
1.2309e-170
9.36535e-171
6.9451e-171
5.01445e-171
3.52005e-171
2.39834e-171
1.58331e-171
1.01112e-171
6.23656e-172
3.70834e-172
2.12015e-172
1.16145e-172
6.07318e-173
3.01738e-173
1.41966e-173
6.29605e-174
2.61663e-174
1.01315e-174
3.64135e-175
1.21303e-175
3.74103e-176
1.06213e-176
2.75139e-177
6.43136e-178
1.34291e-178
2.49062e-179
4.092e-180
5.93781e-181
7.57332e-182
8.4459e-183
8.20347e-184
6.92507e-185
5.07765e-186
3.23509e-187
1.79263e-188
8.64678e-190
3.63103e-191
1.32507e-192
4.17783e-194
1.19942e-195
3.36674e-197
9.23812e-199
2.47734e-200
6.4906e-202
1.66083e-203
4.14879e-205
1.01127e-206
2.40398e-208
5.57004e-210
1.25711e-211
2.76168e-213
5.901e-215
1.22539e-216
2.47076e-218
4.83255e-220
9.15917e-222
1.68028e-223
2.98009e-225
5.10304e-227
8.42507e-229
1.33908e-230
2.04559e-232
2.9981e-234
4.20787e-236
5.64376e-238
7.21751e-240
8.7791e-242
1.01294e-243
1.10534e-245
1.13699e-247
1.0984e-249
9.92466e-252
8.34814e-254
6.50219e-256
4.66064e-258
3.05222e-260
1.81076e-262
9.63178e-265
4.53578e-267
1.86101e-269
6.51538e-272
1.89187e-274
4.37318e-277
7.54372e-280
8.63368e-283
4.92548e-286
5.4564e-286
9.6633e-283
8.47914e-280
4.92666e-277
2.13416e-274
7.35552e-272
2.10188e-269
5.12373e-267
1.08802e-264
2.04516e-262
3.44643e-260
5.26074e-258
7.3363e-256
9.41445e-254
1.11863e-251
1.23729e-249
1.27995e-247
1.24349e-245
1.13873e-243
9.86194e-242
8.10143e-240
6.32983e-238
4.71543e-236
3.35683e-234
2.2883e-232
1.49658e-230
9.40708e-229
5.69227e-227
3.32084e-225
1.87048e-223
1.01851e-221
5.36794e-220
2.7414e-218
1.35804e-216
6.53195e-215
3.05319e-213
1.38804e-211
6.14212e-210
2.64729e-208
1.11206e-206
4.55568e-205
1.82097e-203
7.10532e-202
2.70755e-200
1.00795e-198
3.66691e-197
1.30396e-195
4.5333e-194
1.43597e-192
3.92629e-191
9.32166e-190
1.92521e-188
3.45881e-187
5.4014e-186
7.32636e-185
8.6293e-184
8.83323e-183
7.87634e-182
6.14281e-181
4.21257e-180
2.55236e-179
1.37041e-178
6.53828e-178
2.78804e-177
1.07333e-176
3.77156e-176
1.22043e-175
3.65743e-175
1.01614e-174
2.621e-174
6.29963e-174
1.41915e-173
3.01392e-173
6.06205e-173
1.15857e-172
2.11369e-172
3.69537e-172
6.21282e-172
1.00709e-171
1.57683e-171
2.38851e-171
3.50581e-171
4.99467e-171
6.91873e-171
9.33149e-171
1.22675e-170
1.57419e-170
1.97419e-170
2.42244e-170
2.91136e-170
3.43001e-170
3.96453e-170
4.49884e-170
5.01552e-170
5.49403e-170
5.88225e-170
5.90418e-170
4.23097e-170
3.32488e-171
1.88652e-180
2.3435e-177
1.89006e-168
2.05757e-167
2.79098e-167
2.79064e-167
2.6326e-167
2.42707e-167
2.19672e-167
1.95261e-167
1.70421e-167
1.45986e-167
1.22664e-167
1.0102e-167
8.14645e-168
6.42596e-168
4.95219e-168
3.72361e-168
2.72909e-168
1.94688e-168
1.34949e-168
9.07295e-169
5.90688e-169
3.71793e-169
2.25822e-169
1.32019e-169
7.40422e-170
3.96957e-170
2.02592e-170
9.81598e-171
4.49568e-171
1.93475e-171
7.77571e-172
2.90599e-172
1.00787e-172
3.23973e-173
9.60247e-174
2.60386e-174
6.39223e-175
1.40587e-175
2.75254e-176
4.78327e-177
7.35581e-178
9.96222e-179
1.18187e-179
1.22332e-180
1.10256e-181
8.65083e-183
5.91537e-184
3.53252e-185
1.84749e-186
8.48939e-188
3.43889e-189
1.23182e-190
4.01896e-192
1.27897e-193
3.96991e-195
1.20182e-196
3.54789e-198
1.02112e-199
2.86437e-201
7.82847e-203
2.0837e-204
5.39871e-206
1.36081e-207
3.33489e-209
7.9403e-211
1.83537e-212
4.115e-214
8.94075e-216
1.8806e-217
3.8253e-219
7.51572e-221
1.4245e-222
2.60105e-224
4.56865e-226
7.70711e-228
1.24655e-229
1.92944e-231
2.85215e-233
4.0176e-235
5.37973e-237
6.82954e-239
8.19552e-241
9.26598e-243
9.83434e-245
9.75775e-247
9.00903e-249
7.69864e-251
6.05176e-253
4.34464e-255
2.82438e-257
1.64559e-259
8.48496e-262
3.81033e-264
1.45949e-266
4.63489e-269
1.17129e-271
2.20808e-274
2.76073e-277
1.71992e-280
1.9108e-280
3.09925e-277
2.48973e-274
1.32392e-271
5.24658e-269
1.65363e-266
4.31955e-264
9.62174e-262
1.86625e-259
3.20296e-257
4.92617e-255
6.85999e-253
8.72384e-251
1.02045e-248
1.10474e-246
1.11282e-244
1.04791e-242
9.2627e-241
7.71373e-239
6.07195e-237
4.5312e-235
3.21426e-233
2.17264e-231
1.40249e-229
8.66366e-228
5.13102e-226
2.91847e-224
1.5968e-222
8.41635e-221
4.2793e-219
2.10158e-217
9.98048e-216
4.58843e-214
2.04419e-212
8.83331e-211
3.70547e-209
1.51014e-207
5.98344e-206
2.30631e-204
8.65292e-203
3.16151e-201
1.12538e-199
3.90413e-198
1.32038e-196
4.3543e-195
1.40039e-193
4.39259e-192
1.34381e-190
3.74511e-189
9.22193e-188
2.00019e-186
3.80867e-185
6.34687e-184
9.23133e-183
1.16963e-181
1.2898e-180
1.23848e-179
1.03776e-178
7.62e-178
4.92972e-177
2.82337e-176
1.43574e-175
6.50277e-175
2.64021e-174
9.70987e-174
3.26817e-173
1.0146e-172
2.92038e-172
7.80255e-172
1.93895e-171
4.50046e-171
9.81733e-171
2.02464e-170
3.96448e-170
7.39029e-170
1.31704e-169
2.25192e-169
3.70655e-169
5.88784e-169
9.04293e-169
1.34502e-168
1.9406e-168
2.72069e-168
3.71293e-168
4.93931e-168
6.41148e-168
8.13189e-168
1.00901e-167
1.22616e-167
1.46081e-167
1.70766e-167
1.96021e-167
2.21111e-167
2.45249e-167
2.67523e-167
2.85562e-167
2.86635e-167
2.08223e-167
1.79314e-168
1.9344e-177
1.2574e-174
5.57384e-166
5.63618e-165
7.55648e-165
7.53215e-165
7.10628e-165
6.56708e-165
5.96847e-165
5.33443e-165
4.68666e-165
4.04538e-165
3.42846e-165
2.85069e-165
2.32327e-165
1.85394e-165
1.44687e-165
1.10287e-165
8.20377e-166
5.94654e-166
4.19269e-166
2.87025e-166
1.90466e-166
1.2231e-166
7.58628e-167
4.53332e-167
2.60169e-167
1.42928e-167
7.48817e-168
3.73382e-168
1.76485e-168
7.85964e-169
3.27636e-169
1.27225e-169
4.58949e-170
1.53575e-170
4.74483e-171
1.34455e-171
3.45996e-172
7.99726e-173
1.64834e-173
3.01924e-174
4.90001e-175
7.01067e-176
8.79123e-177
9.61901e-178
9.16195e-179
7.59285e-180
5.48002e-181
3.45149e-182
1.90263e-183
9.21296e-185
3.93478e-186
1.48873e-187
5.09606e-189
1.69908e-190
5.51826e-192
1.74587e-193
5.38053e-195
1.61505e-196
4.72062e-198
1.34318e-199
3.719e-201
1.00154e-202
2.62197e-204
6.66859e-206
1.64661e-207
3.94432e-209
9.15838e-211
2.0594e-212
4.4804e-214
9.42086e-216
1.91234e-217
3.74289e-219
7.05402e-221
1.27828e-222
2.2238e-224
3.7077e-226
5.91361e-228
9.00456e-230
1.3061e-231
1.80031e-233
2.3519e-235
2.90343e-237
3.37603e-239
3.68399e-241
3.75718e-243
3.56464e-245
3.12944e-247
2.52663e-249
1.86259e-251
1.24305e-253
7.43346e-256
3.93302e-258
1.81197e-260
7.11893e-263
2.31839e-265
6.00705e-268
1.16085e-270
1.48756e-273
9.49712e-277
1.06314e-276
1.68313e-273
1.31941e-270
6.84475e-268
2.64574e-265
8.13185e-263
2.07098e-260
4.49657e-258
8.49949e-256
1.42125e-253
2.12923e-251
2.88755e-249
3.57519e-247
4.07064e-245
4.28838e-243
4.20252e-241
3.84889e-239
3.30793e-237
2.67769e-235
2.04819e-233
1.48478e-231
1.0228e-229
6.71133e-228
4.2041e-226
2.51919e-224
1.44669e-222
7.97539e-221
4.22741e-219
2.1576e-217
1.06174e-215
5.04376e-214
2.31565e-212
1.02857e-210
4.4244e-209
1.84471e-207
7.46121e-206
2.92973e-204
1.11758e-202
4.14409e-201
1.49456e-199
5.24481e-198
1.79162e-196
5.95924e-195
1.93043e-193
6.09102e-192
1.87204e-190
5.60424e-189
1.63396e-187
4.30998e-186
1.00625e-184
2.07031e-183
3.73844e-182
5.90388e-181
8.13128e-180
9.74878e-179
1.01674e-177
9.23124e-177
7.31511e-176
5.08285e-175
3.11511e-174
1.69225e-173
8.17282e-173
3.52184e-172
1.36406e-171
4.80045e-171
1.55e-170
4.62217e-170
1.27906e-169
3.2889e-169
7.87955e-169
1.76737e-168
3.73571e-168
7.48631e-168
1.42802e-167
2.59791e-167
4.52454e-167
7.56876e-167
1.21997e-166
1.8995e-166
2.86225e-166
4.18103e-166
5.93054e-166
8.18307e-166
1.10035e-165
1.44399e-165
1.85096e-165
2.32069e-165
2.84931e-165
3.42954e-165
4.05072e-165
4.69885e-165
5.35719e-165
6.00712e-165
6.62918e-165
7.20098e-165
7.66274e-165
7.68899e-165
5.65134e-165
5.29537e-166
1.06497e-174
4.4581e-172
1.08204e-163
1.01723e-162
1.35139e-162
1.34567e-162
1.27122e-162
1.17814e-162
1.07531e-162
9.6632e-163
8.54524e-163
7.43168e-163
6.35222e-163
5.3322e-163
4.39163e-163
3.54518e-163
2.80184e-163
2.1651e-163
1.63466e-163
1.20407e-163
8.63635e-164
6.02094e-164
4.07301e-164
2.66882e-164
1.69056e-164
1.03265e-164
6.06434e-165
3.4136e-165
1.83575e-165
9.41979e-166
4.59533e-166
2.11811e-166
9.16065e-167
3.69719e-167
1.38756e-167
4.83384e-168
1.55673e-168
4.61026e-169
1.24398e-169
3.02303e-170
6.56157e-171
1.26704e-171
2.17033e-172
3.2807e-173
4.34839e-174
5.02835e-175
5.05867e-176
4.42345e-177
3.36379e-178
2.22834e-179
1.28938e-180
6.53942e-182
2.91893e-183
1.15182e-184
4.08204e-186
1.40744e-187
4.72222e-189
1.542e-190
4.90067e-192
1.51573e-193
4.56137e-195
1.3352e-196
3.80022e-198
1.05121e-199
2.82465e-201
7.36853e-203
1.86492e-204
4.57606e-206
1.08777e-207
2.5028e-209
5.56863e-211
1.19691e-212
2.48246e-214
4.96235e-216
9.54785e-218
1.76571e-219
3.13368e-221
5.32822e-223
8.66371e-225
1.34447e-226
1.98688e-228
2.78947e-230
3.71065e-232
4.66319e-234
5.51834e-236
6.12692e-238
6.35629e-240
6.13302e-242
5.47451e-244
4.4931e-246
3.36634e-248
2.28285e-250
1.3869e-252
7.45352e-255
3.48731e-257
1.39116e-259
4.59939e-262
1.20963e-264
2.37234e-267
3.08475e-270
1.99813e-273
2.26055e-273
3.52757e-270
2.72517e-267
1.39299e-264
5.3045e-262
1.60589e-259
4.02769e-257
8.61068e-255
1.6023e-252
2.63713e-250
3.88786e-248
5.18746e-246
6.31787e-244
7.07433e-242
7.32775e-240
7.05893e-238
6.35349e-236
5.36504e-234
4.26584e-232
3.20422e-230
2.28035e-228
1.54167e-226
9.92515e-225
6.09806e-223
3.58282e-221
2.01666e-219
1.0893e-217
5.65511e-216
2.82574e-214
1.36079e-212
6.32329e-211
2.83837e-209
1.23201e-207
5.17588e-206
2.10645e-204
8.31105e-203
3.18132e-201
1.18218e-199
4.26716e-198
1.4969e-196
5.10556e-195
1.69376e-193
5.4669e-192
1.71711e-190
5.24875e-189
1.56135e-187
4.51924e-186
1.27248e-184
3.21729e-183
7.18447e-182
1.41062e-180
2.42542e-179
3.63962e-178
4.75473e-177
5.39946e-176
5.32857e-175
4.57534e-174
3.42868e-173
2.25422e-172
1.30863e-171
6.74184e-171
3.09129e-170
1.26685e-169
4.67929e-169
1.57568e-168
4.88073e-168
1.39793e-167
3.71812e-167
9.19826e-167
2.12405e-166
4.60313e-166
9.42718e-166
1.83582e-165
3.41163e-165
6.05738e-165
1.03098e-164
1.68722e-164
2.6629e-164
4.06339e-164
6.00625e-164
8.61534e-164
1.20125e-163
1.63111e-163
2.16089e-163
2.79723e-163
3.54069e-163
4.38817e-163
5.33115e-163
6.35562e-163
7.44232e-163
8.56689e-163
9.70092e-163
1.08134e-162
1.18727e-162
1.28426e-162
1.36232e-162
1.36628e-162
1.01509e-162
1.0325e-163
3.85882e-172
1.15242e-169
1.5173e-161
1.32387e-160
1.74416e-160
1.73697e-160
1.64434e-160
1.52899e-160
1.40177e-160
1.26667e-160
1.12748e-160
9.87964e-161
8.51691e-161
7.21776e-161
6.00769e-161
4.90637e-161
3.92709e-161
3.07671e-161
2.35816e-161
1.76545e-161
1.28852e-161
9.15056e-162
6.31218e-162
4.22156e-162
2.73177e-162
1.70607e-162
1.02539e-162
5.91474e-163
3.26525e-163
1.72452e-163
8.68537e-164
4.14514e-164
1.86105e-164
7.81203e-165
3.05216e-165
1.10752e-165
3.71936e-166
1.15183e-166
3.26185e-167
8.34356e-168
1.90931e-168
3.89098e-169
7.04281e-170
1.12635e-170
1.58054e-171
1.93495e-172
2.05979e-173
1.90399e-174
1.52838e-175
1.06677e-176
6.48927e-178
3.45141e-179
1.61124e-180
6.63111e-182
2.43426e-183
8.68414e-185
3.01177e-186
1.01563e-187
3.33024e-189
1.06169e-190
3.29013e-192
9.9084e-194
2.89886e-195
8.23594e-197
2.27125e-198
6.07652e-200
1.57626e-201
3.9618e-203
9.64113e-205
2.26974e-206
5.16466e-208
1.13474e-209
2.40471e-211
4.90941e-213
9.64349e-215
1.81999e-216
3.29507e-218
5.71348e-220
9.47078e-222
1.49781e-223
2.25511e-225
3.22463e-227
4.36766e-229
5.58734e-231
6.72881e-233
7.60102e-235
8.02099e-237
7.87032e-239
7.14263e-241
5.95883e-243
4.53715e-245
3.12627e-247
1.92944e-249
1.05318e-251
5.00389e-254
2.02672e-256
6.80203e-259
1.81569e-261
3.61363e-264
4.76754e-267
3.13284e-270
3.58823e-270
5.51906e-267
4.20183e-264
2.11632e-261
7.93949e-259
2.36759e-256
5.84809e-254
1.23107e-251
2.25527e-249
3.65354e-247
5.30072e-245
6.95876e-243
8.33699e-241
9.18102e-239
9.35072e-237
8.85484e-235
7.83277e-233
6.49872e-231
5.07571e-229
3.74399e-227
2.61582e-225
1.73566e-223
1.09634e-221
6.60683e-220
3.80603e-218
2.09978e-216
1.11127e-214
5.65041e-213
2.76414e-211
1.30264e-209
5.92084e-208
2.59844e-206
1.10215e-204
4.52236e-203
1.79655e-201
6.91494e-200
2.58048e-198
9.34181e-197
3.28253e-195
1.12003e-193
3.71248e-192
1.19579e-190
3.74387e-189
1.13958e-187
3.3726e-186
9.70435e-185
2.7143e-183
7.37696e-182
1.78776e-180
3.8155e-179
7.14007e-178
1.16707e-176
1.66112e-175
2.05441e-174
2.20553e-173
2.05572e-172
1.66638e-171
1.179e-170
7.32407e-170
4.0227e-169
1.96325e-168
8.53659e-168
3.32322e-167
1.16954e-166
3.76613e-166
1.11867e-165
3.07587e-165
7.85812e-165
1.86909e-164
4.15763e-164
8.70196e-164
1.72625e-163
3.26612e-163
5.91271e-163
1.02445e-162
1.70372e-162
2.72703e-162
4.21323e-162
6.29883e-162
9.13045e-162
1.28569e-161
1.76172e-161
2.35354e-161
3.07135e-161
3.92134e-161
4.90091e-161
6.00362e-161
7.21668e-161
8.52108e-161
9.892e-161
1.12991e-160
1.27077e-160
1.4081e-160
1.53817e-160
1.6568e-160
1.75192e-160
1.75591e-160
1.31805e-160
1.45497e-161
1.015e-169
2.29255e-167
1.61719e-159
1.3061e-158
1.70668e-158
1.70076e-158
1.6143e-158
1.50657e-158
1.38767e-158
1.26102e-158
1.1299e-158
9.97631e-159
8.67438e-159
7.4221e-159
6.24383e-159
5.15926e-159
4.18271e-159
3.32293e-159
2.58606e-159
1.96837e-159
1.4623e-159
1.05819e-159
7.44647e-160
5.0852e-160
3.36283e-160
2.148e-160
1.32161e-160
7.81372e-161
4.42894e-161
2.40813e-161
1.25259e-161
6.19311e-162
2.88857e-162
1.26219e-162
5.13809e-163
1.94333e-163
6.8094e-164
2.20682e-164
6.56616e-165
1.77037e-165
4.27724e-166
9.21145e-167
1.76444e-167
2.99087e-168
4.45227e-169
5.78332e-170
6.53003e-171
6.39717e-172
5.43518e-173
4.00814e-174
2.57044e-175
1.43765e-176
7.03826e-178
3.02879e-179
1.15518e-180
4.27704e-182
1.53778e-183
5.36969e-185
1.82096e-186
5.99682e-188
1.91759e-189
5.95296e-191
1.79369e-192
5.24399e-194
1.487e-195
4.0878e-197
1.08884e-198
2.80841e-200
7.00927e-202
1.69144e-203
3.94305e-205
8.87115e-207
1.92415e-208
4.01885e-210
8.07272e-212
1.55737e-213
2.88111e-215
5.10278e-217
8.63678e-219
1.39424e-220
2.14203e-222
3.1245e-224
4.31583e-226
5.62878e-228
6.90914e-230
7.9528e-232
8.5493e-234
8.54367e-236
7.89514e-238
6.70524e-240
5.1963e-242
3.64338e-244
2.28764e-246
1.27015e-248
6.13719e-251
2.52747e-253
8.62351e-256
2.33972e-258
4.73224e-261
6.34374e-264
4.23488e-267
4.9173e-267
7.44388e-264
5.57695e-261
2.76371e-258
1.01996e-255
2.99159e-253
7.26667e-251
1.50402e-248
2.70852e-246
4.31247e-244
6.14806e-242
7.92931e-240
9.3308e-238
1.00904e-235
1.00895e-233
9.3779e-232
8.14016e-230
6.62558e-228
5.07521e-226
3.67053e-224
2.5137e-222
1.63436e-220
1.01126e-218
5.96761e-217
3.36525e-215
1.81675e-213
9.40486e-212
4.67567e-210
2.23549e-208
1.02917e-206
4.56767e-205
1.95639e-203
8.09443e-202
3.23795e-200
1.25328e-198
4.6971e-197
1.70562e-195
6.00406e-194
2.04982e-192
6.78994e-191
2.18287e-189
6.81252e-188
2.06433e-186
6.07433e-185
1.73578e-183
4.81691e-182
1.29796e-180
3.39468e-179
7.86491e-178
1.59986e-176
2.84534e-175
4.40864e-174
5.93488e-173
6.92986e-172
7.01478e-171
6.16023e-170
4.70348e-169
3.13546e-168
1.8371e-167
9.53239e-167
4.40124e-166
1.81222e-165
6.69215e-165
2.24153e-164
6.89751e-164
1.96353e-163
5.17929e-163
1.26988e-162
2.90154e-162
6.21282e-162
1.2552e-161
2.41098e-161
4.43096e-161
7.81256e-161
1.32066e-160
2.14544e-160
3.35763e-160
5.07612e-160
7.43208e-160
1.05605e-159
1.45933e-159
1.96451e-159
2.58135e-159
3.31752e-159
4.17694e-159
5.15375e-159
6.23955e-159
7.42038e-159
8.67707e-159
9.98568e-159
1.13178e-158
1.26417e-158
1.39242e-158
1.51327e-158
1.62308e-158
1.71075e-158
1.71341e-158
1.29907e-158
1.55789e-159
2.04724e-167
3.62633e-165
1.34989e-157
1.00595e-156
1.30358e-156
1.30024e-156
1.23779e-156
1.1597e-156
1.07335e-156
9.81033e-157
8.8494e-157
7.8737e-157
6.90577e-157
5.96636e-157
5.07343e-157
4.24208e-157
3.48398e-157
2.80718e-157
2.21891e-157
1.71766e-157
1.29936e-157
9.58545e-158
6.88443e-158
4.80301e-158
3.24751e-158
2.1225e-158
1.33739e-158
8.10682e-159
4.71914e-159
2.64245e-159
1.42016e-159
7.27869e-160
3.52978e-160
1.60721e-160
6.8238e-161
2.69241e-161
9.85041e-162
3.34365e-162
1.0466e-162
2.9791e-163
7.61102e-164
1.73471e-164
3.5221e-165
6.34035e-166
1.00352e-166
1.38648e-167
1.66484e-168
1.73338e-169
1.5634e-170
1.22188e-171
8.28722e-173
4.88987e-174
2.51856e-175
1.13688e-176
4.52218e-178
1.74393e-179
6.52033e-181
2.36382e-182
8.3105e-184
2.83372e-185
9.37159e-187
3.00587e-188
9.34885e-190
2.81886e-191
8.23706e-193
2.33171e-194
6.39096e-196
1.69508e-197
4.3477e-199
1.07757e-200
2.57857e-202
5.95191e-204
1.32382e-205
2.83402e-207
5.83226e-209
1.15223e-210
2.18204e-212
3.95457e-214
6.8466e-216
1.13016e-217
1.77484e-219
2.64552e-221
3.73299e-223
4.97212e-225
6.2311e-227
7.32077e-229
8.03066e-231
8.1873e-233
7.71662e-235
6.6827e-237
5.27965e-239
3.77307e-241
2.41416e-243
1.36563e-245
6.72145e-248
2.81911e-250
9.79399e-253
2.70526e-255
5.56937e-258
7.59802e-261
5.16097e-264
6.08374e-264
9.04973e-261
6.66131e-258
3.24272e-255
1.17538e-252
3.38532e-250
8.07334e-248
1.64025e-245
2.89895e-243
4.52897e-241
6.3341e-239
8.01236e-237
9.2454e-235
9.80155e-233
9.60574e-231
8.74852e-229
7.43901e-227
5.92983e-225
4.44718e-223
3.14808e-221
2.10951e-219
1.34161e-217
8.11726e-216
4.68232e-214
2.58007e-212
1.36049e-210
6.87642e-209
3.3364e-207
1.55609e-205
6.98509e-204
3.02123e-202
1.26043e-200
5.07668e-199
1.97577e-197
7.4356e-196
2.70774e-194
9.54686e-193
3.26057e-191
1.07916e-189
3.46239e-188
1.07713e-186
3.2496e-185
9.50793e-184
2.6979e-182
7.42351e-181
1.98053e-179
5.12275e-178
1.2845e-176
2.83589e-175
5.4802e-174
9.23258e-173
1.35162e-171
1.7155e-170
1.88543e-169
1.79441e-168
1.48073e-167
1.06228e-166
6.65688e-166
3.67141e-165
1.79682e-164
7.83702e-164
3.05083e-163
1.06702e-162
3.39732e-162
9.98118e-162
2.7212e-161
6.87999e-161
1.61726e-160
3.5461e-160
7.30285e-160
1.42333e-159
2.64599e-159
4.72207e-159
8.10697e-159
1.33664e-158
2.1203e-158
3.24298e-158
4.79516e-158
6.87214e-158
9.56744e-158
1.29689e-157
1.71449e-157
2.21507e-157
2.80279e-157
3.47927e-157
4.23748e-157
5.06959e-157
5.96412e-157
6.90628e-157
7.8783e-157
8.8596e-157
9.82777e-157
1.07598e-156
1.16335e-156
1.24245e-156
1.30531e-156
1.30633e-156
1.00022e-156
1.30568e-157
3.27469e-165
4.65743e-163
8.98182e-156
6.15261e-155
7.90556e-155
7.89344e-155
7.5379e-155
7.09123e-155
6.59594e-155
6.06421e-155
5.50764e-155
4.93866e-155
4.36971e-155
3.8125e-155
3.2774e-155
2.77343e-155
2.30794e-155
1.88646e-155
1.51499e-155
1.1932e-155
9.19522e-156
6.91862e-156
5.07462e-156
3.61919e-156
2.50357e-156
1.67525e-156
1.08156e-156
6.72451e-157
4.02156e-157
2.3199e-157
1.28893e-157
6.85271e-158
3.45858e-158
1.64295e-158
7.28434e-159
3.00142e-159
1.1475e-159
4.08372e-160
1.34658e-160
4.05371e-161
1.09707e-161
2.65052e-162
5.71434e-163
1.09481e-163
1.84688e-164
2.72113e-165
3.48454e-166
3.86735e-167
3.71462e-168
3.08703e-169
2.22186e-170
1.38789e-171
7.54698e-173
3.58596e-174
1.49525e-175
6.02363e-177
2.34792e-178
8.85938e-180
3.2373e-181
1.14584e-182
3.92908e-184
1.30523e-185
4.20032e-187
1.30918e-188
3.95115e-190
1.15425e-191
3.26236e-193
8.9164e-195
2.35505e-196
6.00695e-198
1.47843e-199
3.5079e-201
8.01604e-203
1.76221e-204
3.72229e-206
7.54461e-208
1.46521e-209
2.72209e-211
4.82922e-213
8.16547e-215
1.31308e-216
2.00348e-218
2.89293e-220
3.94183e-222
5.05206e-224
6.06859e-226
6.80443e-228
7.0889e-230
6.82582e-232
6.03762e-234
4.87084e-236
3.55371e-238
2.32085e-240
1.33973e-242
6.72762e-245
2.87831e-247
1.01983e-249
2.87238e-252
6.02865e-255
8.3833e-258
5.80314e-261
6.95583e-261
1.01511e-257
7.32948e-255
3.49931e-252
1.24375e-249
3.51201e-247
8.20972e-245
1.63462e-242
2.83069e-240
4.33215e-238
5.93399e-236
7.34994e-234
8.3025e-232
8.61457e-230
8.26069e-228
7.3596e-226
6.12e-224
4.7695e-222
3.4961e-220
2.41813e-218
1.58274e-216
9.82893e-215
5.80479e-213
3.26721e-211
1.75597e-209
9.02769e-208
4.44684e-206
2.10175e-204
9.54428e-203
4.16936e-201
1.75403e-199
7.11353e-198
2.78357e-196
1.05181e-194
3.84064e-193
1.35603e-191
4.63197e-190
1.53139e-188
4.90214e-187
1.51976e-185
4.56386e-184
1.32766e-182
3.7413e-181
1.02113e-179
2.69871e-178
6.90362e-177
1.70853e-175
4.08708e-174
8.56811e-173
1.56731e-171
2.49235e-170
3.43544e-169
4.09704e-168
4.2246e-167
3.76872e-166
2.91398e-165
1.95899e-164
1.15117e-163
5.96336e-163
2.74791e-162
1.13038e-161
4.15291e-161
1.37322e-160
4.15045e-160
1.1631e-159
3.03435e-159
7.34566e-159
1.65342e-158
3.47493e-158
6.87624e-158
1.29196e-157
2.32333e-157
4.02464e-157
6.72563e-157
1.0811e-156
1.67374e-156
2.50041e-156
3.61374e-156
5.0662e-156
6.90642e-156
9.1787e-156
1.1911e-155
1.51247e-155
1.88357e-155
2.30481e-155
2.7703e-155
3.27459e-155
3.81044e-155
4.36894e-155
4.93979e-155
5.51134e-155
6.07113e-155
6.60665e-155
7.10615e-155
7.5567e-155
7.9129e-155
7.91253e-155
6.11772e-155
8.71864e-156
4.24513e-163
4.92317e-161
4.80863e-154
3.01399e-153
3.8393e-153
3.83762e-153
3.6768e-153
3.47349e-153
3.24739e-153
3.00358e-153
2.74688e-153
2.48263e-153
2.21626e-153
1.95299e-153
1.69753e-153
1.45412e-153
1.22635e-153
1.01714e-153
8.30239e-154
6.65603e-154
5.22816e-154
4.0145e-154
3.00925e-154
2.19567e-154
1.55515e-154
1.06621e-154
7.05781e-155
4.50348e-155
2.76829e-155
1.64601e-155
9.45991e-156
5.22144e-156
2.74571e-156
1.36268e-156
6.31847e-157
2.72223e-157
1.08871e-157
4.06667e-158
1.41485e-158
4.51346e-159
1.2965e-159
3.32623e-160
7.62931e-161
1.55939e-161
2.81125e-162
4.42946e-163
6.06706e-164
7.2008e-165
7.39052e-166
6.55392e-167
5.02407e-168
3.33471e-169
1.92164e-170
9.64736e-172
4.23683e-173
1.78782e-174
7.28636e-176
2.87001e-177
1.09311e-178
4.02723e-180
1.43555e-181
4.95166e-183
1.65276e-184
5.33764e-186
1.66759e-187
5.03846e-189
1.47166e-190
4.15348e-192
1.13203e-193
2.97751e-195
7.5521e-197
1.84555e-198
4.34114e-200
9.81836e-202
2.13262e-203
4.44279e-205
8.86426e-207
1.69115e-208
3.07979e-210
5.34347e-212
8.81401e-214
1.37898e-215
2.04106e-217
2.84986e-219
3.74172e-221
4.603e-223
5.28415e-225
5.63476e-227
5.55205e-229
5.0241e-231
4.1456e-233
3.09282e-235
2.06496e-237
1.21837e-239
6.25216e-242
2.7329e-244
9.89113e-247
2.84514e-249
6.09738e-252
8.65599e-255
6.11582e-258
7.46776e-258
1.06751e-254
7.54885e-252
3.52909e-249
1.22802e-246
3.39419e-244
7.76481e-242
1.5127e-239
2.56254e-237
3.83557e-235
5.13716e-233
6.22027e-231
6.86719e-229
6.96211e-227
6.5215e-225
5.67405e-223
4.60655e-221
3.50394e-219
2.50607e-217
1.69074e-215
1.07907e-213
6.53188e-212
3.75882e-210
2.06066e-208
1.07829e-206
5.3951e-205
2.58513e-203
1.18799e-201
5.24275e-200
2.22453e-198
9.08478e-197
3.57445e-195
1.35612e-193
4.96489e-192
1.75525e-190
5.99558e-189
1.97969e-187
6.32127e-186
1.95244e-184
5.83445e-183
1.68699e-181
4.7196e-180
1.2774e-178
3.34399e-177
8.46368e-176
2.07007e-174
4.88934e-173
1.11005e-171
2.20123e-170
3.79685e-169
5.67724e-168
7.34041e-167
8.19562e-166
7.90111e-165
6.58532e-164
4.75653e-163
2.98802e-162
1.64206e-161
7.9706e-161
3.45151e-160
1.33669e-159
4.6254e-159
1.44314e-158
4.13419e-158
1.10383e-157
2.75279e-157
6.37262e-157
1.37148e-156
2.75889e-156
5.23986e-156
9.48317e-156
1.64864e-155
2.77078e-155
4.50484e-155
7.05569e-155
1.06537e-154
1.55337e-154
2.19263e-154
3.0046e-154
4.00784e-154
5.21925e-154
6.64485e-154
8.28905e-154
1.0156e-153
1.22467e-153
1.45239e-153
1.69589e-153
1.95161e-153
2.21534e-153
2.48239e-153
2.74755e-153
3.00536e-153
3.25045e-153
3.47791e-153
3.68237e-153
3.84306e-153
3.83948e-153
2.99752e-153
4.68247e-154
4.5233e-161
4.31924e-159
2.07718e-152
1.1846e-151
1.49573e-151
1.49681e-151
1.43895e-151
1.36527e-151
1.28307e-151
1.19402e-151
1.09971e-151
1.00193e-151
9.02567e-152
8.03442e-152
7.06245e-152
6.12532e-152
5.23675e-152
4.40863e-152
3.65917e-152
2.9877e-152
2.3934e-152
1.8768e-152
1.43903e-152
1.07522e-152
7.80547e-153
5.48853e-153
3.7286e-153
2.44368e-153
1.545e-153
9.47498e-154
5.63716e-154
3.2333e-154
1.77379e-154
9.21234e-155
4.47533e-155
2.01935e-155
8.45891e-156
3.32085e-156
1.2212e-156
4.13764e-157
1.26442e-157
3.45161e-158
8.44084e-159
1.8455e-159
3.56603e-160
6.02695e-161
8.85835e-162
1.12819e-162
1.24179e-163
1.17956e-164
9.66831e-166
6.84629e-167
4.19782e-168
2.23577e-169
1.03832e-170
4.60581e-172
1.9693e-173
8.1229e-175
3.23438e-176
1.24387e-177
4.62187e-179
1.65966e-180
5.76011e-182
1.93217e-183
6.26345e-185
1.96173e-186
5.9345e-188
1.73326e-189
4.88482e-191
1.32762e-192
3.47713e-194
8.76875e-196
2.12725e-197
4.95918e-199
1.10972e-200
2.38049e-202
4.88832e-204
9.59432e-206
1.79673e-207
3.20435e-209
5.431e-211
8.72765e-213
1.32641e-214
1.90101e-216
2.56115e-218
3.23203e-220
3.80501e-222
4.15989e-224
4.20116e-226
3.89557e-228
3.29298e-230
2.51618e-232
1.72022e-234
1.03906e-236
5.45736e-239
2.44105e-241
9.03877e-244
2.65943e-246
5.8286e-249
8.46031e-252
6.11054e-255
7.61724e-255
1.06493e-251
7.36374e-249
3.36567e-246
1.14478e-243
3.09224e-241
6.91194e-239
1.31541e-236
2.17633e-234
3.18076e-232
4.15883e-230
4.91472e-228
5.29422e-226
5.23583e-224
4.78297e-222
4.0572e-220
3.21045e-218
2.37942e-216
1.65766e-214
1.08898e-212
6.76531e-211
3.98481e-209
2.23042e-207
1.18886e-205
6.046e-204
2.9386e-202
1.36719e-200
6.09738e-199
2.61002e-197
1.07357e-195
4.24771e-194
1.61815e-192
5.93993e-191
2.10258e-189
7.18129e-188
2.36786e-186
7.54041e-185
2.31985e-183
6.89671e-182
1.98149e-180
5.50185e-179
1.47619e-177
3.82639e-176
9.57824e-175
2.31423e-173
5.39334e-172
1.21135e-170
2.59947e-169
4.85567e-168
7.86473e-167
1.10119e-165
1.33014e-164
1.38495e-163
1.24368e-162
9.6506e-162
6.4904e-161
3.79813e-160
1.94614e-159
8.82794e-159
3.58471e-158
1.30436e-157
4.24135e-157
1.24582e-156
3.37677e-156
8.57884e-156
2.04249e-155
4.51422e-155
9.27234e-155
1.78239e-154
3.24495e-154
5.65155e-154
9.49116e-154
1.54658e-153
2.44471e-153
3.72791e-153
5.48485e-153
7.7974e-153
1.07385e-152
1.43696e-152
1.87387e-152
2.38954e-152
2.9829e-152
3.65348e-152
4.40207e-152
5.22949e-152
6.11772e-152
7.05492e-152
8.02749e-152
9.01997e-152
1.00155e-151
1.09957e-151
1.19419e-151
1.28356e-151
1.36611e-151
1.44006e-151
1.49776e-151
1.49494e-151
1.17847e-151
2.02845e-152
3.99639e-159
3.15877e-157
7.21509e-151
3.71757e-150
4.65242e-150
4.66155e-150
4.49719e-150
4.28586e-150
4.04939e-150
3.79203e-150
3.51777e-150
3.23137e-150
2.93791e-150
2.6424e-150
2.34955e-150
2.06379e-150
1.78917e-150
1.5294e-150
1.29145e-150
1.07459e-150
8.78543e-151
7.04078e-151
5.52793e-151
4.23478e-151
3.15501e-151
2.27845e-151
1.5906e-151
1.07197e-151
6.97781e-152
4.41762e-152
2.72345e-152
1.62512e-152
9.31528e-153
5.07277e-153
2.58764e-153
1.22535e-153
5.38521e-154
2.22564e-154
8.66872e-155
3.12783e-155
1.0196e-155
2.9684e-156
7.75858e-157
1.82012e-157
3.78216e-158
6.87966e-159
1.08887e-159
1.49369e-160
1.77017e-161
1.80849e-162
1.5917e-163
1.20767e-164
7.91372e-166
4.49125e-167
2.21537e-168
1.03701e-169
4.66837e-171
2.02327e-172