/*--------------------------------*- C++ -*----------------------------------*\
| =========                 |                                                 |
| \\      /  F ield         | OpenFOAM: The Open Source CFD Toolbox           |
|  \\    /   O peration     | Version:  2412                                  |
|   \\  /    A nd           | Website:  www.openfoam.com                      |
|    \\/     M anipulation  |                                                 |
\*---------------------------------------------------------------------------*/
FoamFile
{
    version     2.0;
    format      ascii;
    arch        "LSB;label=32;scalar=64";
    class       surfaceScalarField;
    location    "1.25";
    object      alphaPhi0.water;
}
// * * * * * * * * * * * * * * * * * * * * * * * * * * * * * * * * * * * * * //

dimensions      [0 3 -1 0 0 0 0];

oriented        oriented;

internalField   nonuniform List<scalar> 
79600
(
8.7374e-195
-2.86613e-191
8.39433e-185
-9.69969e-182
2.03447e-183
-1.37986e-180
4.28296e-183
-2.00412e-180
5.79562e-183
-2.04852e-180
6.8549e-183
-1.94195e-180
7.54179e-183
-1.78285e-180
7.87712e-183
-1.59903e-180
7.88768e-183
-1.40448e-180
7.61471e-183
-1.20879e-180
7.1103e-183
-1.01924e-180
6.43346e-183
-8.4147e-181
5.64598e-183
-6.79698e-181
4.80739e-183
-5.36636e-181
3.97111e-183
-4.13656e-181
3.18095e-183
-3.10914e-181
2.46899e-183
-2.27543e-181
1.85582e-183
-1.61968e-181
1.34955e-183
-1.11971e-181
9.48211e-184
-7.5046e-182
6.42808e-184
-4.86777e-182
4.19885e-184
-3.05056e-182
2.63922e-184
-1.84402e-182
1.5936e-184
-1.07312e-182
9.22015e-185
-5.99595e-183
5.09354e-185
-3.20514e-183
2.67597e-185
-1.6327e-183
1.33047e-185
-7.88873e-184
6.23631e-186
-3.60284e-184
2.74235e-186
-1.54792e-184
1.12488e-186
-6.21892e-185
4.28065e-187
-2.32242e-185
1.50652e-187
-8.03022e-186
4.89913e-188
-2.5665e-186
1.47045e-188
-7.57105e-187
4.04745e-189
-2.04921e-187
1.01126e-189
-5.04192e-188
2.26639e-190
-1.11477e-188
4.51069e-191
-2.1915e-189
7.93107e-192
-3.80637e-190
1.2288e-192
-5.8209e-191
1.67162e-193
-7.80612e-192
1.9853e-194
-9.12411e-193
2.04576e-195
-9.23106e-194
1.81975e-196
-8.03391e-195
1.39203e-197
-5.98309e-196
9.12886e-199
-3.79295e-197
5.11454e-200
-2.03314e-198
2.4352e-201
-9.11521e-200
9.75986e-203
-3.34741e-201
3.22958e-204
-9.60311e-203
8.44201e-206
-1.86244e-204
1.53152e-207
-6.56199e-207
2.52426e-209
2.30271e-212
4.07433e-211
7.94131e-214
6.44087e-213
1.93187e-215
9.97249e-215
4.04917e-217
1.51202e-216
7.76488e-219
2.24418e-218
1.39771e-220
3.25909e-220
2.39272e-222
4.62836e-222
3.92439e-224
6.42345e-224
6.19424e-226
8.70581e-226
9.43473e-228
1.15136e-227
1.38908e-229
1.48461e-229
1.97885e-231
1.86475e-231
2.72899e-233
2.27939e-233
3.64381e-235
2.70868e-235
4.70991e-237
3.12579e-237
5.89123e-239
3.49879e-239
7.12669e-241
3.79388e-241
8.33169e-243
3.97992e-243
9.4049e-245
4.03332e-245
1.024e-246
3.94255e-247
1.07414e-248
3.71099e-249
1.08406e-250
3.35751e-251
1.05106e-252
2.91415e-253
9.77386e-255
2.42131e-255
8.70115e-257
1.92146e-257
7.40099e-259
1.45265e-259
6.00136e-261
1.04338e-261
4.62811e-263
7.09826e-264
3.38524e-265
4.55865e-266
2.34164e-267
2.75341e-268
1.52673e-269
1.55754e-270
9.348e-272
8.21269e-273
5.35299e-274
4.01487e-275
2.85341e-276
1.80842e-277
1.4083e-278
7.45122e-280
6.39611e-281
2.78439e-282
2.65394e-283
9.33963e-285
9.97501e-286
2.77662e-287
3.36136e-288
7.20015e-290
1.00276e-290
1.59495e-292
2.60625e-293
2.93365e-295
5.77986e-296
4.30059e-298
1.06311e-298
4.71058e-301
1.5567e-301
3.42829e-304
1.70121e-304
1.24667e-307
1.2338e-307
4.12509e-313
4.46462e-311
-1.37652e-307
4.95649e-311
-3.83956e-304
1.38772e-307
-5.30486e-301
1.92298e-304
-4.85665e-298
1.76395e-301
-3.31792e-295
1.20616e-298
-1.80526e-292
6.56145e-296
-8.15206e-290
2.95917e-293
-3.14371e-287
1.13841e-290
-1.05721e-284
3.81485e-288
-3.15061e-282
1.13154e-285
-8.42697e-280
3.00881e-283
-2.04402e-277
7.24658e-281
-4.53486e-275
1.59441e-278
-9.2696e-273
3.22799e-276
-1.75661e-270
6.05079e-274
-3.1028e-268
1.05576e-271
-5.13272e-266
1.72277e-269
-7.98507e-264
2.63991e-267
-1.17265e-261
3.81286e-265
-1.6311e-259
5.20771e-263
-2.1554e-257
6.74632e-261
-2.71338e-255
8.31133e-259
-3.26231e-253
9.76137e-257
-3.75466e-251
1.09534e-254
-4.14543e-249
1.17666e-252
-4.39915e-247
1.21228e-250
-4.49524e-245
1.19985e-248
-4.43043e-243
1.14252e-246
-4.21815e-241
1.04808e-244
-3.88513e-239
9.27336e-243
-3.46642e-237
7.92229e-241
-2.9998e-235
6.54072e-239
-2.52088e-233
5.2224e-237
-2.05937e-231
4.03483e-235
-1.63714e-229
3.01766e-233
-1.26772e-227
2.18513e-231
-9.57064e-226
1.53171e-229
-7.0501e-224
1.03882e-227
-5.07132e-222
6.81024e-226
-3.5647e-220
4.30848e-224
-2.45005e-218
2.62303e-222
-1.64746e-216
1.52981e-220
-1.08427e-214
8.48478e-219
-6.9869e-213
4.41758e-217
-4.40887e-211
2.10467e-215
-2.72432e-209
8.64518e-214
-1.64816e-207
2.51455e-212
-9.1051e-206
-6.54257e-207
-3.47966e-204
-1.99884e-204
-1.04897e-202
-1.03273e-202
-2.60825e-201
-3.59429e-201
-5.45483e-200
-9.75737e-200
-9.68932e-199
-2.16762e-198
-1.46975e-197
-4.02479e-197
-1.91079e-196
-6.31575e-196
-2.13617e-195
-8.43402e-195
-2.06181e-194
-9.63658e-194
-1.72717e-193
-9.47299e-193
-1.26362e-192
-8.06306e-192
-8.12001e-192
-5.98393e-191
-4.59927e-191
-3.89569e-190
-2.3023e-190
-2.2337e-189
-1.02395e-189
-1.13202e-188
-4.08694e-189
-5.10352e-188
-1.4813e-188
-2.06862e-187
-4.92534e-188
-7.6248e-187
-1.51211e-187
-2.57947e-186
-4.29039e-187
-8.05746e-186
-1.12604e-186
-2.32692e-185
-2.74224e-186
-6.22318e-185
-6.23038e-186
-1.54732e-184
-1.32816e-185
-3.5982e-184
-2.66944e-185
-7.87236e-184
-5.0776e-185
-1.62816e-183
-9.18554e-185
-3.19397e-183
-1.58683e-184
-5.97112e-183
-2.62716e-184
-1.06811e-182
-4.179e-184
-1.83475e-182
-6.39743e-184
-3.03454e-182
-9.43741e-184
-4.84164e-182
-1.34333e-183
-7.46416e-182
-1.8475e-183
-1.11369e-181
-2.45827e-183
-1.61101e-181
-3.16766e-183
-2.26332e-181
-3.95545e-183
-3.09269e-181
-4.79008e-183
-4.11499e-181
-5.62844e-183
-5.33904e-181
-6.41806e-183
-6.76368e-181
-7.10027e-183
-8.37628e-181
-7.61446e-183
-1.0151e-180
-7.90362e-183
-1.20485e-180
-7.92021e-183
-1.40174e-180
-7.63114e-183
-1.59966e-180
-7.01791e-183
-1.79181e-180
-6.05103e-183
-1.96988e-180
-4.57715e-183
-2.11209e-180
-2.17882e-183
-2.1062e-180
-8.31278e-185
-1.44797e-180
-6.93199e-195
-9.44579e-182
-2.28993e-191
6.6833e-191
-9.5431e-188
2.92622e-181
-1.57689e-178
6.07721e-180
-1.99967e-177
1.2115e-179
-2.81515e-177
1.59689e-179
-2.8435e-177
1.86563e-179
-2.68798e-177
2.04434e-179
-2.47365e-177
2.13679e-179
-2.22988e-177
2.14728e-179
-1.97136e-177
2.08423e-179
-1.70952e-177
1.95957e-179
-1.45372e-177
1.78754e-179
-1.21152e-177
1.5835e-179
-9.88754e-178
1.36263e-179
-7.89475e-178
1.1389e-179
-6.16039e-178
9.24178e-180
-4.69208e-178
7.27564e-180
-3.48348e-178
5.55385e-180
-2.51831e-178
4.10679e-180
-1.77019e-178
2.9377e-180
-1.20771e-178
2.03e-180
-7.98283e-179
1.35324e-180
-5.10343e-179
8.69075e-181
-3.15032e-179
5.36806e-181
-1.87409e-179
3.18118e-181
-1.07158e-179
1.80272e-181
-5.86931e-180
9.7325e-182
-3.06821e-180
4.9836e-182
-1.5243e-180
2.41253e-182
-7.17654e-181
1.09909e-182
-3.1877e-181
4.68518e-183
-1.32774e-181
1.85801e-183
-5.15305e-182
6.83e-184
-1.85526e-182
2.32399e-184
-6.18233e-183
7.31143e-185
-1.90387e-183
2.11493e-185
-5.38895e-184
5.57513e-186
-1.39059e-184
1.32459e-186
-3.23578e-185
2.80806e-187
-6.7157e-186
5.28162e-188
-1.23456e-186
8.79062e-189
-2.00274e-187
1.29083e-189
-2.85588e-188
1.66431e-190
-3.55843e-189
1.87433e-191
-3.84759e-190
1.83657e-192
-3.58858e-191
1.56243e-193
-2.87335e-192
1.15336e-194
-1.96677e-193
7.39065e-196
-1.14524e-194
4.11477e-197
-5.63062e-196
1.99221e-198
-2.30466e-197
8.38882e-200
-7.61384e-199
3.06665e-201
-1.86531e-200
9.67591e-203
-2.26926e-202
2.77707e-204
2.13312e-207
7.78496e-206
1.82616e-208
2.13113e-207
8.3937e-210
5.69553e-209
3.16136e-211
1.48557e-210
1.06755e-212
3.78029e-212
3.34536e-214
9.38063e-214
9.89187e-216
2.26881e-215
2.78539e-217
5.34545e-217
7.51016e-219
1.22608e-218
1.94556e-220
2.736e-220
4.85298e-222
5.93541e-222
1.16712e-223
1.25078e-223
2.70829e-225
2.55814e-225
6.06587e-227
5.07312e-227
1.31135e-228
9.74517e-229
2.73569e-230
1.81129e-230
5.50479e-232
3.2535e-232
1.06773e-233
5.64054e-234
1.99469e-235
9.42528e-236
3.58565e-237
1.51573e-237
6.19515e-239
2.34208e-239
1.02748e-240
3.47115e-241
1.6335e-242
4.92509e-243
2.4854e-244
6.67622e-245
3.61284e-246
8.62678e-247
5.00771e-248
1.05999e-248
6.60453e-250
1.23517e-250
8.26866e-252
1.36091e-252
9.80136e-254
1.41312e-254
1.09682e-255
1.3778e-256
1.15501e-257
1.25617e-258
1.14041e-259
1.06597e-260
1.05147e-261
8.3744e-263
9.01104e-264
6.05336e-265
7.14003e-266
3.9971e-267
5.19885e-268
2.39052e-269
3.45368e-270
1.28165e-271
2.07552e-272
6.08238e-274
1.11681e-274
2.51457e-276
5.31315e-277
8.8692e-279
2.19939e-279
2.59422e-281
7.75855e-282
6.03981e-284
2.26705e-284
1.04924e-286
5.26672e-287
1.20923e-289
9.11918e-290
6.94692e-293
1.04628e-292
2.6005e-298
5.97634e-296
-7.67335e-293
6.62056e-296
-1.35023e-289
1.17107e-292
-1.17684e-286
1.02502e-289
-6.7908e-284
5.93345e-287
-2.92099e-281
2.55745e-284
-9.99503e-279
8.75927e-282
-2.83515e-276
2.48414e-279
-6.85938e-274
6.00212e-277
-1.44542e-271
1.26164e-274
-2.69569e-269
2.34434e-272
-4.50632e-267
3.90004e-270
-6.82233e-265
5.8688e-268
-9.43441e-263
8.0568e-266
-1.20034e-260
1.01632e-263
-1.41377e-258
1.18527e-261
-1.54975e-256
1.28479e-259
-1.58849e-254
1.30042e-257
-1.52878e-252
1.23409e-255
-1.38655e-250
1.10202e-253
-1.18902e-248
9.2901e-252
-9.66938e-247
7.41474e-250
-7.47703e-245
5.61757e-248
-5.51122e-243
4.04949e-246
-3.88088e-241
2.78341e-244
-2.61618e-239
1.82776e-242
-1.69155e-237
1.14865e-240
-1.05085e-235
6.91935e-239
-6.28259e-234
4.00102e-237
-3.62015e-232
2.2236e-235
-2.0133e-230
1.18907e-233
-1.08203e-228
6.12411e-232
-5.62657e-227
3.04027e-230
-2.83396e-225
1.45578e-228
-1.384e-223
6.72645e-227
-6.55959e-222
2.99979e-225
-3.01991e-220
1.29124e-223
-1.35156e-218
5.36274e-222
-5.88458e-217
2.14735e-220
-2.49418e-215
8.27906e-219
-1.02976e-213
3.06688e-217
-4.1436e-212
1.08784e-215
-1.62582e-210
3.67452e-214
-6.22313e-209
1.17118e-212
-2.32462e-207
3.46457e-211
-8.47691e-206
9.19252e-210
-3.0184e-204
2.00104e-208
-1.04967e-202
2.36091e-207
-3.32255e-201
-2.43237e-202
-9.06897e-200
-2.01889e-200
-2.14724e-198
-8.23868e-199
-4.4182e-197
-2.48788e-197
-7.9002e-196
-6.05619e-196
-1.22667e-194
-1.22621e-194
-1.65267e-193
-2.09486e-193
-1.93157e-192
-3.0431e-192
-1.95998e-191
-3.77794e-191
-1.73065e-190
-4.0263e-190
-1.33522e-189
-3.70205e-189
-9.04848e-189
-2.95498e-188
-5.4119e-188
-2.06182e-187
-2.86525e-187
-1.26505e-186
-1.34648e-186
-6.85198e-186
-5.64889e-186
-3.28886e-185
-2.13708e-185
-1.40882e-184
-7.37061e-185
-5.44472e-184
-2.33804e-184
-1.919e-183
-6.85988e-184
-6.21849e-183
-1.86343e-183
-1.86293e-182
-4.69294e-183
-5.16672e-182
-1.09972e-182
-1.32959e-181
-2.4117e-182
-3.18871e-181
-4.97806e-182
-7.17238e-181
-9.71521e-182
-1.52226e-180
-1.7984e-181
-3.06203e-180
-3.17182e-181
-5.85369e-180
-5.35e-181
-1.06812e-179
-8.6591e-181
-1.8672e-179
-1.34811e-180
-3.13777e-179
-2.02219e-180
-5.08218e-179
-2.9265e-180
-7.94882e-179
-4.09157e-180
-1.20256e-178
-5.53417e-180
-1.76273e-178
-7.25143e-180
-2.50796e-178
-9.21348e-180
-3.46968e-178
-1.1358e-179
-4.67434e-178
-1.35956e-179
-6.13852e-178
-1.58094e-179
-7.86943e-178
-1.78617e-179
-9.86046e-178
-1.96028e-179
-1.20899e-177
-2.08816e-179
-1.45198e-177
-2.15594e-179
-1.70959e-177
-2.1523e-179
-1.97493e-177
-2.06971e-179
-2.24e-177
-1.90426e-179
-2.49621e-177
-1.64875e-179
-2.73317e-177
-1.26245e-179
-2.92344e-177
-6.24403e-180
-2.92153e-177
-2.77034e-181
-2.05103e-177
-5.25259e-191
-1.50471e-178
-7.7328e-188
7.95423e-188
-9.38716e-185
1.86046e-178
-8.24498e-176
3.52876e-177
-9.5967e-175
6.87301e-177
-1.32714e-174
8.96333e-177
-1.33185e-174
1.04259e-176
-1.25732e-174
1.14237e-176
-1.15954e-174
1.19736e-176
-1.04985e-174
1.20889e-176
-9.33579e-175
1.18058e-176
-8.15216e-175
1.11809e-176
-6.98737e-175
1.02852e-176
-5.8751e-175
9.19762e-177
-4.84223e-175
7.99811e-177
-3.90832e-175
6.76253e-177
-3.08595e-175
5.55724e-177
-2.38079e-175
4.43532e-177
-1.79225e-175
3.43644e-177
-1.31534e-175
2.58213e-177
-9.39695e-176
1.879e-177
-6.52298e-176
1.32228e-177
-4.3915e-176
8.986e-178
-2.86245e-176
5.88913e-178
-1.80331e-176
3.71577e-178
-1.09586e-176
2.25173e-178
-6.40712e-177
1.30641e-178
-3.59243e-177
7.23182e-179
-1.92514e-177
3.80417e-179
-9.8224e-178
1.8966e-179
-4.76133e-178
8.92386e-180
-2.18372e-178
3.9395e-180
-9.4173e-179
1.62176e-180
-3.79311e-179
6.19974e-181
-1.41979e-179
2.19654e-181
-4.92421e-180
7.20349e-182
-1.57971e-180
2.1756e-182
-4.66453e-181
6.00423e-183
-1.25889e-181
1.4984e-183
-3.07349e-182
3.34631e-184
-6.71064e-183
6.64538e-185
-1.30016e-183
1.17005e-185
-2.22601e-184
1.82113e-186
-3.35487e-185
2.49369e-187
-4.42359e-186
2.98803e-188
-5.0659e-187
3.1206e-189
-5.00672e-188
2.83496e-190
-4.24921e-189
2.23981e-191
-3.08378e-190
1.54068e-192
-1.90488e-191
9.24605e-194
-9.94798e-193
4.85473e-195
-4.33886e-194
2.23737e-196
-1.53971e-195
9.08079e-198
-4.15173e-197
3.25583e-199
-6.44148e-199
1.06218e-200
7.85776e-204
3.37655e-202
1.06025e-204
1.04586e-203
5.82215e-206
3.15617e-205
2.53312e-207
9.27805e-207
9.7632e-209
2.65618e-208
3.4699e-210
7.40334e-210
1.15891e-211
2.00818e-211
3.67505e-213
5.29894e-213
1.1133e-214
1.35943e-214
3.23405e-216
3.38884e-216
9.03058e-218
8.2031e-218
2.42759e-219
1.9267e-219
6.28796e-221
4.38734e-221
1.57005e-222
9.67713e-223
3.77941e-224
2.06549e-224
8.7694e-226
4.26153e-226
1.96055e-227
8.4893e-228
4.22079e-229
1.6308e-229
8.74354e-231
3.01692e-231
1.74124e-232
5.36696e-233
3.33001e-234
9.16663e-235
6.10821e-236
1.5006e-236
1.07316e-237
2.35009e-238
1.80315e-239
3.51394e-240
2.8925e-241
5.00531e-242
4.42145e-243
6.77556e-244
6.42683e-245
8.69318e-246
8.86254e-247
1.05403e-247
1.15646e-248
1.20379e-249
1.42385e-250
1.29027e-251
1.64879e-252
1.29259e-253
1.78928e-254
1.20468e-255
1.81231e-256
1.03894e-257
1.70541e-258
8.24053e-260
1.4831e-260
5.96811e-262
1.18468e-262
3.91321e-264
8.62984e-265
2.29921e-266
5.68445e-267
1.19529e-268
3.35119e-269
5.41106e-271
1.746e-271
2.08904e-273
7.91208e-274
6.68561e-276
3.05413e-276
1.7024e-278
9.76139e-279
3.23331e-281
2.47948e-281
4.07236e-284
4.69217e-284
2.55568e-287
5.88153e-287
1.02101e-292
3.66883e-290
-2.83227e-287
4.07602e-290
-4.56227e-284
6.60279e-287
-3.63892e-281
5.29078e-284
-1.92086e-278
2.80264e-281
-7.55534e-276
1.105e-278
-2.36312e-273
3.46049e-276
-6.12467e-271
8.96978e-274
-1.35338e-268
1.98e-271
-2.60364e-266
3.80073e-269
-4.43124e-264
6.44676e-267
-6.75719e-262
9.78565e-265
-9.32777e-260
1.34301e-262
-1.17563e-257
1.68076e-260
-1.36262e-255
1.93192e-258
-1.46139e-253
2.05207e-256
-1.458e-251
2.02493e-254
-1.3595e-249
1.86488e-252
-1.18963e-247
1.60946e-250
-9.80501e-246
1.30636e-248
-7.63673e-244
1.00044e-246
-5.63729e-242
7.24962e-245
-3.95451e-240
4.98371e-243
-2.64258e-238
3.25773e-241
-1.68592e-236
2.02915e-239
-1.02896e-234
1.20663e-237
-6.01891e-233
6.86178e-236
-3.38018e-231
3.73741e-234
-1.82537e-229
1.95243e-232
-9.49257e-228
9.79452e-231
-4.7602e-226
4.72345e-229
-2.30472e-224
2.1918e-227
-1.07861e-222
9.79347e-226
-4.88458e-221
4.21622e-224
-2.14257e-219
1.74959e-222
-9.11125e-218
6.99915e-221
-3.75936e-216
2.69905e-219
-1.50615e-214
1.00287e-217
-5.86307e-213
3.58725e-216
-2.21894e-211
1.2334e-214
-8.16873e-210
4.06654e-213
-2.92647e-208
1.28078e-211
-1.02065e-206
3.83011e-210
-3.4665e-205
1.07639e-208
-1.1468e-203
2.78986e-207
-3.69606e-202
6.40828e-206
-1.16061e-200
1.16805e-204
-3.55088e-199
8.81168e-204
-9.88679e-198
-6.98619e-199
-2.42981e-196
-4.52517e-197
-5.25468e-195
-1.67633e-195
-9.96646e-194
-4.70986e-194
-1.65267e-192
-1.07537e-192
-2.38956e-191
-2.04869e-191
-3.00674e-190
-3.29745e-190
-3.28948e-189
-4.51524e-189
-3.13047e-188
-5.28564e-188
-2.59712e-187
-5.31348e-187
-1.88616e-186
-4.61092e-186
-1.20564e-185
-3.47675e-185
-6.81508e-185
-2.29466e-184
-3.41678e-184
-1.33369e-183
-1.52404e-183
-6.85267e-183
-6.08699e-183
-3.12617e-182
-2.19957e-182
-1.27626e-181
-7.26554e-182
-4.71599e-181
-2.21085e-181
-1.59331e-180
-6.2295e-181
-4.95599e-180
-1.62713e-180
-1.42646e-179
-3.9475e-180
-3.8052e-179
-8.93218e-180
-9.43534e-179
-1.89663e-179
-2.18554e-178
-3.80132e-179
-4.76098e-178
-7.22178e-179
-9.81431e-178
-1.30383e-178
-1.92232e-177
-2.24615e-178
-3.585e-177
-3.70511e-178
-6.39062e-177
-5.8707e-178
-1.0926e-176
-8.95651e-178
-1.79746e-176
-1.31785e-177
-2.85273e-176
-1.87272e-177
-4.37623e-176
-2.57375e-177
-6.50029e-176
-3.42586e-177
-9.36502e-176
-4.42267e-177
-1.31106e-175
-5.54299e-177
-1.78679e-175
-6.74769e-177
-2.37415e-175
-7.98445e-177
-3.07838e-175
-9.18767e-177
-3.9005e-175
-1.02825e-176
-4.8354e-175
-1.11896e-176
-5.87135e-175
-1.18311e-176
-6.98994e-175
-1.21367e-176
-8.16598e-175
-1.20511e-176
-9.36853e-175
-1.15389e-176
-1.05625e-174
-1.05841e-176
-1.17106e-174
-9.15176e-177
-1.27684e-174
-7.02705e-177
-1.36162e-174
-3.54106e-177
-1.36102e-174
-1.7399e-178
-9.69328e-175
-6.4316e-188
-7.8219e-176
-7.79776e-185
4.39533e-185
-4.88656e-182
5.65125e-176
-2.31924e-173
9.97051e-175
-2.5002e-172
1.92025e-174
-3.41708e-172
2.49585e-174
-3.41889e-172
2.90197e-174
-3.22807e-172
3.18572e-174
-2.98423e-172
3.35148e-174
-2.71328e-172
3.40121e-174
-2.42618e-172
3.34268e-174
-2.13273e-172
3.18929e-174
-1.84209e-172
2.95865e-174
-1.56233e-172
2.67091e-174
-1.30015e-172
2.34703e-174
-1.06064e-172
2.0074e-174
-8.47309e-173
1.67045e-174
-6.6207e-173
1.35148e-174
-5.05335e-173
1.06271e-174
-3.76479e-173
8.11343e-175
-2.73354e-173
6.00546e-175
-1.93064e-173
4.3032e-175
-1.32387e-173
2.98074e-175
-8.79824e-174
1.99303e-175
-5.65673e-174
1.28416e-175
-3.51137e-174
7.95444e-176
-2.09898e-174
4.72261e-176
-1.20453e-174
2.67892e-176
-6.61543e-175
1.44665e-176
-3.46545e-175
7.42269e-177
-1.72915e-175
3.60452e-177
-8.18733e-176
1.64672e-177
-3.65538e-176
7.03166e-178
-1.52801e-176
2.79313e-178
-5.94654e-177
1.02934e-178
-2.14645e-177
3.51429e-179
-7.17162e-178
1.10643e-179
-2.20826e-178
3.19116e-180
-6.23145e-179
8.34847e-181
-1.59605e-179
1.95951e-181
-3.6659e-180
4.0968e-182
-7.48416e-181
7.60358e-183
-1.3518e-181
1.24904e-183
-2.15204e-182
1.80695e-184
-3.00075e-183
2.28873e-185
-3.63631e-184
2.52693e-186
-3.80315e-185
2.42621e-187
-3.41466e-186
2.02483e-188
-2.62007e-187
1.47019e-189
-1.70985e-188
9.30628e-191
-9.42726e-190
5.15074e-192
-4.34064e-191
2.50166e-193
-1.62918e-192
1.07061e-194
-4.68792e-194
4.05481e-196
-8.19486e-196
1.38802e-197
9.75656e-201
4.62316e-199
1.87243e-201
1.49846e-200
1.11436e-202
4.72625e-202
5.13744e-204
1.45054e-203
2.08261e-205
4.33135e-205
7.75608e-207
1.25803e-206
2.7081e-208
3.55296e-208
8.96252e-210
9.75315e-210
2.82971e-211
2.60098e-211
8.55729e-213
6.73471e-213
2.48493e-214
1.69201e-214
6.94019e-216
4.12173e-216
1.86604e-217
9.7274e-218
4.83261e-219
2.22217e-219
1.20564e-220
4.90916e-221
2.89718e-222
1.0477e-222
6.70356e-224
2.15767e-224
1.49269e-225
4.28269e-226
3.19639e-227
8.18209e-228
6.57645e-229
1.50247e-229
1.29872e-230
2.6477e-231
2.45875e-232
4.47013e-233
4.45659e-234
7.21711e-235
7.72188e-236
1.11206e-236
1.27686e-237
1.63179e-238
2.01117e-239
2.27472e-240
3.01117e-241
3.00445e-242
4.27564e-243
3.74892e-244
5.7429e-245
4.4049e-246
7.27588e-247
4.85592e-248
8.66713e-249
5.00188e-250
9.67263e-251
4.79185e-252
1.00724e-252
4.24689e-254
9.7419e-255
3.46074e-256
8.70524e-257
2.5744e-258
7.14316e-259
1.73338e-260
5.34398e-261
1.04557e-262
3.61421e-263
5.57917e-265
2.18717e-265
2.59177e-267
1.16946e-267
1.02657e-269
5.43738e-270
3.36988e-272
2.15302e-272
8.79993e-275
7.05729e-275
1.71365e-277
1.83807e-277
2.21258e-280
3.56582e-280
1.42323e-283
4.5812e-283
5.93719e-289
2.92857e-286
-1.58931e-283
3.27836e-286
-2.49832e-280
5.18353e-283
-1.94408e-277
4.05295e-280
-1.00095e-274
2.09444e-277
-3.83924e-272
8.05397e-275
-1.17073e-269
2.45943e-272
-2.95757e-267
6.21482e-270
-6.36876e-265
1.33709e-267
-1.19371e-262
2.50096e-265
-1.9789e-260
4.13257e-263
-2.9386e-258
6.10943e-261
-3.94931e-256
8.16417e-259
-4.84477e-254
9.94606e-257
-5.46413e-252
1.11258e-254
-5.70084e-250
1.14977e-252
-5.53144e-248
1.10353e-250
-5.01465e-246
9.88224e-249
-4.26508e-244
8.29058e-247
-3.41571e-242
6.53932e-245
-2.58416e-240
4.86503e-243
-1.85232e-238
3.42363e-241
-1.26131e-236
2.28481e-239
-8.1786e-235
1.44937e-237
-5.06108e-233
8.75748e-236
-2.9949e-231
5.04967e-234
-1.69784e-229
2.78333e-232
-9.23665e-228
1.46873e-230
-4.82962e-226
7.42982e-229
-2.43058e-224
3.60741e-227
-1.17891e-222
1.68284e-225
-5.5176e-221
7.54919e-224
-2.49464e-219
3.25897e-222
-1.09069e-217
1.35463e-220
-4.61574e-216
5.4234e-219
-1.89239e-214
2.09165e-217
-7.52237e-213
7.76966e-216
-2.90127e-211
2.77844e-214
-1.08641e-209
9.55586e-213
-3.95199e-208
3.15586e-211
-1.39724e-206
9.9825e-210
-4.80329e-205
3.01231e-208
-1.60603e-203
8.61611e-207
-5.22419e-202
2.31064e-205
-1.65347e-200
5.69359e-204
-5.09223e-199
1.23414e-202
-1.52597e-197
2.07574e-201
-4.44905e-196
1.11124e-200
-1.17235e-194
-8.96586e-196
-2.73158e-193
-5.1449e-194
-5.60312e-192
-1.78487e-192
-1.00773e-190
-4.73871e-191
-1.58349e-189
-1.02432e-189
-2.16784e-188
-1.84729e-188
-2.58094e-187
-2.81259e-187
-2.67031e-186
-3.64039e-186
-2.40269e-185
-4.0259e-185
-1.88496e-184
-3.82238e-184
-1.29534e-183
-3.13332e-183
-7.84314e-183
-2.23339e-182
-4.20494e-182
-1.39511e-181
-2.00206e-181
-7.68428e-181
-8.4958e-181
-3.74615e-180
-3.23672e-180
-1.62435e-179
-1.11915e-179
-6.32088e-179
-3.54612e-179
-2.23383e-178
-1.03645e-178
-7.23704e-178
-2.80748e-178
-2.16128e-177
-7.05706e-178
-5.97692e-177
-1.65054e-177
-1.53347e-176
-3.6089e-177
-3.66374e-176
-7.4249e-177
-8.19713e-176
-1.44599e-176
-1.72967e-175
-2.67601e-176
-3.46391e-175
-4.71478e-176
-6.60839e-175
-7.93744e-176
-1.20255e-174
-1.28093e-175
-2.09453e-174
-1.98752e-175
-3.50263e-174
-2.97205e-175
-5.64124e-174
-4.2903e-175
-8.77286e-174
-5.98747e-175
-1.31995e-173
-8.08982e-175
-1.92494e-173
-1.05979e-174
-2.72571e-173
-1.34807e-174
-3.75463e-173
-1.6667e-174
-5.04084e-173
-2.00363e-174
-6.60625e-173
-2.34372e-174
-8.45778e-173
-2.66871e-174
-1.05924e-172
-2.95838e-174
-1.29922e-172
-3.1919e-174
-1.56241e-172
-3.34922e-174
-1.84397e-172
-3.41278e-174
-2.13756e-172
-3.36913e-174
-2.43559e-172
-3.21025e-174
-2.72966e-172
-2.93305e-174
-3.01094e-172
-2.52931e-174
-3.26913e-172
-1.94278e-174
-3.47539e-172
-9.91744e-175
-3.47295e-172
-5.31514e-176
-2.50352e-172
-3.68625e-185
-2.20412e-173
-4.16115e-182
1.56049e-182
-1.66671e-179
1.09977e-173
-4.26308e-171
1.80779e-172
-4.26096e-170
3.45519e-172
-5.76997e-170
4.49003e-172
-5.7677e-170
5.22934e-172
-5.45317e-170
5.75797e-172
-5.05593e-170
6.08361e-172
-4.61668e-170
6.20751e-172
-4.15094e-170
6.14037e-172
-3.67295e-170
5.90267e-172
-3.19659e-170
5.5225e-172
-2.73454e-170
5.03296e-172
-2.29762e-170
4.46936e-172
-1.89441e-170
3.86699e-172
-1.53117e-170
3.25867e-172
-1.21179e-170
2.67272e-172
-9.37827e-171
2.13316e-172
-7.09345e-171
1.65496e-172
-5.23534e-171
1.24619e-172
-3.76287e-171
9.09368e-173
-2.62863e-171
6.4214e-173
-1.7816e-171
4.38113e-173
-1.16928e-171
2.88298e-173
-7.41555e-172
1.82548e-173
-4.53275e-172
1.10905e-173
-2.66252e-172
6.44621e-174
-1.4987e-172
3.57323e-174
-8.06057e-173
1.88678e-174
-4.14032e-173
9.45668e-175
-2.02425e-173
4.47155e-175
-9.35954e-174
1.98107e-175
-4.06234e-174
8.1792e-176
-1.64463e-174
3.13603e-176
-6.18143e-175
1.1147e-176
-2.15178e-175
3.6583e-177
-6.91107e-176
1.10274e-177
-2.03996e-176
3.02511e-178
-5.48537e-177
7.46549e-179
-1.32664e-177
1.64373e-179
-2.85661e-178
3.21627e-180
-5.44775e-179
5.57655e-181
-9.16916e-180
8.52371e-182
-1.3535e-180
1.14122e-182
-1.73764e-181
1.33168e-183
-1.92561e-182
1.35053e-184
-1.83129e-183
1.1893e-185
-1.4873e-184
9.09887e-187
-1.0263e-185
6.05809e-188
-5.97608e-187
3.51966e-189
-2.903e-188
1.79057e-190
-1.14947e-189
8.00897e-192
-3.50249e-191
3.16374e-193
-6.66206e-193
1.12129e-194
7.17457e-198
3.86237e-196
1.92318e-198
1.29331e-197
1.21189e-199
4.21037e-199
5.81987e-201
1.33263e-200
2.44483e-202
4.10037e-202
9.41045e-204
1.22621e-203
3.39005e-205
3.56285e-205
1.15601e-206
1.0054e-206
3.7564e-208
2.75415e-208
1.16796e-209
7.31983e-210
3.48395e-211
1.88631e-211
9.98702e-213
4.71004e-213
2.75401e-214
1.1387e-214
7.30979e-216
2.66321e-216
1.86786e-217
6.02028e-218
4.59462e-219
1.31404e-219
1.08765e-220
2.76636e-221
2.47654e-222
5.6105e-223
5.42026e-224
1.09478e-224
1.13932e-225
2.05244e-226
2.29762e-227
3.69123e-228
4.44031e-229
6.35774e-230
8.21248e-231
1.04683e-231
1.45148e-232
1.64448e-233
2.44737e-234
2.45931e-235
3.92944e-236
3.49296e-237
5.99523e-238
4.69918e-239
8.67219e-240
5.9708e-241
1.18629e-241
7.1419e-243
1.53022e-243
8.01288e-245
1.85541e-245
8.39811e-247
2.10713e-247
8.18423e-249
2.23232e-249
7.37685e-251
2.19601e-251
6.11219e-253
1.99545e-253
4.62209e-255
1.66465e-255
3.16299e-257
1.26583e-257
1.93872e-259
8.69979e-260
1.05099e-261
5.34904e-262
4.95922e-264
2.9053e-264
1.99485e-266
1.37191e-266
6.64918e-269
5.51609e-269
1.76274e-271
1.83566e-271
3.48428e-274
4.853e-274
4.56566e-277
9.55495e-277
2.98015e-280
1.24566e-279
1.27246e-285
8.07915e-283
-3.36303e-280
9.14022e-283
-5.21001e-277
1.42448e-279
-3.99473e-274
1.09761e-276
-2.02624e-271
5.58873e-274
-7.65514e-269
2.11713e-271
-2.29887e-266
6.3677e-269
-5.71827e-264
1.58455e-266
-1.2122e-261
3.3565e-264
-2.23627e-259
6.18013e-262
-3.64813e-257
1.00505e-259
-5.32989e-255
1.46203e-257
-7.04592e-253
1.92204e-255
-8.50028e-251
2.30305e-253
-9.426e-249
2.53329e-251
-9.66695e-247
2.57374e-249
-9.2178e-245
2.42792e-247
-8.21029e-243
2.13645e-245
-6.85901e-241
1.76075e-243
-5.39404e-239
1.36396e-241
-4.00617e-237
9.96302e-240
-2.81821e-235
6.88179e-238
-1.88276e-233
4.50653e-236
-1.19738e-231
2.80422e-234
-7.26486e-230
1.66153e-232
-4.21355e-228
9.39155e-231
-2.34037e-226
5.07255e-229
-1.24698e-224
2.62196e-227
-6.38322e-223
1.29871e-225
-3.14365e-221
6.17155e-224
-1.49144e-219
2.81651e-222
-6.82444e-218
1.23547e-220
-3.01505e-216
5.2126e-219
-1.28742e-214
2.1164e-217
-5.31789e-213
8.27168e-216
-2.12675e-211
3.11226e-214
-8.24093e-210
1.12708e-212
-3.09613e-208
3.9263e-211
-1.12852e-206
1.31439e-209
-3.99291e-205
4.22133e-208
-1.37203e-203
1.29722e-206
-4.5804e-202
3.79865e-205
-1.4861e-200
1.05297e-203
-4.68695e-199
2.73186e-202
-1.43705e-197
6.49515e-201
-4.28337e-196
1.35141e-199
-1.241e-194
2.14662e-198
-3.49409e-193
8.32589e-198
-8.82496e-192
-7.34868e-193
-1.96662e-190
-3.87099e-191
-3.84951e-189
-1.26746e-189
-6.59202e-188
-3.18789e-188
-9.84223e-187
-6.52754e-187
-1.27802e-185
-1.11392e-185
-1.44113e-184
-1.60288e-184
-1.41081e-183
-1.95875e-183
-1.20046e-182
-2.04381e-182
-8.90586e-182
-1.83039e-181
-5.79061e-181
-1.41562e-180
-3.321e-180
-9.52825e-180
-1.68846e-179
-5.62827e-179
-7.63214e-179
-2.93542e-178
-3.07996e-178
-1.35651e-177
-1.11898e-177
-5.58531e-177
-3.70194e-177
-2.07017e-176
-1.12524e-176
-6.99424e-176
-3.15871e-176
-2.17232e-175
-8.22352e-176
-6.22633e-175
-1.98873e-175
-1.65353e-174
-4.48302e-175
-4.07798e-174
-9.47048e-175
-9.3835e-174
-1.8878e-174
-2.02722e-173
-3.57251e-174
-4.1427e-173
-6.44094e-174
-8.05932e-173
-1.10751e-173
-1.49756e-172
-1.82209e-173
-2.65897e-172
-2.87657e-173
-4.5246e-172
-4.3703e-173
-7.39956e-172
-6.40456e-173
-1.16648e-171
-9.06905e-173
-1.77708e-171
-1.24281e-172
-2.62177e-171
-1.6506e-172
-3.75308e-171
-2.12787e-172
-5.22218e-171
-2.66665e-172
-7.07679e-171
-3.25215e-172
-9.35834e-171
-3.86059e-172
-1.20957e-170
-4.4639e-172
-1.52893e-170
-5.02948e-172
-1.89251e-170
-5.52226e-172
-2.29663e-170
-5.90703e-172
-2.73528e-170
-6.15067e-172
-3.20022e-170
-6.22498e-172
-3.68105e-170
-6.10913e-172
-4.16561e-170
-5.79169e-172
-4.64069e-170
-5.26959e-172
-5.09275e-170
-4.53027e-172
-5.50611e-170
-3.47835e-172
-5.83507e-170
-1.79528e-172
-5.82818e-170
-1.04496e-173
-4.2478e-170
-1.349e-182
-4.06989e-171
-1.44937e-179
4.03464e-180
-4.11847e-177
1.54249e-171
-5.62166e-169
2.35561e-170
-5.19991e-168
4.46919e-170
-6.98228e-168
5.81242e-170
-6.98072e-168
6.78677e-170
-6.61443e-168
7.49964e-170
-6.15328e-168
7.96038e-170
-5.64407e-168
8.16818e-170
-5.10307e-168
8.13325e-170
-4.54537e-168
7.87774e-170
-3.98609e-168
7.43362e-170
-3.43944e-168
6.83966e-170
-2.9179e-168
6.13828e-170
-2.43168e-168
5.37304e-170
-1.98868e-168
4.58563e-170
-1.59424e-168
3.8133e-170
-1.25119e-168
3.08967e-170
-9.60988e-169
2.43637e-170
-7.21137e-169
1.86683e-170
-5.27617e-169
1.38768e-170
-3.75608e-169
9.9924e-171
-2.59719e-169
6.95863e-171
-1.74066e-169
4.67789e-171
-1.12825e-169
3.02849e-171
-7.05411e-170
1.88309e-171
-4.24225e-170
1.12164e-171
-2.44779e-170
6.38265e-172
-1.35187e-170
3.46892e-172
-7.14969e-171
1.79502e-172
-3.61063e-171
8.78863e-173
-1.72975e-171
4.04219e-173
-7.80056e-172
1.7358e-173
-3.28794e-172
6.92865e-174
-1.28781e-172
2.56533e-174
-4.67353e-173
8.77959e-175
-1.56648e-173
2.76754e-175
-4.83986e-174
7.96822e-176
-1.3677e-174
2.06991e-176
-3.48758e-175
4.80506e-177
-7.9309e-176
9.92285e-178
-1.59888e-176
1.81809e-178
-2.84896e-177
2.94025e-179
-4.45931e-178
4.16781e-180
-6.07637e-179
5.14899e-181
-7.1491e-180
5.52571e-182
-7.21689e-181
5.1441e-183
-6.21774e-182
4.15451e-184
-4.54685e-183
2.91457e-185
-2.80213e-184
1.78025e-186
-1.43871e-185
9.49801e-188
-6.0164e-187
4.44337e-189
-1.93941e-188
1.83071e-190
-3.96895e-190
6.72115e-192
3.62915e-195
2.39553e-193
1.40817e-195
8.29176e-195
9.35352e-197
2.78776e-196
4.67177e-198
9.10396e-198
2.03231e-199
2.88746e-199
8.08167e-201
8.89236e-201
3.00277e-202
2.6583e-202
1.05468e-203
7.71123e-204
3.52596e-205
2.16966e-205
1.12681e-206
5.9183e-207
3.45167e-208
1.56422e-208
1.01528e-209
4.0033e-210
2.87078e-211
9.91405e-212
7.80796e-213
2.37384e-213
2.04321e-214
5.49081e-215
5.14412e-216
1.22571e-216
1.24571e-217
2.6378e-218
2.90016e-219
5.4663e-220
6.487e-221
1.08942e-221
1.39291e-222
2.08515e-223
2.86834e-224
3.82712e-225
5.65808e-226
6.72476e-227
1.06775e-227
1.1292e-228
1.9248e-229
1.80842e-230
3.30906e-231
2.75625e-232
5.4153e-233
3.98841e-234
8.41876e-235
5.46514e-236
1.24048e-236
7.07069e-238
1.728e-238
8.60943e-240
2.26924e-240
9.83031e-242
2.8004e-242
1.04826e-243
3.23605e-244
1.03912e-245
3.4875e-246
9.52491e-248
3.48919e-248
8.02397e-250
3.22375e-250
6.16792e-252