/*--------------------------------*- C++ -*----------------------------------*\
| =========                 |                                                 |
| \\      /  F ield         | OpenFOAM: The Open Source CFD Toolbox           |
|  \\    /   O peration     | Version:  2412                                  |
|   \\  /    A nd           | Website:  www.openfoam.com                      |
|    \\/     M anipulation  |                                                 |
\*---------------------------------------------------------------------------*/
FoamFile
{
    version     2.0;
    format      ascii;
    arch        "LSB;label=32;scalar=64";
    class       volScalarField;
    location    "1.25";
    object      p_rgh;
}
// * * * * * * * * * * * * * * * * * * * * * * * * * * * * * * * * * * * * * //

dimensions      [1 -1 -2 0 0 0 0];

internalField   nonuniform List<scalar> 
40000
(
1.962
1.96209
1.96216
1.9622
1.96222
1.9622
1.96215
1.96208
1.96198
1.96185
1.9617
1.96151
1.96131
1.96107
1.96081
1.96053
1.96022
1.95988
1.95953
1.95915
1.95875
1.95833
1.95789
1.95743
1.95695
1.95645
1.95594
1.95541
1.95487
1.95431
1.95374
1.95316
1.95256
1.95196
1.95135
1.95073
1.9501
1.94946
1.94882
1.94818
1.94754
1.94689
1.94624
1.94559
1.94494
1.9443
1.94366
1.94302
1.94238
1.94175
1.94113
1.94052
1.93991
1.93931
1.93873
1.93815
1.93758
1.93702
1.93648
1.93595
1.93543
1.93492
1.93443
1.93395
1.93349
1.93304
1.93261
1.93219
1.93179
1.9314
1.93102
1.93066
1.93032
1.92999
1.92968
1.92938
1.92909
1.92883
1.92857
1.92833
1.9281
1.92789
1.92769
1.9275
1.92733
1.92716
1.92701
1.92687
1.92675
1.92663
1.92653
1.92644
1.92635
1.92628
1.92622
1.92617
1.92613
1.92609
1.92607
1.92606
1.92606
1.92606
1.92608
1.92611
1.92614
1.92619
1.92625
1.92631
1.92639
1.92648
1.92658
1.92669
1.92681
1.92694
1.92709
1.92725
1.92742
1.9276
1.92779
1.928
1.92823
1.92846
1.92871
1.92898
1.92926
1.92955
1.92986
1.93018
1.93052
1.93088
1.93124
1.93163
1.93203
1.93244
1.93287
1.93332
1.93378
1.93425
1.93474
1.93524
1.93575
1.93628
1.93682
1.93737
1.93793
1.93851
1.93909
1.93969
1.94029
1.9409
1.94152
1.94214
1.94277
1.94341
1.94405
1.94469
1.94533
1.94598
1.94662
1.94727
1.94791
1.94855
1.94919
1.94982
1.95044
1.95106
1.95167
1.95227
1.95286
1.95345
1.95401
1.95457
1.95511
1.95564
1.95615
1.95664
1.95712
1.95758
1.95802
1.95844
1.95883
1.95921
1.95957
1.9599
1.9602
1.96049
1.96075
1.96098
1.96119
1.96137
1.96153
1.96165
1.96175
1.96183
1.96187
1.96189
1.96188
1.96184
1.96177
1.96168
1.96191
1.96201
1.96207
1.96211
1.96212
1.96211
1.96206
1.96199
1.96189
1.96176
1.96161
1.96143
1.96122
1.96098
1.96072
1.96044
1.96013
1.9598
1.95945
1.95907
1.95867
1.95825
1.95781
1.95735
1.95687
1.95638
1.95587
1.95534
1.9548
1.95424
1.95367
1.95309
1.9525
1.9519
1.95129
1.95067
1.95004
1.94941
1.94877
1.94813
1.94749
1.94684
1.9462
1.94555
1.94491
1.94426
1.94362
1.94299
1.94236
1.94173
1.94111
1.9405
1.9399
1.93931
1.93872
1.93815
1.93758
1.93703
1.93649
1.93596
1.93545
1.93495
1.93446
1.93398
1.93352
1.93308
1.93265
1.93223
1.93183
1.93145
1.93108
1.93072
1.93038
1.93006
1.92975
1.92945
1.92917
1.92891
1.92866
1.92842
1.92819
1.92798
1.92779
1.9276
1.92743
1.92727
1.92712
1.92699
1.92686
1.92675
1.92665
1.92656
1.92647
1.9264
1.92634
1.92629
1.92625
1.92622
1.9262
1.92619
1.92618
1.92619
1.92621
1.92623
1.92627
1.92632
1.92637
1.92644
1.92651
1.9266
1.9267
1.9268
1.92692
1.92705
1.9272
1.92735
1.92752
1.9277
1.92789
1.9281
1.92831
1.92855
1.92879
1.92906
1.92933
1.92962
1.92993
1.93025
1.93058
1.93093
1.9313
1.93168
1.93207
1.93248
1.93291
1.93335
1.9338
1.93427
1.93476
1.93525
1.93576
1.93629
1.93682
1.93737
1.93793
1.9385
1.93908
1.93967
1.94027
1.94088
1.9415
1.94212
1.94274
1.94338
1.94401
1.94465
1.94529
1.94594
1.94658
1.94722
1.94786
1.9485
1.94913
1.94976
1.95038
1.951
1.95161
1.95221
1.9528
1.95338
1.95394
1.9545
1.95504
1.95556
1.95607
1.95657
1.95704
1.9575
1.95794
1.95836
1.95875
1.95913
1.95948
1.95981
1.96012
1.9604
1.96066
1.96089
1.9611
1.96128
1.96144
1.96156
1.96166
1.96174
1.96178
1.9618
1.96179
1.96175
1.96169
1.96159
1.96184
1.96194
1.96201
1.96204
1.96205
1.96203
1.96199
1.96192
1.96182
1.96169
1.96154
1.96135
1.96115
1.96091
1.96066
1.96037
1.96006
1.95973
1.95938
1.959
1.9586
1.95818
1.95774
1.95729
1.95681
1.95632
1.9558
1.95528
1.95474
1.95418
1.95361
1.95303
1.95244
1.95184
1.95123
1.95061
1.94999
1.94936
1.94872
1.94808
1.94744
1.9468
1.94615
1.94551
1.94487
1.94423
1.94359
1.94296
1.94233
1.9417
1.94109
1.94048
1.93988
1.93929
1.9387
1.93813
1.93757
1.93702
1.93649
1.93596
1.93545
1.93495
1.93447
1.934
1.93354
1.9331
1.93267
1.93226
1.93186
1.93148
1.93111
1.93076
1.93043
1.93011
1.9298
1.92951
1.92923
1.92897
1.92872
1.92848
1.92826
1.92806
1.92786
1.92768
1.92751
1.92735
1.92721
1.92708
1.92695
1.92684
1.92674
1.92665
1.92657
1.9265
1.92644
1.92639
1.92635
1.92632
1.9263
1.92629
1.92629
1.92629
1.92631
1.92634
1.92637
1.92642
1.92647
1.92653
1.92661
1.92669
1.92679
1.9269
1.92701
1.92714
1.92728
1.92743
1.9276
1.92777
1.92796
1.92817
1.92838
1.92861
1.92885
1.92911
1.92938
1.92967
1.92997
1.93029
1.93062
1.93097
1.93133
1.93171
1.9321
1.9325
1.93293
1.93336
1.93382
1.93428
1.93476
1.93526
1.93576
1.93628
1.93682
1.93736
1.93792
1.93849
1.93906
1.93965
1.94025
1.94085
1.94147
1.94209
1.94271
1.94334
1.94397
1.94461
1.94525
1.94589
1.94653
1.94717
1.94781
1.94845
1.94908
1.94971
1.95033
1.95095
1.95155
1.95215
1.95274
1.95332
1.95388
1.95444
1.95498
1.9555
1.95601
1.9565
1.95698
1.95743
1.95787
1.95829
1.95868
1.95906
1.95941
1.95974
1.96005
1.96033
1.96059
1.96082
1.96103
1.96121
1.96137
1.96149
1.96159
1.96167
1.96171
1.96173
1.96172
1.96168
1.96162
1.96152
1.96179
1.96188
1.96196
1.962
1.96201
1.96199
1.96194
1.96187
1.96177
1.96164
1.96149
1.96131
1.9611
1.96086
1.96061
1.96032
1.96001
1.95968
1.95933
1.95895
1.95855
1.95813
1.95769
1.95724
1.95676
1.95627
1.95575
1.95523
1.95469
1.95413
1.95356
1.95298
1.95239
1.95179
1.95118
1.95056
1.94994
1.94931
1.94867
1.94804
1.94739
1.94675
1.94611
1.94547
1.94482
1.94418
1.94355
1.94292
1.94229
1.94167
1.94105
1.94045
1.93985
1.93926
1.93868
1.93811
1.93755
1.937
1.93647
1.93594
1.93543
1.93494
1.93446
1.93399
1.93354
1.9331
1.93267
1.93226
1.93187
1.93149
1.93113
1.93078
1.93045
1.93013
1.92983
1.92954
1.92926
1.929
1.92876
1.92853
1.92831
1.9281
1.92791
1.92773
1.92757
1.92741
1.92727
1.92714
1.92702
1.92691
1.92681
1.92672
1.92665
1.92658
1.92652
1.92647
1.92643
1.9264
1.92638
1.92637
1.92637
1.92637
1.92639
1.92641
1.92645
1.92649
1.92654
1.92661
1.92668
1.92676
1.92686
1.92696
1.92708
1.9272
1.92734
1.92749
1.92765
1.92782
1.92801
1.92821
1.92842
1.92865
1.92889
1.92915
1.92941
1.9297
1.93
1.93031
1.93064
1.93098
1.93134
1.93171
1.9321
1.93251
1.93293
1.93336
1.93381
1.93427
1.93475
1.93524
1.93575
1.93626
1.9368
1.93734
1.93789
1.93846
1.93903
1.93962
1.94022
1.94082
1.94143
1.94205
1.94267
1.9433
1.94393
1.94457
1.94521
1.94585
1.94649
1.94713
1.94776
1.9484
1.94903
1.94966
1.95028
1.9509
1.9515
1.9521
1.95269
1.95327
1.95383
1.95439
1.95493
1.95545
1.95596
1.95645
1.95693
1.95738
1.95782
1.95824
1.95863
1.95901
1.95936
1.95969
1.96
1.96028
1.96054
1.96077
1.96098
1.96116
1.96132
1.96144
1.96154
1.96162
1.96166
1.96168
1.96167
1.96163
1.96156
1.96147
1.96176
1.96185
1.96192
1.96197
1.96198
1.96196
1.96191
1.96184
1.96174
1.96161
1.96146
1.96127
1.96107
1.96083
1.96057
1.96029
1.95998
1.95965
1.95929
1.95892
1.95852
1.9581
1.95766
1.9572
1.95672
1.95623
1.95571
1.95519
1.95464
1.95409
1.95352
1.95294
1.95235
1.95175
1.95114
1.95052
1.94989
1.94926
1.94863
1.94799
1.94735
1.94671
1.94606
1.94542
1.94478
1.94414
1.9435
1.94287
1.94224
1.94162
1.94101
1.9404
1.93981
1.93922
1.93864
1.93807
1.93751
1.93697
1.93643
1.93591
1.93541
1.93491
1.93443
1.93397
1.93352
1.93308
1.93266
1.93225
1.93186
1.93148
1.93112
1.93078
1.93045
1.93013
1.92983
1.92955
1.92928
1.92902
1.92878
1.92855
1.92833
1.92813
1.92794
1.92776
1.9276
1.92745
1.92731
1.92718
1.92706
1.92695
1.92686
1.92677
1.92669
1.92663
1.92657
1.92652
1.92648
1.92645
1.92643
1.92642
1.92642
1.92643
1.92644
1.92646
1.9265
1.92654
1.92659
1.92666
1.92673
1.92681
1.9269
1.927
1.92712
1.92724
1.92737
1.92752
1.92768
1.92785
1.92804
1.92823
1.92844
1.92867
1.92891
1.92916
1.92942
1.9297
1.93
1.93031
1.93064
1.93098
1.93133
1.9317
1.93209
1.93249
1.93291
1.93334
1.93379
1.93425
1.93472
1.93521
1.93572
1.93623
1.93676
1.9373
1.93786
1.93842
1.93899
1.93958
1.94017
1.94078
1.94139
1.942
1.94263
1.94325
1.94389
1.94452
1.94516
1.9458
1.94644
1.94708
1.94772
1.94835
1.94899
1.94961
1.95023
1.95085
1.95146
1.95206
1.95265
1.95322
1.95379
1.95434
1.95488
1.95541
1.95592
1.95641
1.95689
1.95734
1.95778
1.9582
1.9586
1.95897
1.95933
1.95966
1.95997
1.96025
1.96051
1.96074
1.96095
1.96113
1.96129
1.96141
1.96151
1.96159
1.96163
1.96165
1.96164
1.9616
1.96153
1.96143
1.96175
1.96185
1.96191
1.96195
1.96196
1.96195
1.9619
1.96183
1.96173
1.9616
1.96144
1.96126
1.96105
1.96082
1.96056
1.96027
1.95996
1.95963
1.95927
1.95889
1.95849
1.95807
1.95763
1.95717
1.95669
1.9562
1.95568
1.95515
1.95461
1.95405
1.95348
1.9529
1.95231
1.95171
1.95109
1.95048
1.94985
1.94922
1.94858
1.94794
1.9473
1.94666
1.94601
1.94537
1.94473
1.94409
1.94345
1.94282
1.94219
1.94157
1.94096
1.94035
1.93975
1.93917
1.93859
1.93802
1.93746
1.93692
1.93639
1.93587
1.93536
1.93487
1.93439
1.93393
1.93348
1.93304
1.93263
1.93222
1.93183
1.93146
1.9311
1.93076
1.93043
1.93012
1.92982
1.92954
1.92927
1.92901
1.92877
1.92855
1.92833
1.92813
1.92795
1.92777
1.92761
1.92746
1.92732
1.9272
1.92708
1.92697
1.92688
1.92679
1.92672
1.92665
1.9266
1.92655
1.92651
1.92648
1.92646
1.92645
1.92645
1.92645
1.92647
1.92649
1.92653
1.92657
1.92662
1.92668
1.92675
1.92683
1.92692
1.92702
1.92713
1.92725
1.92739
1.92753
1.92769
1.92786
1.92804
1.92823
1.92844
1.92866
1.9289
1.92915
1.92941
1.92969
1.92998
1.93029
1.93061
1.93095
1.93131
1.93168
1.93206
1.93246
1.93287
1.9333
1.93375
1.93421
1.93468
1.93517
1.93567
1.93619
1.93671
1.93725
1.93781
1.93837
1.93894
1.93953
1.94012
1.94072
1.94133
1.94195
1.94257
1.9432
1.94384
1.94447
1.94511
1.94575
1.94639
1.94703
1.94767
1.94831
1.94894
1.94957
1.95019
1.95081
1.95142
1.95202
1.95261
1.95319
1.95375
1.95431
1.95485
1.95538
1.95589
1.95638
1.95686
1.95732
1.95776
1.95818
1.95858
1.95895
1.95931
1.95964
1.95995
1.96023
1.96049
1.96073
1.96093
1.96112
1.96127
1.9614
1.9615
1.96157
1.96162
1.96164
1.96163
1.96159
1.96152
1.96142
1.96176
1.96185
1.96192
1.96196
1.96197
1.96195
1.96191
1.96183
1.96173
1.9616
1.96145
1.96126
1.96105
1.96082
1.96056
1.96027
1.95996
1.95962
1.95927
1.95889
1.95848
1.95806
1.95762
1.95716
1.95668
1.95618
1.95566
1.95513
1.95459
1.95403
1.95345
1.95287
1.95228
1.95167
1.95106
1.95044
1.94981
1.94918
1.94854
1.9479
1.94725
1.94661
1.94596
1.94532
1.94467
1.94403
1.9434
1.94276
1.94213
1.94151
1.9409
1.94029
1.93969
1.93911
1.93853
1.93796
1.9374
1.93686
1.93633
1.93581
1.93531
1.93481
1.93434
1.93387
1.93343
1.93299
1.93258
1.93217
1.93179
1.93141
1.93106
1.93072
1.93039
1.93008
1.92978
1.9295
1.92924
1.92899
1.92875
1.92852
1.92831
1.92812
1.92793
1.92776
1.9276
1.92745
1.92732
1.92719
1.92708
1.92697
1.92688
1.92679
1.92672
1.92666
1.9266
1.92655
1.92652
1.92649
1.92647
1.92646
1.92645
1.92646
1.92648
1.9265
1.92653
1.92657
1.92662
1.92668
1.92675
1.92683
1.92692
1.92702
1.92713
1.92725
1.92738
1.92752
1.92768
1.92784
1.92802
1.92821
1.92842
1.92864
1.92887
1.92912
1.92938
1.92966
1.92995
1.93025
1.93057
1.93091
1.93126
1.93163
1.93201
1.93241
1.93282
1.93325
1.93369
1.93415
1.93462
1.93511
1.93561
1.93613
1.93665
1.93719
1.93775
1.93831
1.93888
1.93947
1.94006
1.94066
1.94128
1.94189
1.94252
1.94315
1.94378
1.94442
1.94506
1.9457
1.94634
1.94698
1.94762
1.94826
1.9489
1.94953
1.95015
1.95077
1.95138
1.95198
1.95258
1.95316
1.95373
1.95428
1.95483
1.95536
1.95587
1.95637
1.95684
1.95731
1.95775
1.95817
1.95857
1.95895
1.9593
1.95964
1.95995
1.96023
1.96049
1.96073
1.96094
1.96112
1.96127
1.9614
1.96151
1.96158
1.96162
1.96164
1.96163
1.96159
1.96152
1.96142
1.96178
1.96188
1.96195
1.96198
1.96199
1.96198
1.96193
1.96186
1.96175
1.96162
1.96147
1.96128
1.96107
1.96083
1.96057
1.96028
1.95997
1.95963
1.95927
1.95889
1.95849
1.95806
1.95762
1.95715
1.95667
1.95617
1.95565
1.95512
1.95457
1.95401
1.95343
1.95285
1.95225
1.95164
1.95102
1.9504
1.94977
1.94913
1.94849
1.94785
1.9472
1.94656
1.94591
1.94526
1.94462
1.94397
1.94333
1.9427
1.94207
1.94145
1.94083
1.94022
1.93963
1.93904
1.93846
1.93789
1.93733
1.93679
1.93626
1.93574
1.93523
1.93474
1.93426
1.9338
1.93336
1.93292
1.93251
1.93211
1.93172
1.93135
1.931
1.93066
1.93033
1.93002
1.92973
1.92945
1.92919
1.92894
1.9287
1.92848
1.92827
1.92807
1.92789
1.92772
1.92756
1.92742
1.92728
1.92716
1.92705
1.92695
1.92685
1.92677
1.9267
1.92663
1.92658
1.92654
1.9265
1.92647
1.92645
1.92644
1.92644
1.92644
1.92646
1.92648
1.92651
1.92655
1.9266
1.92666
1.92673
1.9268
1.92689
1.92699
1.9271
1.92722
1.92734
1.92749
1.92764
1.9278
1.92798
1.92817
1.92837
1.92859
1.92882
1.92907
1.92933
1.9296
1.92989
1.93019
1.93051
1.93085
1.9312
1.93156
1.93194
1.93234
1.93275
1.93318
1.93362
1.93408
1.93455
1.93504
1.93554
1.93605
1.93658
1.93712
1.93767
1.93824
1.93881
1.9394
1.93999
1.9406
1.94121
1.94183
1.94245
1.94308
1.94372
1.94436
1.945
1.94565
1.94629
1.94693
1.94758
1.94822
1.94886
1.94949
1.95012
1.95074
1.95135
1.95196
1.95255
1.95314
1.95371
1.95427
1.95481
1.95535
1.95586
1.95636
1.95684
1.9573
1.95775
1.95817
1.95857
1.95895
1.95931
1.95965
1.95996
1.96025
1.96051
1.96075
1.96096
1.96114
1.9613
1.96143
1.96153
1.9616
1.96165
1.96167
1.96166
1.96162
1.96155
1.96145
1.96182
1.96192
1.96199
1.96203
1.96204
1.96202
1.96197
1.9619
1.9618
1.96166
1.96151
1.96132
1.96111
1.96087
1.9606
1.96031
1.96
1.95966
1.9593
1.95891
1.95851
1.95808
1.95763
1.95716
1.95667
1.95617
1.95565
1.95511
1.95456
1.954
1.95342
1.95283
1.95223
1.95162
1.951
1.95037
1.94973
1.9491
1.94845
1.9478
1.94715
1.9465
1.94585
1.9452
1.94455
1.94391
1.94327
1.94263
1.942
1.94137
1.94076
1.94015
1.93955
1.93895
1.93837
1.9378
1.93725
1.9367
1.93617
1.93565
1.93514
1.93465
1.93418
1.93372
1.93327
1.93284
1.93242
1.93202
1.93164
1.93127
1.93091
1.93058
1.93025
1.92995
1.92965
1.92938
1.92911
1.92887
1.92863
1.92841
1.9282
1.92801
1.92783
1.92766
1.92751
1.92736
1.92723
1.92711
1.927
1.9269
1.92681
1.92672
1.92665
1.92659
1.92654
1.92649
1.92646
1.92643
1.92641
1.9264
1.9264
1.9264
1.92642
1.92644
1.92647
1.92651
1.92656
1.92661
1.92668
1.92676
1.92684
1.92694
1.92704
1.92716
1.92729
1.92743
1.92758
1.92774
1.92792
1.92811
1.92831
1.92852
1.92875
1.92899
1.92925
1.92952
1.92981
1.93011
1.93043
1.93077
1.93111
1.93148
1.93186
1.93225
1.93267
1.93309
1.93353
1.93399
1.93446
1.93495
1.93545
1.93597
1.93649
1.93704
1.93759
1.93815
1.93873
1.93932
1.93991
1.94052
1.94113
1.94176
1.94238
1.94302
1.94366
1.9443
1.94494
1.94559
1.94624
1.94688
1.94753
1.94818
1.94882
1.94945
1.95008
1.95071
1.95132
1.95193
1.95253
1.95312
1.9537
1.95426
1.95481
1.95534
1.95586
1.95636
1.95685
1.95732
1.95776
1.95819
1.95859
1.95898
1.95934
1.95968
1.95999
1.96028
1.96054
1.96078
1.96099
1.96118
1.96134
1.96147
1.96157
1.96164
1.96169
1.96171
1.9617
1.96166
1.96159
1.96149
1.96188
1.96198
1.96205
1.96209
1.9621
1.96208
1.96203
1.96196
1.96185
1.96172
1.96156
1.96137
1.96116
1.96092
1.96065
1.96036
1.96004
1.9597
1.95933
1.95895
1.95854
1.9581
1.95765
1.95718
1.95669
1.95618
1.95566
1.95512
1.95456
1.95399
1.95341
1.95281
1.95221
1.95159
1.95097
1.95034
1.9497
1.94906
1.94841
1.94776
1.9471
1.94645
1.94579
1.94514
1.94449
1.94384
1.94319
1.94255
1.94192
1.94129
1.94067
1.94006
1.93945
1.93886
1.93828
1.93771
1.93715
1.9366
1.93607
1.93555
1.93504
1.93455
1.93407
1.93361
1.93316
1.93273
1.93232
1.93192
1.93153
1.93116
1.93081
1.93047
1.93015
1.92985
1.92956
1.92928
1.92902
1.92877
1.92854
1.92832
1.92812
1.92793
1.92775
1.92758
1.92743
1.92728
1.92715
1.92703
1.92692
1.92682
1.92673
1.92665
1.92658
1.92652
1.92647
1.92643
1.92639
1.92636
1.92634
1.92633
1.92633
1.92634
1.92635
1.92637
1.9264
1.92644
1.92649
1.92655
1.92661
1.92669
1.92677
1.92686
1.92697
1.92708
1.92721
1.92735
1.9275
1.92766
1.92783
1.92802
1.92822
1.92843
1.92866
1.9289
1.92916
1.92943
1.92971
1.93001
1.93033
1.93066
1.93101
1.93137
1.93175
1.93215
1.93256
1.93299
1.93343
1.93389
1.93436
1.93485
1.93535
1.93587
1.93639
1.93694
1.93749
1.93806
1.93864
1.93923
1.93983
1.94043
1.94105
1.94168
1.94231
1.94294
1.94359
1.94423
1.94488
1.94553
1.94618
1.94683
1.94748
1.94813
1.94878
1.94942
1.95005
1.95068
1.9513
1.95192
1.95252
1.95311
1.95369
1.95426
1.95481
1.95535
1.95587
1.95638
1.95687
1.95734
1.95779
1.95822
1.95863
1.95901
1.95938
1.95972
1.96003
1.96033
1.96059
1.96083
1.96105
1.96123
1.96139
1.96152
1.96163
1.9617
1.96175
1.96177
1.96176
1.96172
1.96165
1.96155
1.96196
1.96206
1.96213
1.96217
1.96218
1.96216
1.96211
1.96204
1.96193
1.9618
1.96164
1.96145
1.96123
1.96099
1.96072
1.96042
1.9601
1.95975
1.95939
1.95899
1.95858
1.95814
1.95769
1.95721
1.95672
1.95621
1.95568
1.95513
1.95457
1.95399
1.95341
1.95281
1.9522
1.95158
1.95095
1.95031
1.94967
1.94902
1.94837
1.94771
1.94705
1.94639
1.94573
1.94507
1.94442
1.94376
1.94311
1.94247
1.94183
1.9412
1.94058
1.93996
1.93935
1.93876
1.93817
1.9376
1.93704
1.93649
1.93595
1.93543
1.93492
1.93443
1.93395
1.93349
1.93304
1.93261
1.93219
1.93179
1.93141
1.93104
1.93069
1.93035
1.93003
1.92973
1.92944
1.92916
1.9289
1.92866
1.92843
1.92821
1.92801
1.92782
1.92764
1.92747
1.92732
1.92718
1.92705
1.92693
1.92682
1.92673
1.92664
1.92656
1.92649
1.92643
1.92638
1.92633
1.9263
1.92627
1.92625
1.92624
1.92624
1.92625
1.92626
1.92628
1.92631
1.92635
1.9264
1.92645
1.92652
1.92659
1.92667
1.92677
1.92687
1.92698
1.92711
1.92724
1.92739
1.92755
1.92772
1.92791
1.9281
1.92832
1.92854
1.92878
1.92904
1.92931
1.92959
1.92989
1.93021
1.93054
1.93089
1.93125
1.93163
1.93202
1.93244
1.93286
1.93331
1.93376
1.93424
1.93473
1.93523
1.93575
1.93628
1.93682
1.93738
1.93795
1.93853
1.93913
1.93973
1.94034
1.94096
1.94159
1.94222
1.94286
1.94351
1.94416
1.94481
1.94547
1.94612
1.94678
1.94744
1.94809
1.94874
1.94938
1.95003
1.95066
1.95129
1.9519
1.95251
1.95311
1.95369
1.95427
1.95482
1.95537
1.9559
1.95641
1.9569
1.95737
1.95783
1.95826
1.95867
1.95906
1.95943
1.95978
1.96009
1.96039
1.96066
1.9609
1.96112
1.96131
1.96147
1.9616
1.96171
1.96178
1.96183
1.96185
1.96184
1.9618
1.96173
1.96163
1.96206
1.96216
1.96223
1.96227
1.96228
1.96226
1.96221
1.96213
1.96203
1.96189
1.96173
1.96153
1.96132
1.96107
1.9608
1.9605
1.96017
1.95982
1.95945
1.95906
1.95864
1.9582
1.95774
1.95726
1.95676
1.95624
1.9557
1.95515
1.95459
1.95401
1.95341
1.95281
1.95219
1.95156
1.95093
1.95029
1.94964
1.94898
1.94832
1.94766
1.947
1.94633
1.94567
1.945
1.94434
1.94368
1.94303
1.94238
1.94174
1.9411
1.94047
1.93985
1.93924
1.93864
1.93805
1.93748
1.93691
1.93636
1.93582
1.9353
1.93479
1.93429
1.93381
1.93335
1.9329
1.93247
1.93205
1.93165
1.93126
1.9309
1.93054
1.93021
1.92989
1.92958
1.92929
1.92902
1.92876
1.92852
1.92829
1.92807
1.92787
1.92768
1.92751
1.92734
1.92719
1.92705
1.92693
1.92681
1.9267
1.92661
1.92652
1.92644
1.92637
1.92631
1.92626
1.92622
1.92619
1.92616
1.92614
1.92613
1.92613
1.92613
1.92615
1.92617
1.9262
1.92623
1.92628
1.92633
1.9264
1.92647
1.92655
1.92664
1.92674
1.92686
1.92698
1.92711
1.92726
1.92742
1.92759
1.92777
1.92797
1.92818
1.9284
1.92864
1.9289
1.92916
1.92945
1.92975
1.93006
1.93039
1.93074
1.93111
1.93149
1.93188
1.93229
1.93272
1.93317
1.93363
1.9341
1.93459
1.9351
1.93562
1.93615
1.9367
1.93726
1.93783
1.93842
1.93901
1.93962
1.94023
1.94086
1.94149
1.94213
1.94278
1.94343
1.94408
1.94474
1.9454
1.94606
1.94673
1.94739
1.94805
1.9487
1.94935
1.95
1.95064
1.95127
1.9519
1.95251
1.95311
1.9537
1.95428
1.95485
1.95539
1.95593
1.95644
1.95694
1.95742
1.95788
1.95832
1.95874
1.95913
1.9595
1.95985
1.96017
1.96047
1.96074
1.96099
1.9612
1.9614
1.96156
1.96169
1.9618
1.96188
1.96193
1.96195
1.96194
1.9619
1.96182
1.96172
1.96218
1.96228
1.96235
1.96239
1.9624
1.96238
1.96233
1.96225
1.96214
1.962
1.96184
1.96164
1.96142
1.96117
1.96089
1.96059
1.96026
1.95991
1.95953
1.95913
1.95871
1.95826
1.9578
1.95731
1.95681
1.95628
1.95574
1.95518
1.95461
1.95402
1.95342
1.95281
1.95219
1.95156
1.95091
1.95026
1.94961
1.94895
1.94828
1.94761
1.94694
1.94627
1.9456
1.94493
1.94426
1.9436
1.94294
1.94228
1.94163
1.94099
1.94036
1.93973
1.93912
1.93851
1.93792
1.93734
1.93677
1.93621
1.93567
1.93515
1.93463
1.93414
1.93365
1.93319
1.93274
1.9323
1.93189
1.93148
1.9311
1.93073
1.93038
1.93004
1.92972
1.92942
1.92913
1.92886
1.9286
1.92836
1.92813
1.92791
1.92771
1.92753
1.92735
1.92719
1.92704
1.9269
1.92678
1.92666
1.92656
1.92646
1.92637
1.9263
1.92623
1.92617
1.92612
1.92608
1.92605
1.92602
1.926
1.92599
1.92599
1.926
1.92601
1.92603
1.92606
1.92609
1.92614
1.92619
1.92625
1.92633
1.92641
1.9265
1.9266
1.92671
1.92683
1.92696
1.92711
1.92726
1.92743
1.92761
1.92781
1.92802
1.92824
1.92848
1.92873
1.929
1.92928
1.92958
1.9299
1.93023
1.93058
1.93094
1.93132
1.93172
1.93213
1.93256
1.93301
1.93347
1.93394
1.93444
1.93495
1.93547
1.93601
1.93656
1.93712
1.9377
1.93829
1.93889
1.9395
1.94012
1.94075
1.94139
1.94203
1.94268
1.94334
1.944
1.94467
1.94533
1.946
1.94667
1.94734
1.948
1.94867
1.94932
1.94998
1.95062
1.95126
1.95189
1.95251
1.95312
1.95372
1.9543
1.95488
1.95543
1.95597
1.95649
1.957
1.95748
1.95794
1.95839
1.95881
1.95921
1.95959
1.95994
1.96026
1.96057
1.96084
1.96109
1.96131
1.9615
1.96167
1.96181
1.96192
1.96199
1.96204
1.96206
1.96205
1.96201
1.96194
1.96184
1.96231
1.96241
1.96249
1.96253
1.96254
1.96251
1.96246
1.96238
1.96227
1.96213
1.96196
1.96177
1.96154
1.96129
1.96101
1.9607
1.96037
1.96001
1.95963
1.95922
1.95879
1.95834
1.95787
1.95738
1.95686
1.95633
1.95579
1.95522
1.95464
1.95405
1.95344
1.95282
1.95219
1.95155
1.9509
1.95024
1.94958
1.94891
1.94824
1.94756
1.94688
1.9462
1.94553
1.94485
1.94417
1.9435
1.94283
1.94217
1.94152
1.94087
1.94023
1.9396
1.93898
1.93837
1.93777
1.93719
1.93661
1.93605
1.93551
1.93498
1.93446
1.93396
1.93348
1.93301
1.93256
1.93212
1.9317
1.9313
1.93091
1.93054
1.93019
1.92985
1.92953
1.92923
1.92894
1.92867
1.92841
1.92817
1.92794
1.92773
1.92753
1.92735
1.92717
1.92701
1.92686
1.92673
1.9266
1.92649
1.92638
1.92629
1.92621
1.92613
1.92606
1.92601
1.92596
1.92592
1.92588
1.92586
1.92584
1.92583
1.92583
1.92583
1.92584
1.92586
1.92589
1.92593
1.92597
1.92603
1.92609
1.92616
1.92624
1.92632
1.92642
1.92653
1.92665
1.92678
1.92693
1.92708
1.92725
1.92743
1.92763
1.92783
1.92806
1.92829
1.92855
1.92881
1.9291
1.92939
1.92971
1.93004
1.93039
1.93075
1.93113
1.93153
1.93195
1.93238
1.93283
1.93329
1.93377
1.93427
1.93478
1.9353
1.93585
1.9364
1.93697
1.93755
1.93814
1.93875
1.93937
1.93999
1.94063
1.94127
1.94192
1.94258
1.94325
1.94391
1.94458
1.94526
1.94593
1.94661
1.94729
1.94796
1.94863
1.94929
1.94996
1.95061
1.95126
1.95189
1.95252
1.95314
1.95374
1.95434
1.95491
1.95548
1.95602
1.95655
1.95706
1.95755
1.95802
1.95847
1.9589
1.9593
1.95968
1.96004
1.96037
1.96068
1.96096
1.96121
1.96143
1.96163
1.9618
1.96194
1.96205
1.96213
1.96218
1.9622
1.96219
1.96215
1.96208
1.96198
1.96247
1.96257
1.96264
1.96268
1.96269
1.96267
1.96262
1.96254
1.96242
1.96228
1.96211
1.96191
1.96168
1.96142
1.96114
1.96083
1.96049
1.96013
1.95974
1.95933
1.95889
1.95843
1.95795
1.95745
1.95694
1.9564
1.95584
1.95527
1.95468
1.95408
1.95346
1.95284
1.9522
1.95155
1.95089
1.95023
1.94955
1.94888
1.94819
1.94751
1.94682
1.94614
1.94545
1.94476
1.94408
1.9434
1.94273
1.94206
1.94139
1.94074
1.94009
1.93946
1.93883
1.93821
1.93761
1.93702
1.93644
1.93588
1.93533
1.93479
1.93427
1.93377
1.93328
1.93281
1.93236
1.93192
1.9315
1.93109
1.9307
1.93033
1.92998
1.92964
1.92932
1.92902
1.92873
1.92846
1.9282
1.92796
1.92774
1.92752
1.92732
1.92714
1.92697
1.92681
1.92666
1.92653
1.9264
1.92629
1.92619
1.92609
1.92601
1.92594
1.92587
1.92581
1.92577
1.92573
1.92569
1.92567
1.92565
1.92564
1.92564
1.92564
1.92566
1.92568
1.9257
1.92574
1.92578
1.92583
1.92589
1.92596
1.92604
1.92613
1.92623
1.92633
1.92645
1.92658
1.92672
1.92688
1.92704
1.92722
1.92742
1.92762
1.92785
1.92808
1.92833
1.9286
1.92888
1.92918
1.9295
1.92983
1.93018
1.93054
1.93093
1.93133
1.93174
1.93218
1.93263
1.93309
1.93358
1.93408
1.93459
1.93512
1.93567
1.93623
1.9368
1.93739
1.93799
1.9386
1.93922
1.93985
1.9405
1.94115
1.94181
1.94247
1.94314
1.94382
1.9445
1.94518
1.94586
1.94655
1.94723
1.94791
1.94859
1.94927
1.94994
1.9506
1.95125
1.9519
1.95254
1.95316
1.95377
1.95437
1.95496
1.95553
1.95608
1.95662
1.95714
1.95764
1.95811
1.95857
1.959
1.95941
1.9598
1.96016
1.9605
1.96081
1.96109
1.96135
1.96158
1.96178
1.96195
1.96209
1.9622
1.96228
1.96233
1.96235
1.96235
1.96231
1.96223
1.96213
1.96264
1.96275
1.96282
1.96286
1.96287
1.96285
1.96279
1.96271
1.96259
1.96245
1.96227
1.96207
1.96184
1.96158
1.96129
1.96097
1.96063
1.96026
1.95986
1.95944
1.959
1.95854
1.95805
1.95754
1.95702
1.95647
1.95591
1.95533
1.95473
1.95412
1.95349
1.95286
1.95221
1.95155
1.95088
1.95021
1.94953
1.94884
1.94815
1.94745
1.94676
1.94606
1.94537
1.94467
1.94398
1.94329
1.94261
1.94193
1.94126
1.9406
1.93994
1.9393
1.93867
1.93805
1.93744
1.93684
1.93625
1.93568
1.93513
1.93459
1.93407
1.93356
1.93307
1.93259
1.93213
1.93169
1.93127
1.93086
1.93047
1.9301
1.92975
1.92941
1.92909
1.92878
1.9285
1.92822
1.92797
1.92773
1.9275
1.92729
1.92709
1.92691
1.92674
1.92658
1.92643
1.9263
1.92618
1.92607
1.92596
1.92587
1.92579
1.92572
1.92565
1.9256
1.92555
1.92551
1.92548
1.92545
1.92544
1.92543
1.92542
1.92543
1.92544
1.92546
1.92549
1.92552
1.92556
1.92562
1.92567
1.92574
1.92582
1.92591
1.926
1.92611
1.92623
1.92635
1.92649
1.92665
1.92681
1.92699
1.92718
1.92739
1.92761
1.92785
1.9281
1.92836
1.92865
1.92895
1.92926
1.9296
1.92995
1.93031
1.9307
1.9311
1.93152
1.93195
1.93241
1.93288
1.93336
1.93387
1.93439
1.93492
1.93547
1.93604
1.93662
1.93721
1.93782
1.93844
1.93907
1.93971
1.94036
1.94101
1.94168
1.94235
1.94303
1.94372
1.94441
1.9451
1.94579
1.94648
1.94718
1.94787
1.94855
1.94924
1.94992
1.95059
1.95125
1.95191
1.95256
1.95319
1.95381
1.95442
1.95502
1.95559
1.95616
1.9567
1.95723
1.95773
1.95822
1.95868
1.95912
1.95954
1.95993
1.9603
1.96064
1.96095
1.96124
1.9615
1.96174
1.96194
1.96211
1.96226
1.96237
1.96245
1.96251
1.96253
1.96252
1.96248
1.96241
1.9623
1.96284
1.96294
1.96302
1.96306
1.96306
1.96304
1.96299
1.9629
1.96278
1.96263
1.96246
1.96225
1.96201
1.96174
1.96145
1.96113
1.96078
1.9604
1.96
1.95958
1.95913
1.95865
1.95816
1.95764
1.95711
1.95655
1.95598
1.95539
1.95478
1.95416
1.95353
1.95288
1.95222
1.95155
1.95088
1.95019
1.9495
1.9488
1.9481
1.9474
1.94669
1.94598
1.94528
1.94457
1.94387
1.94318
1.94248
1.9418
1.94112
1.94045
1.93978
1.93913
1.93849
1.93786
1.93724
1.93664
1.93605
1.93547
1.93491
1.93437
1.93384
1.93333
1.93283
1.93235
1.93189
1.93145
1.93102
1.93061
1.93022
1.92984
1.92949
1.92915
1.92883
1.92852
1.92823
1.92796
1.92771
1.92747
1.92724
1.92703
1.92683
1.92665
1.92648
1.92632
1.92618
1.92605
1.92593
1.92582
1.92572
1.92563
1.92554
1.92547
1.92541
1.92535
1.92531
1.92527
1.92524
1.92521
1.9252
1.92519
1.92518
1.92519
1.9252
1.92522
1.92525
1.92528
1.92532
1.92537
1.92543
1.9255
1.92557
1.92566
1.92575
1.92586
1.92597
1.9261
1.92624
1.92639
1.92656
1.92673
1.92692
1.92713
1.92735
1.92759
1.92784
1.9281
1.92839
1.92869
1.929
1.92934
1.92969
1.93006
1.93044
1.93085
1.93127
1.93171
1.93217
1.93264
1.93313
1.93364
1.93416
1.93471
1.93526
1.93583
1.93642
1.93702
1.93763
1.93826
1.93889
1.93954
1.9402
1.94087
1.94154
1.94223
1.94292
1.94361
1.94431
1.94501
1.94571
1.94641
1.94712
1.94782
1.94852
1.94921
1.9499
1.95058
1.95126
1.95192
1.95258
1.95322
1.95386
1.95447
1.95508
1.95567
1.95624
1.95679
1.95732
1.95784
1.95833
1.9588
1.95925
1.95967
1.96007
1.96045
1.9608
1.96112
1.96141
1.96168
1.96191
1.96212
1.9623
1.96244
1.96256
1.96265
1.9627
1.96272
1.96272
1.96268
1.9626
1.9625
1.96305
1.96316
1.96323
1.96327
1.96328
1.96326
1.9632
1.96311
1.96299
1.96284
1.96266
1.96245
1.9622
1.96193
1.96163
1.9613
1.96095
1.96057
1.96016
1.95972
1.95927
1.95878
1.95828
1.95776
1.95721
1.95665
1.95606
1.95546
1.95485
1.95421
1.95357
1.95291
1.95224
1.95156
1.95087
1.95018
1.94947
1.94876
1.94805
1.94734
1.94662
1.9459
1.94518
1.94447
1.94376
1.94305
1.94235
1.94165
1.94096
1.94028
1.93961
1.93895
1.9383
1.93766
1.93703
1.93642
1.93583
1.93524
1.93468
1.93412
1.93359
1.93307
1.93257
1.93209
1.93162
1.93117
1.93074
1.93033
1.92994
1.92956
1.9292
1.92886
1.92854
1.92824
1.92795
1.92768
1.92742
1.92718
1.92695
1.92674
1.92655
1.92637
1.9262
1.92604
1.9259
1.92577
1.92565
1.92554
1.92544
1.92535
1.92527
1.9252
1.92514
1.92508
1.92504
1.925
1.92497
1.92495
1.92493
1.92492
1.92492
1.92492
1.92493
1.92495
1.92498
1.92501
1.92505
1.9251
1.92516
1.92522
1.9253
1.92538
1.92547
1.92558
1.92569
1.92582
1.92596
1.92611
1.92627
1.92645
1.92664
1.92684
1.92706
1.9273
1.92755
1.92782
1.9281
1.9284
1.92872
1.92905
1.92941
1.92978
1.93017
1.93057
1.931
1.93144
1.9319
1.93238
1.93288
1.93339
1.93392
1.93447
1.93503
1.93561
1.9362
1.93681
1.93743
1.93806
1.93871
1.93937
1.94003
1.94071
1.9414
1.94209
1.94279
1.94349
1.9442
1.94491
1.94563
1.94634
1.94706
1.94777
1.94848
1.94918
1.94988
1.95058
1.95126
1.95194
1.95261
1.95326
1.95391
1.95454
1.95515
1.95575
1.95633
1.95689
1.95744
1.95796
1.95846
1.95894
1.9594
1.95983
1.96024
1.96062
1.96097
1.9613
1.9616
1.96187
1.96211
1.96232
1.9625
1.96265
1.96277
1.96286
1.96291
1.96294
1.96293
1.96289
1.96282
1.96271
1.96329
1.96339
1.96347
1.96351
1.96352
1.96349
1.96343
1.96334
1.96322
1.96306
1.96288
1.96266
1.96241
1.96214
1.96183
1.9615
1.96113
1.96074
1.96033
1.95988
1.95942
1.95893
1.95841
1.95788
1.95732
1.95675
1.95615
1.95554
1.95492
1.95427
1.95361
1.95295
1.95226
1.95157
1.95087
1.95016
1.94945
1.94873
1.948
1.94727
1.94654
1.94581
1.94508
1.94436
1.94363
1.94291
1.9422
1.94149
1.94079
1.9401
1.93942
1.93875
1.93809
1.93744
1.93681
1.93619
1.93558
1.93499
1.93442
1.93386
1.93332
1.9328
1.93229
1.9318
1.93133
1.93088
1.93045
1.93003
1.92963
1.92926
1.9289
1.92855
1.92823
1.92792
1.92763
1.92736
1.9271
1.92686
1.92664
1.92643
1.92623
1.92605
1.92589
1.92573
1.92559
1.92546