/*--------------------------------*- C++ -*----------------------------------*\
| =========                 |                                                 |
| \\      /  F ield         | OpenFOAM: The Open Source CFD Toolbox           |
|  \\    /   O peration     | Version:  2412                                  |
|   \\  /    A nd           | Website:  www.openfoam.com                      |
|    \\/     M anipulation  |                                                 |
\*---------------------------------------------------------------------------*/
FoamFile
{
    version     2.0;
    format      ascii;
    arch        "LSB;label=32;scalar=64";
    class       volScalarField;
    location    "1.21";
    object      alpha.water;
}
// * * * * * * * * * * * * * * * * * * * * * * * * * * * * * * * * * * * * * //

dimensions      [0 0 0 0 0 0 0];

internalField   nonuniform List<scalar> 
40000
(
1.22436e-185
2.24534e-176
2.16322e-175
2.83064e-175
2.83863e-175
2.68047e-175
2.45356e-175
2.19222e-175
1.91646e-175
1.64046e-175
1.37469e-175
1.12702e-175
9.03172e-176
7.06746e-176
5.39399e-176
4.01017e-176
2.9002e-176
2.03779e-176
1.38942e-176
9.17968e-177
5.86858e-177
3.62551e-177
2.16148e-177
1.24117e-177
6.84292e-178
3.60544e-178
1.80539e-178
8.5313e-179
3.78011e-179
1.56101e-179
5.97889e-180
2.11806e-180
6.9478e-181
2.11657e-181
5.97749e-182
1.54396e-182
3.57957e-183
7.3362e-184
1.32111e-184
2.09478e-185
2.92439e-186
3.56858e-187
3.76862e-188
3.4192e-189
2.65497e-190
1.7612e-191
9.97061e-193
4.81198e-194
1.97562e-195
6.86784e-197
2.00045e-198
4.76712e-200
8.74507e-202
1.24567e-203
1.74714e-205
2.41162e-207
3.27418e-209
4.36968e-211
5.72904e-213
7.37441e-215
9.31326e-217
1.15321e-218
1.39903e-220
1.66154e-222
1.93012e-224
2.19098e-226
2.42789e-228
2.6235e-230
2.76113e-232
2.82688e-234
2.81175e-236
2.71327e-238
2.53644e-240
2.29351e-242
2.0027e-244
1.68584e-246
1.36552e-248
1.06218e-250
7.91755e-253
5.64246e-255
3.83476e-257
2.47859e-259
1.51899e-261
8.79706e-264
4.79659e-266
2.45205e-268
1.1697e-270
5.17883e-273
2.11497e-275
7.90946e-278
2.68553e-280
8.19349e-283
2.2179e-285
5.24185e-288
1.0593e-290
1.77904e-293
2.38311e-296
2.3865e-299
1.58796e-302
5.2683e-306
6.23676e-306
1.8834e-302
2.82888e-299
2.82115e-296
2.10262e-293
1.24974e-290
6.17277e-288
2.60687e-285
9.61226e-283
3.14464e-280
9.24439e-278
2.46739e-275
6.03082e-273
1.3597e-270
2.84532e-268
5.55627e-266
1.0173e-263
1.75363e-261
2.85673e-259
4.41261e-257
6.48233e-255
9.08173e-253
1.21647e-250
1.56147e-248
1.92484e-246
2.28319e-244
2.61085e-242
2.88314e-240
3.07965e-238
3.18681e-236
3.19935e-234
3.12043e-232
2.96062e-230
2.73592e-228
2.46534e-226
2.1686e-224
1.86402e-222
1.5671e-220
1.28971e-218
1.03987e-216
8.22008e-215
6.37501e-213
4.85373e-211
3.63022e-209
2.66882e-207
1.92971e-205
1.37309e-203
9.62011e-202
5.23935e-200
2.19291e-198
7.50044e-197
2.14753e-195
5.2022e-194
1.07135e-192
1.88005e-191
2.81495e-190
3.60061e-189
3.94231e-188
3.70972e-187
3.02285e-186
2.15453e-185
1.35267e-184
7.47952e-184
3.63513e-183
1.56264e-182
6.03315e-182
2.1315e-181
6.98458e-181
2.12595e-180
5.99263e-180
1.56261e-179
3.77987e-179
8.52268e-179
1.80206e-178
3.59592e-178
6.81976e-178
1.23619e-177
2.15185e-177
3.60843e-177
5.84014e-177
9.13486e-177
1.38265e-176
2.02788e-176
2.88609e-176
3.99064e-176
5.36782e-176
7.03384e-176
8.9907e-176
1.12231e-175
1.36973e-175
1.63592e-175
1.91365e-175
2.19419e-175
2.4678e-175
2.72363e-175
2.94062e-175
3.01299e-175
2.32708e-175
2.23073e-176
9.38157e-186
3.97014e-182
4.25094e-173
3.77038e-172
4.79447e-172
4.74735e-172
4.46847e-172
4.1003e-172
3.68298e-172
3.24158e-172
2.79619e-172
2.36315e-172
1.9555e-172
1.58309e-172
1.25255e-172
9.67481e-173
7.2865e-173
5.34369e-173
3.81138e-173
2.64071e-173
1.77473e-173
1.15536e-173
7.27608e-174
4.427e-174
2.59743e-174
1.46517e-174
7.91051e-175
4.06631e-175
1.97678e-175
9.03424e-176
3.85862e-176
1.53259e-176
5.64283e-177
1.9273e-177
6.12324e-178
1.80712e-178
4.89176e-179
1.19312e-179
2.58302e-180
4.93204e-181
8.32085e-182
1.24058e-182
1.62363e-183
1.84773e-184
1.81616e-185
1.53723e-186
1.11987e-187
7.0277e-189
3.80598e-190
1.78316e-191
7.24704e-193
2.56113e-194
7.88106e-196
2.10943e-197
4.9697e-199
1.1473e-200
2.59494e-202
5.74873e-204
1.24701e-205
2.64756e-207
5.49897e-209
1.11669e-210
2.21578e-212
4.29309e-214
8.11615e-216
1.496e-217
2.68631e-219
4.69514e-221
7.98e-223
1.31761e-224
2.11125e-226
3.27918e-228
4.93097e-230
7.16924e-232
1.00641e-233
1.36201e-235
1.77412e-237
2.2203e-239
2.66465e-241
3.06032e-243
3.35593e-245
3.50512e-247
3.47746e-249
3.26733e-251
2.89771e-253
2.41683e-255
1.88782e-257
1.37456e-259
9.27938e-262
5.77222e-264
3.28469e-266
1.69533e-268
7.85485e-271
3.22577e-273
1.15552e-275
3.53591e-278
8.98349e-281
1.81874e-283
2.75012e-286
2.76054e-289
1.38038e-292
1.60027e-292
3.21124e-289
3.20183e-286
2.11751e-283
1.04553e-280
4.11271e-278
1.34302e-275
3.74603e-273
9.11346e-271
1.9651e-268
3.80362e-266
6.67738e-264
1.07234e-261
1.58679e-259
2.177e-257
2.78404e-255
3.33439e-253
3.75561e-251
3.99277e-249
4.02011e-247
3.84474e-245
3.50219e-243
3.04598e-241
2.53518e-239
2.02342e-237
1.55163e-235
1.14519e-233
8.14829e-232
5.59771e-230
3.7181e-228
2.39092e-226
1.4903e-224
9.01453e-223
5.29702e-221
3.02672e-219
1.68333e-217
9.12016e-216
4.81755e-214
2.48299e-212
1.24958e-210
6.14442e-209
2.95393e-207
1.38919e-205
6.39403e-204
2.88149e-202
1.27182e-200
5.49937e-199
2.33004e-197
8.68819e-196
2.81514e-194
7.93484e-193
1.94306e-191
4.12408e-190
7.56739e-189
1.19775e-187
1.63267e-186
1.91541e-185
1.93542e-184
1.68976e-183
1.2836e-182
8.56532e-182
5.05344e-181
2.63518e-180
1.21241e-179
4.95428e-179
1.82522e-178
6.17079e-178
1.93887e-177
5.66781e-177
1.53719e-176
3.86527e-176
9.03986e-176
1.97618e-175
4.06191e-175
7.89644e-175
1.46166e-174
2.58991e-174
4.41261e-174
7.25087e-174
1.15122e-173
1.76833e-173
2.63132e-173
3.79824e-173
5.32613e-173
7.26398e-173
9.6475e-173
1.24949e-172
1.5801e-172
1.9533e-172
2.36297e-172
2.8e-172
3.25261e-172
3.70707e-172
4.14833e-172
4.56007e-172
4.91041e-172
5.03264e-172
3.9339e-172
4.08083e-173
3.0782e-182
4.36363e-179
2.78419e-170
2.33168e-169
2.92144e-169
2.87213e-169
2.69848e-169
2.48098e-169
2.23802e-169
1.98119e-169
1.72074e-169
1.46565e-169
1.22344e-169
1.00003e-169
7.99625e-170
6.24779e-170
4.76443e-170
3.54133e-170
2.56258e-170
1.80311e-170
1.23189e-170
8.1606e-171
5.23473e-171
3.24742e-171
1.9448e-171
1.12108e-171
6.19383e-172
3.2634e-172
1.62928e-172
7.66575e-173
3.37942e-173
1.38873e-173
5.30047e-174
1.87953e-174
6.20757e-175
1.90731e-175
5.38582e-176
1.374e-176
3.11997e-177
6.26322e-178
1.11336e-178
1.75261e-179
2.42597e-180
2.92344e-181
3.0456e-182
2.73472e-183
2.11544e-184
1.41111e-185
8.13422e-187
4.06478e-188
1.76785e-189
6.72208e-191
2.24529e-192
6.6187e-194
1.73376e-195
4.44271e-197
1.11342e-198
2.72818e-200
6.53331e-202
1.52853e-203
3.49231e-205
7.78865e-207
1.69476e-208
3.59593e-210
7.43554e-212
1.49735e-213
2.93447e-215
5.59223e-217
1.03541e-218
1.86085e-220
3.24291e-222
5.47409e-224
8.9398e-226
1.41068e-227
2.14793e-229
3.15103e-231
4.44666e-233
6.02568e-235
7.8262e-237
9.7225e-239
1.15269e-240
1.30106e-242
1.3943e-244
1.41449e-246
1.35394e-248
1.21829e-250
1.02627e-252
8.05554e-255
5.86038e-257
3.92709e-259
2.40655e-261
1.33715e-263
6.6673e-266
2.94572e-268
1.13488e-270
3.7338e-273
1.01964e-275
2.21822e-278
3.60333e-281
3.88481e-284
2.08627e-287
2.4178e-287
4.52251e-284
4.20106e-281
2.58747e-278
1.18939e-275
4.35424e-273
1.32286e-270
3.43169e-268
7.76207e-266
1.55557e-263
2.79745e-261
4.56121e-259
6.80081e-257
9.33992e-255
1.18881e-252
1.40993e-250
1.56542e-248
1.63385e-246
1.60895e-244
1.49986e-242
1.32748e-240
1.11853e-238
8.99439e-237
6.91784e-235
5.09959e-233
3.60981e-231
2.45795e-229
1.61249e-227
1.02071e-225
6.24285e-224
3.69396e-222
2.11711e-220
1.17655e-218
6.34647e-217
3.32594e-215
1.69485e-213
8.40483e-212
4.05901e-210
1.91026e-208
8.76612e-207
3.92465e-205
1.71509e-203
7.31917e-202
3.05142e-200
1.24331e-198
4.95285e-197
1.92958e-195
7.35315e-194
2.48882e-192
7.42721e-191
1.94509e-189
4.44922e-188
8.8499e-187
1.52492e-185
2.26953e-184
2.91202e-183
3.21889e-182
3.0675e-181
2.52832e-180
1.81546e-179
1.14715e-178
6.42236e-178
3.18508e-177
1.39707e-176
5.4579e-176
1.92754e-175
6.25925e-175
1.89183e-174
5.32669e-174
1.39361e-173
3.38695e-173
7.67441e-173
1.62963e-172
3.2617e-172
6.18662e-172
1.11916e-171
1.94062e-171
3.23946e-171
5.22091e-171
8.13822e-171
1.2285e-170
1.79829e-170
2.55614e-170
3.53328e-170
4.75506e-170
6.23796e-170
7.98791e-170
9.99682e-170
1.22413e-169
1.46823e-169
1.72647e-169
1.99201e-169
2.25698e-169
2.51294e-169
2.75091e-169
2.95299e-169
3.02339e-169
2.38243e-169
2.64197e-170
3.49258e-179
2.68851e-176
1.01699e-167
8.10162e-167
1.00702e-166
9.86915e-167
9.27046e-167
8.54204e-167
7.73674e-167
6.88607e-167
6.02004e-167
5.16642e-167
4.34945e-167
3.589e-167
2.89981e-167
2.29166e-167
1.7693e-167
1.33276e-167
9.78365e-168
6.99074e-168
4.85487e-168
3.27226e-168
2.13773e-168
1.35192e-168
8.26197e-169
4.86553e-169
2.74987e-169
1.48449e-169
7.60873e-170
3.68447e-170
1.67618e-170
7.12532e-171
2.81861e-171
1.03731e-171
3.55949e-172
1.13778e-172
3.34853e-173
8.92714e-174
2.12416e-174
4.47791e-175
8.37445e-176
1.38921e-176
2.02887e-177
2.58089e-178
2.83831e-179
2.6897e-180
2.19455e-181
1.54254e-182
9.35715e-184
4.9129e-185
2.24144e-186
8.92799e-188
3.12086e-189
9.62631e-191
2.63453e-192
7.02737e-194
1.8302e-195
4.65355e-197
1.15502e-198
2.79776e-200
6.61184e-202
1.52395e-203
3.42426e-205
7.49723e-207
1.59857e-208
3.31731e-210
6.69526e-212
1.31324e-213
2.50125e-215
4.62177e-217
8.27699e-219
1.4351e-220
2.40624e-222
3.89669e-224
6.08644e-226
9.15602e-228
1.32445e-229
1.83909e-231
2.44679e-233
3.11267e-235
3.77783e-237
4.36385e-239
4.78464e-241
4.96473e-243
4.85939e-245
4.47004e-247
3.84851e-249
3.0867e-251
2.29401e-253
1.57006e-255
9.82474e-258
5.57313e-260
2.83644e-262
1.2789e-264
5.02732e-267
1.68734e-269
4.69989e-272
1.0427e-274
1.72707e-277
1.89833e-280
1.03931e-283
1.21405e-283
2.22855e-280
2.03097e-277
1.22696e-274
5.53098e-272
1.98532e-269
5.91276e-267
1.50334e-264
3.33207e-262
6.54226e-260
1.15242e-257
1.84013e-255
2.6863e-253
3.61131e-251
4.49843e-249
5.21997e-247
5.66913e-245
5.7863e-243
5.57079e-241
5.07565e-239
4.38947e-237
3.61279e-235
2.83688e-233
2.12997e-231
1.53223e-229
1.05805e-227
7.02526e-226
4.49248e-224
2.77085e-222
1.65055e-220
9.50775e-219
5.30228e-217
2.8658e-215
1.50264e-213
7.65041e-212
3.78525e-210
1.82143e-208
8.52983e-207
3.88996e-205
1.7285e-203
7.48724e-202
3.16293e-200
1.30355e-198
5.24276e-197
2.0582e-195
7.88812e-194
2.95154e-192
1.07677e-190
3.482e-189
9.92539e-188
2.48026e-186
5.40545e-185
1.02272e-183
1.67356e-182
2.36224e-181
2.87189e-180
3.00637e-179
2.71275e-178
2.11736e-177
1.44059e-176
8.63614e-176
4.5949e-175
2.16972e-174
9.08157e-174
3.39498e-173
1.15038e-172
3.59063e-172
1.0445e-171
2.83359e-171
7.15289e-171
1.68052e-170
3.68996e-170
7.61322e-170
1.4843e-169
2.74783e-169
4.8594e-169
8.2482e-169
1.34928e-168
2.13319e-168
3.265e-168
4.84408e-168
6.97586e-168
9.76462e-168
1.33052e-167
1.76694e-167
2.2896e-167
2.89885e-167
3.59039e-167
4.35513e-167
5.17913e-167
6.04371e-167
6.92627e-167
7.80136e-167
8.64227e-167
9.42086e-167
1.00799e-166
1.03059e-166
8.17577e-167
9.64673e-168
2.22088e-176
1.12016e-173
2.48385e-165
1.883e-164
2.32904e-164
2.28108e-164
2.14512e-164
1.98199e-164
1.80266e-164
1.61312e-164
1.41939e-164
1.22727e-164
1.04198e-164
8.6795e-165
7.08621e-165
5.66434e-165
4.42779e-165
3.38033e-165
2.5176e-165
1.82698e-165
1.28986e-165
8.84675e-166
5.88658e-166
3.79525e-166
2.3669e-166
1.42397e-166
8.23227e-167
4.55322e-167
2.39589e-167
1.19427e-167
5.60845e-168
2.46727e-168
1.01201e-168
3.86699e-169
1.37897e-169
4.58595e-170
1.4068e-170
3.92089e-171
9.78299e-172
2.16741e-172
4.26726e-173
7.46387e-174
1.15083e-174
1.54645e-175
1.79664e-176
1.79814e-177
1.5484e-178
1.14726e-179
7.32311e-181
4.03706e-182
1.92907e-183
8.0263e-185
2.9228e-186
9.36686e-188
2.65685e-189
7.30578e-191
1.95939e-192
5.12538e-194
1.30752e-195
3.25247e-197
7.88715e-199
1.86395e-200
4.29132e-202
9.62048e-204
2.09906e-205
4.45475e-207
9.18976e-209
1.84142e-210
3.58109e-212
6.75326e-214
1.23375e-215
2.18123e-217
3.72773e-219
6.1506e-221
9.78457e-223
1.49861e-224
2.20635e-226
3.11715e-228
4.21827e-230
5.45662e-232
6.73234e-234
7.90328e-236
8.80418e-238
9.27959e-240
9.22366e-242
8.61435e-244
7.5283e-246
6.12772e-248
4.62073e-250
3.20814e-252
2.0361e-254
1.17122e-256
6.04359e-259
2.76227e-261
1.10052e-263
3.74307e-266
1.05636e-268
2.37418e-271
3.98319e-274
4.43405e-277
2.4583e-280
2.90515e-280
5.26655e-277
4.73914e-274
2.82649e-271
1.2577e-268
4.45541e-266
1.30937e-263
3.28453e-261
7.18124e-259
1.39061e-256
2.41548e-254
3.80252e-252
5.47174e-250
7.24929e-248
8.8974e-246
1.01706e-243
1.08786e-241
1.0933e-239
1.03616e-237
9.29112e-236
7.90569e-234
6.40035e-232
4.9421e-230
3.64774e-228
2.57882e-226
1.74947e-224
1.14083e-222
7.16224e-221
4.33527e-219
2.5334e-217
1.43102e-215
7.82233e-214
4.14217e-212
2.12686e-210
1.05986e-208
5.12989e-207
2.41342e-205
1.10435e-203
4.91798e-202
2.13252e-200
9.00781e-199
3.70792e-197
1.48785e-195
5.82117e-194
2.22102e-192
8.26457e-191
2.99925e-189
1.05549e-187
3.28401e-186
8.982e-185
2.14759e-183
4.46605e-182
8.04225e-181
1.24977e-179
1.67232e-178
1.92513e-177
1.90708e-176
1.62815e-175
1.20255e-174
7.74772e-174
4.40412e-173
2.22539e-172
9.99754e-172
3.99033e-171
1.42687e-170
4.63846e-170
1.39149e-169
3.89493e-169
1.01766e-168
2.47745e-168
5.62437e-168
1.19636e-167
2.39795e-167
4.55393e-167
8.22855e-167
1.42261e-166
2.36369e-166
3.78907e-166
5.876e-166
8.83001e-166
1.28741e-165
1.82368e-165
2.51351e-165
3.37574e-165
4.42329e-165
5.66102e-165
7.08595e-165
8.68508e-165
1.04352e-164
1.23036e-164
1.42476e-164
1.62176e-164
1.81584e-164
2.00135e-164
2.17238e-164
2.31661e-164
2.36487e-164
1.88738e-164
2.365e-165
9.49797e-174
3.45118e-171
4.42981e-163
3.19086e-162
3.93154e-162
3.85342e-162
3.63126e-162
3.36606e-162
3.07503e-162
2.76688e-162
2.45052e-162
2.13481e-162
1.82797e-162
1.53718e-162
1.26823e-162
1.02548e-162
8.11707e-163
6.28132e-163
4.74714e-163
3.49938e-163
2.51217e-163
1.75369e-163
1.18877e-163
7.81502e-164
4.97429e-164
3.05747e-164
1.80817e-164
1.02469e-164
5.5361e-165
2.8414e-165
1.37806e-165
6.27764e-166
2.67176e-166
1.06066e-166
3.93247e-167
1.36104e-167
4.35342e-168
1.26937e-168
3.32486e-169
7.7512e-170
1.60841e-170
2.96949e-171
4.83997e-172
6.88114e-173
8.4605e-174
8.9606e-175
8.16118e-176
6.38849e-177
4.30079e-178
2.49501e-179
1.25137e-180
5.4494e-182
2.07075e-183
6.90368e-185
2.03081e-186
5.76389e-188
1.59377e-189
4.29372e-191
1.12703e-192
2.88194e-194
7.17812e-196
1.741e-197
4.11065e-199
9.44424e-201
2.1104e-202
4.5842e-204
9.67373e-206
1.98177e-207
3.93824e-209
7.58531e-211
1.41468e-212
2.55218e-214
4.44887e-216
7.48421e-218
1.21347e-219
1.89355e-221
2.83932e-223
4.0842e-225
5.62543e-227
7.40435e-229
9.29279e-231
1.10939e-232
1.25646e-234
1.34605e-236
1.35958e-238
1.29e-240
1.14507e-242
9.46469e-245
7.24604e-247
5.10668e-249
3.28924e-251
1.91983e-253
1.00501e-255
4.65922e-258
1.88255e-260
6.49236e-263
1.85755e-265
4.2319e-268
7.19575e-271
8.11718e-274
4.55972e-277
5.46157e-277
9.77117e-274
8.67615e-271
5.10525e-268
2.24089e-265
7.82962e-263
2.2691e-260
5.61211e-258
1.2096e-255
2.30867e-253
3.95178e-251
6.12932e-249
8.68825e-247
1.13366e-244
1.37005e-242
1.54174e-240
1.62306e-238
1.60506e-236
1.49646e-234
1.31972e-232
1.10411e-230
8.78649e-229
6.66711e-227
4.83429e-225
3.35641e-223
2.23543e-221
1.43063e-219
8.81147e-218
5.23049e-216
2.99628e-214
1.65842e-212
8.87893e-211
4.60283e-209
2.31256e-207
1.12703e-205
5.33193e-204
2.45046e-202
1.09469e-200
4.75609e-199
2.01064e-197
8.27399e-196
3.31539e-194
1.2939e-192
4.9192e-191
1.82201e-189
6.57473e-188
2.31119e-186
7.84054e-185
2.3441e-183
6.14096e-182
1.40203e-180
2.77585e-179
4.74643e-178
6.98815e-177
8.84422e-176
9.61931e-175
8.99932e-174
7.25617e-173
5.06361e-172
3.08532e-171
1.66122e-170
7.96279e-170
3.3991e-169
1.29227e-168
4.41699e-168
1.37706e-167
3.96923e-167
1.06856e-166
2.68717e-166
6.30464e-166
1.38222e-165
2.8469e-165
5.54195e-165
1.02506e-164
1.80773e-164
3.05519e-164
4.96859e-164
7.80392e-164
1.18687e-163
1.75073e-163
2.50789e-163
3.4937e-163
4.74024e-163
6.27376e-163
8.10989e-163
1.02498e-162
1.26825e-162
1.53815e-162
1.83046e-162
2.13959e-162
2.45858e-162
2.77942e-162
3.09348e-162
3.39204e-162
3.66617e-162
3.89639e-162
3.97095e-162
3.18679e-162
4.23789e-163
2.98722e-171
8.2635e-169
6.05693e-161
4.13728e-160
5.07985e-160
4.98608e-160
4.71121e-160
4.38308e-160
4.0228e-160
3.64017e-160
3.24538e-160
2.84882e-160
2.46038e-160
2.08891e-160
1.74178e-160
1.42485e-160
1.1422e-160
8.96094e-161
6.87367e-161
5.14845e-161
3.75932e-161
2.67184e-161
1.84565e-161
1.23753e-161
8.04106e-162
5.05037e-162
3.05564e-162
1.77441e-162
9.84445e-163
5.20418e-163
2.60803e-163
1.2311e-163
5.44096e-164
2.24592e-164
8.66262e-165
3.12147e-165
1.0415e-165
3.1797e-166
8.75453e-167
2.15069e-167
4.70953e-168
9.18861e-169
1.58548e-169
2.38924e-170
3.11532e-171
3.49959e-172
3.37966e-173
2.80247e-174
1.99534e-175
1.22162e-176
6.44971e-178
2.94822e-179
1.1724e-180
4.07753e-182
1.24725e-183
3.66364e-185
1.04712e-186
2.91257e-188
7.88474e-190
2.0774e-191
5.32634e-193
1.32871e-194
3.22408e-196
7.60682e-198
1.74436e-199
3.88586e-201
8.40425e-203
1.76354e-204
3.58778e-206
7.07067e-208
1.34864e-209
2.48712e-211
4.42989e-213
7.6114e-215
1.25994e-216
2.00648e-218
3.06941e-220
4.50279e-222
6.32298e-224
8.4822e-226
1.08466e-227
1.31897e-229
1.52119e-231
1.65907e-233
1.70556e-235
1.64667e-237
1.48697e-239
1.25007e-241
9.73177e-244
6.97273e-246
4.56504e-248
2.70777e-250
1.44025e-252
6.783e-255
2.78367e-257
9.74906e-260
2.83216e-262
6.55023e-265
1.13051e-267
1.29423e-270
7.37709e-274
8.96895e-274
1.58118e-270
1.38327e-267
8.0182e-265
3.4665e-262
1.19276e-259
3.40355e-257
8.28704e-255
1.75805e-252
3.30208e-250
5.56128e-248
8.48526e-246
1.18295e-243
1.51778e-241
1.80327e-239
1.99451e-237
2.06328e-235
2.0045e-233
1.83555e-231
1.58946e-229
1.30536e-227
1.01943e-225
7.5888e-224
5.39667e-222
3.67352e-220
2.39792e-218
1.50351e-216
9.06922e-215
5.27027e-213
2.95432e-211
1.59942e-209
8.37176e-208
4.24086e-206
2.08098e-204
9.89954e-203
4.56895e-201
2.04719e-199
8.91027e-198
3.76908e-196
1.55016e-194
6.20105e-193
2.41333e-191
9.13937e-190
3.36827e-188
1.20808e-186
4.21652e-185
1.43186e-183
4.66996e-182
1.3378e-180
3.3471e-179
7.27501e-178
1.36724e-176
2.21339e-175
3.07864e-174
3.67519e-173
3.76708e-172
3.32061e-171
2.52335e-170
1.66066e-169
9.55562e-169
4.86753e-168
2.21045e-167
8.95288e-167
3.23797e-166
1.05702e-165
3.15912e-165
8.74555e-165
2.26304e-164
5.4731e-164
1.23655e-163
2.61623e-163
5.21498e-163
9.85633e-163
1.77534e-162
3.05537e-162
5.04735e-162
8.03302e-162
1.23595e-161
1.84296e-161
2.66766e-161
3.75334e-161
5.1406e-161
6.86422e-161
8.95063e-161
1.14122e-160
1.42413e-160
1.74167e-160
2.08987e-160
2.46305e-160
2.85399e-160
3.254e-160
3.65333e-160
4.0417e-160
4.4089e-160
4.74467e-160
5.02542e-160
5.11267e-160
4.12431e-160
5.82106e-161
7.26954e-169
1.58519e-166
6.53577e-159
4.22438e-158
5.1693e-158
5.083e-158
4.81739e-158
4.49946e-158
4.14969e-158
3.77679e-158
3.38995e-158
2.99873e-158
2.61246e-158
2.23965e-158
1.88762e-158
1.56246e-158
1.26872e-158
1.00933e-158
7.86048e-159
5.98435e-159
4.44623e-159
3.21857e-159
2.26659e-159
1.55067e-159
1.02889e-159
6.60484e-160
4.08903e-160
2.43347e-160
1.38664e-160
7.55282e-161
3.91327e-161
1.9156e-161
8.79983e-162
3.78046e-162
1.51809e-162
5.69812e-163
1.98421e-163
6.34865e-164
1.83995e-164
4.77079e-165
1.10396e-165
2.27905e-166
4.16968e-167
6.67333e-168
9.24817e-169
1.10459e-169
1.13408e-170
9.99e-172
7.54496e-173
4.88998e-174
2.72628e-175
1.31231e-176
5.4788e-178
1.99413e-179
6.36258e-181
1.93983e-182
5.7467e-184
1.65471e-185
4.6318e-187
1.26046e-188
3.33465e-190
8.57549e-192
2.14322e-193
5.2041e-195
1.22725e-196
2.80952e-198
6.24028e-200
1.34394e-201
2.80451e-203
5.66616e-205
1.10737e-206
2.09148e-208
3.81332e-210
6.70408e-212
1.13503e-213
1.84801e-215
2.88916e-217
4.33002e-219
6.20974e-221
8.50478e-223
1.10998e-224
1.3772e-226
1.62016e-228
1.80193e-230
1.88854e-232
1.85841e-234
1.71005e-236
1.46457e-238
1.16129e-240
8.4729e-243
5.64759e-245
3.40983e-247
1.84577e-249
8.84498e-252
3.69274e-254
1.31545e-256
3.88626e-259
9.13903e-262
1.60353e-264
1.86596e-267
1.08091e-270
1.33597e-270
2.31718e-267
1.99409e-264
1.13686e-261
4.83326e-259
1.63511e-256
4.58668e-254
1.09764e-251
2.28827e-249
4.22274e-247
6.98601e-245
1.04684e-242
1.43302e-240
1.80496e-238
2.10474e-236
2.28429e-234
2.31817e-232
2.20879e-230
1.98318e-228
1.68336e-226
1.35476e-224
1.03649e-222
7.55652e-221
5.26106e-219
3.50492e-217
2.23832e-215
1.37254e-213
8.09358e-212
4.59595e-210
2.5164e-208
1.33002e-206
6.7932e-205
3.35618e-203
1.60528e-201
7.4393e-200
3.34268e-198
1.45717e-196
6.16603e-195
2.53387e-193
1.01159e-191
3.92458e-190
1.47992e-188
5.42492e-187
1.93315e-185
6.69619e-184
2.25425e-182
7.37331e-181
2.30465e-179
6.30555e-178
1.50172e-176
3.09722e-175
5.50736e-174
8.41436e-173
1.10231e-171
1.23764e-170
1.19231e-169
9.87819e-169
7.0586e-168
4.37223e-167
2.37214e-166
1.14176e-165
4.90545e-165
1.88213e-164
6.46642e-164
2.01427e-163
5.76833e-163
1.53291e-162
3.80979e-162
8.85263e-162
1.92424e-161
3.92592e-161
7.56926e-161
1.38847e-160
2.43504e-160
4.08912e-160
6.60159e-160
1.02797e-159
1.54883e-159
2.26349e-159
3.21378e-159
4.43943e-159
5.97549e-159
7.84987e-159
1.00816e-158
1.26757e-158
1.56152e-158
1.8872e-158
2.24015e-158
2.61441e-158
3.00276e-158
3.39675e-158
3.78713e-158
4.16432e-158
4.51904e-158
4.84209e-158
5.11094e-158
5.19025e-158
4.20724e-158
6.30714e-159
1.41282e-166
2.48455e-164
5.66328e-157
3.4548e-156
4.21353e-156
4.15141e-156
3.94733e-156
3.702e-156
3.43136e-156
3.14156e-156
2.83919e-156
2.53125e-156
2.22472e-156
1.9261e-156
1.64114e-156
1.37481e-156
1.13106e-156
9.12697e-157
7.21916e-157
5.58888e-157
4.22721e-157
3.11832e-157
2.23995e-157
1.56439e-157
1.06044e-157
6.96003e-158
4.4102e-158
2.6903e-158
1.57481e-158
8.84138e-159
4.73903e-159
2.40772e-159
1.15089e-159
5.15181e-160
2.15586e-160
8.43453e-161
3.067e-161
1.02947e-161
3.14557e-162
8.6236e-163
2.11184e-163
4.61916e-164
8.97612e-165
1.52901e-165
2.25748e-166
2.87414e-167
3.14591e-168
2.95264e-169
2.37287e-170
1.63331e-171
9.64818e-173
4.90727e-174
2.1583e-175
8.24926e-177
2.75478e-178
8.74372e-180
2.69258e-181
8.04787e-183
2.33538e-184
6.58073e-186
1.80076e-187
4.78504e-189
1.23455e-190
3.09188e-192
7.51437e-194
1.77151e-195
4.04913e-197
8.968e-199
1.92335e-200
3.99136e-202
8.00789e-204
1.55183e-205
2.90166e-207
5.2292e-209
9.07122e-211
1.51267e-212
2.42115e-214
3.71353e-216
5.44833e-218
7.63131e-220
1.01826e-221
1.29125e-223
1.55209e-225
1.76326e-227
1.88715e-229
1.89589e-231
1.78059e-233
1.55613e-235
1.25879e-237
9.36756e-240
6.36716e-242
3.91935e-244
2.16256e-246
1.05612e-248
4.49272e-251
1.63041e-253
4.90615e-256
1.17495e-258
2.09908e-261
2.48666e-264
1.46619e-267
1.8455e-267
3.14428e-264
2.65757e-261
1.48783e-258
6.21042e-256
2.06246e-253
5.6783e-251
1.33346e-248
2.72737e-246
4.93703e-244
8.01023e-242
1.17693e-239
1.57937e-237
1.94968e-235
2.2277e-233
2.36847e-231
2.35402e-229
2.19613e-227
1.93011e-225
1.60321e-223
1.26224e-221
9.44447e-220
6.73167e-218
4.58053e-216
2.9813e-214
1.8594e-212
1.11307e-210
6.40481e-209
3.54745e-207
1.89362e-205
9.7528e-204
4.85148e-202
2.3331e-200
1.0856e-198
4.89113e-197
2.13521e-195
9.0367e-194
3.70963e-192
1.47767e-190
5.71325e-189
2.1446e-187
7.81672e-186
2.7665e-184
9.50688e-183
3.17154e-181
1.02684e-179
3.22518e-178
9.62796e-177
2.50709e-175
5.6636e-174
1.10449e-172
1.8518e-171
2.66121e-170
3.27302e-169
3.44577e-168
3.11118e-167
2.41637e-166
1.61971e-165
9.42224e-165
4.81193e-164
2.18559e-163
8.87047e-163
3.21835e-162
1.04876e-161
3.11418e-161
8.54047e-161
2.17728e-160
5.19228e-160
1.15786e-159
2.41871e-159
4.75464e-159
8.86128e-159
1.57702e-158
2.69229e-158
4.41068e-158
6.95716e-158
1.05956e-157
1.56265e-157
2.23703e-157
3.11384e-157
4.2209e-157
5.58071e-157
7.20938e-157
9.1161e-157
1.12995e-156
1.37382e-156
1.64048e-156
1.92603e-156
2.22559e-156
2.53345e-156
2.84313e-156
3.14766e-156
3.43999e-156
3.71343e-156
3.96149e-156
4.16691e-156
4.22359e-156
3.43936e-156
5.48508e-157
2.23844e-164
3.22273e-162
3.9783e-155
2.2829e-154
2.77506e-154
2.73987e-154
2.61408e-154
2.46204e-154
2.2938e-154
2.11281e-154
1.92283e-154
1.72797e-154
1.53239e-154
1.34005e-154
1.15454e-154
9.79066e-155
8.16322e-155
6.68376e-155
5.37186e-155
4.2313e-155
3.26007e-155
2.45233e-155
1.7981e-155
1.28288e-155
8.88957e-156
5.96838e-156
3.87218e-156
2.4219e-156
1.45672e-156
8.43337e-157
4.67956e-157
2.46996e-157
1.23006e-157
5.74553e-158
2.50862e-158
1.02386e-158
3.89027e-159
1.37143e-159
4.42561e-160
1.2854e-160
3.3369e-161
7.74393e-162
1.60131e-162
2.91019e-163
4.58928e-164
6.24509e-165
7.30878e-166
7.33183e-167
6.29046e-168
4.61439e-169
2.89834e-170
1.56333e-171
7.27016e-173
2.92871e-174
1.02734e-175
3.40549e-177
1.09337e-178
3.40192e-180
1.02619e-181
3.00195e-183
8.51776e-185
2.34432e-186
6.25832e-188
1.62024e-189
4.06704e-191
9.89467e-193
2.33217e-194
5.32264e-196
1.17553e-197
2.51055e-199
5.18064e-201
1.03202e-202
1.98265e-204
3.66923e-206
6.53351e-208
1.11783e-209
1.83495e-211
2.88531e-213
4.3382e-215
6.22488e-217
8.50609e-219
1.10429e-220
1.35849e-222
1.57905e-224
1.72864e-226
1.77588e-228
1.70511e-230
1.52305e-232
1.25893e-234
9.57089e-237
6.64435e-239
4.17646e-241
2.35266e-243
1.17277e-245
5.09136e-248
1.88522e-250
5.78719e-253
1.4136e-255
2.57538e-258
3.11067e-261
1.86972e-264
2.40162e-264
4.01314e-261
3.32623e-258
1.82579e-255
7.4709e-253
2.43172e-250
6.56056e-248
1.50944e-245
3.02418e-243
5.36126e-241
8.51717e-239
1.22505e-236
1.60896e-234
1.94349e-232
2.17234e-230
2.25883e-228
2.19512e-226
2.00179e-224
1.71923e-222
1.3951e-220
1.07272e-218
7.83624e-217
5.45122e-215
3.61886e-213
2.29713e-211
1.3967e-209
8.14746e-208
4.56651e-206
2.46247e-204
1.27911e-202
6.40738e-201
3.09826e-199
1.44748e-197
6.53902e-196
2.8584e-194
1.2098e-192
4.9603e-191
1.97104e-189
7.59318e-188
2.8366e-186
1.02774e-184
3.61157e-183
1.23088e-181
4.06784e-180
1.30321e-178
4.04564e-177
1.21628e-175
3.455e-174
8.53036e-173
1.82096e-171
3.34521e-170
5.2688e-169
7.09674e-168
8.16653e-167
8.03581e-166
6.77986e-165
4.92288e-164
3.08741e-163
1.68264e-162
8.07387e-162
3.45566e-161
1.32265e-160
4.52869e-160
1.39732e-159
3.95094e-159
1.03695e-158
2.5339e-158
5.79107e-158
1.23754e-157
2.4813e-157
4.69516e-157
8.45281e-157
1.45888e-156
2.42387e-156
3.87287e-156
5.96629e-156
8.88273e-156
1.28152e-155
1.79584e-155
2.44889e-155
3.25528e-155
4.22515e-155
5.36448e-155
6.67545e-155
8.15448e-155
9.78227e-155
1.15385e-154
1.33965e-154
1.53247e-154
1.72872e-154
1.92444e-154
2.11545e-154
2.29762e-154
2.46712e-154
2.62032e-154
2.74648e-154
2.77842e-154
2.2724e-154
3.86557e-155
2.93034e-162
3.48698e-160
2.27302e-153
1.2213e-152
1.47965e-152
1.46406e-152
1.40177e-152
1.32601e-152
1.24191e-152
1.151e-152
1.05498e-152
9.55787e-153
8.55385e-153
7.557e-153
6.58511e-153
5.65459e-153
4.77978e-153
3.97252e-153
3.24615e-153
2.60336e-153
2.0448e-153
1.56983e-153
1.17603e-153
8.57938e-154
6.08239e-154
4.18033e-154
2.77846e-154
1.78253e-154
1.10206e-154
6.58226e-155
3.78402e-155
2.07723e-155
1.07943e-155
5.27054e-156
2.40488e-156
1.02505e-156
4.07313e-157
1.50993e-157
5.15621e-158
1.59032e-158
4.38488e-159
1.08138e-159
2.38445e-160
4.63586e-161
7.8302e-162
1.14217e-162
1.43372e-163
1.54237e-164
1.41773e-165
1.11239e-166
7.45757e-168
4.28248e-169
2.11408e-170
9.01152e-172
3.33351e-173
1.15794e-174
3.88838e-176
1.26319e-177
3.97221e-179
1.20961e-180
3.56805e-182
1.01967e-183
2.8233e-185
7.57337e-187
1.96781e-188
4.95128e-190
1.20596e-191
2.84199e-193
6.47653e-195
1.42627e-196
3.03299e-198
6.22263e-200
1.23053e-201
2.34292e-203
4.28995e-205
7.54407e-207
1.2723e-208
2.05454e-210
3.17116e-212
4.66946e-214
6.54543e-216
8.71402e-218
1.09896e-219
1.30912e-221
1.46831e-223
1.54502e-225
1.51903e-227
1.38902e-229
1.17508e-231
9.14086e-234
6.49167e-236
4.17334e-238
2.40388e-240
1.22506e-242
5.43594e-245
2.05691e-247
6.45134e-250
1.60974e-252
2.99527e-255
3.69432e-258
2.26705e-261
2.97869e-261
4.87427e-258
3.95561e-255
2.12555e-252
8.51281e-250
2.71152e-247
7.1574e-245
1.61086e-242
3.15639e-240
5.47143e-238
8.49735e-236
1.19454e-233
1.53303e-231
1.809e-229
1.97483e-227
2.00502e-225
1.90198e-223
1.69262e-221
1.41821e-219
1.12239e-217
8.41424e-216
5.99076e-214
4.0603e-212
2.62521e-210
1.62232e-208
9.59907e-207
5.44673e-205
2.96813e-203
1.55539e-201
7.84734e-200
3.8159e-198
1.79012e-196
8.10864e-195
3.54917e-193
1.50212e-191
6.15072e-190
2.43776e-188
9.35542e-187
3.47742e-185
1.25212e-183
4.36774e-182
1.47594e-180
4.83063e-179
1.53088e-177
4.69559e-176
1.39317e-174
3.99537e-173
1.07565e-171
2.50789e-170
5.03822e-169
8.68359e-168
1.27976e-166
1.60948e-165
1.72661e-164
1.58253e-163
1.2437e-162
8.41798e-162
4.92545e-161
2.50808e-160
1.1284e-159
4.54385e-159
1.6369e-158
5.27678e-158
1.5386e-157
4.13747e-157
1.03838e-156
2.42941e-156
5.31251e-156
1.086e-155
2.08678e-155
3.7967e-155
6.59769e-155
1.10375e-154
1.78411e-154
2.77911e-154
4.17908e-154
6.07799e-154
8.57063e-154
1.17459e-153
1.56768e-153
2.04184e-153
2.59958e-153
3.24163e-153
3.96738e-153
4.77424e-153
5.649e-153
6.58e-153
7.55295e-153
8.5516e-153
9.55822e-153
1.05535e-152
1.15175e-152
1.24309e-152
1.32765e-152
1.4038e-152
1.46612e-152
1.48019e-152
1.21572e-152
2.21504e-153
3.19626e-160
3.16004e-158
1.05356e-151
5.26587e-151
6.35813e-151
6.30518e-151
6.05891e-151
5.75712e-151
5.42106e-151
5.05605e-151
4.66815e-151
4.26443e-151
3.85233e-151
3.43923e-151
3.03204e-151
2.63734e-151
2.26109e-151
1.90852e-151
1.58678e-151
1.29684e-151
1.03943e-151
8.15291e-152
6.24801e-152
4.66651e-152
3.38879e-152
2.38665e-152
1.62644e-152
1.07098e-152
6.80944e-153
4.19861e-153
2.50303e-153
1.43093e-153
7.77359e-154
3.97667e-154
1.90023e-154
8.47138e-155
3.52403e-155
1.37574e-155
4.98281e-156
1.63655e-156
4.80373e-157
1.26124e-157
2.97257e-158
6.20189e-159
1.12546e-159
1.76527e-160
2.38479e-161
2.76128e-162
2.72959e-163
2.29989e-164
1.65246e-165
1.01449e-166
5.33894e-168
2.41842e-169
9.47418e-171
3.46119e-172
1.21977e-173
4.15057e-175
1.36471e-176