/*--------------------------------*- C++ -*----------------------------------*\
| =========                 |                                                 |
| \\      /  F ield         | OpenFOAM: The Open Source CFD Toolbox           |
|  \\    /   O peration     | Version:  2412                                  |
|   \\  /    A nd           | Website:  www.openfoam.com                      |
|    \\/     M anipulation  |                                                 |
\*---------------------------------------------------------------------------*/
FoamFile
{
    version     2.0;
    format      ascii;
    arch        "LSB;label=32;scalar=64";
    class       surfaceScalarField;
    location    "1.21";
    object      alphaPhi0.water;
}
// * * * * * * * * * * * * * * * * * * * * * * * * * * * * * * * * * * * * * //

dimensions      [0 3 -1 0 0 0 0];

oriented        oriented;

internalField   nonuniform List<scalar> 
79600
(
2.14006e-196
-6.93275e-193
1.11021e-186
-1.35882e-183
1.86001e-185
-1.37756e-182
3.51019e-185
-1.82299e-182
4.6147e-185
-1.83074e-182
5.39473e-185
-1.72908e-182
5.88537e-185
-1.58315e-182
6.10089e-185
-1.41515e-182
6.06532e-185
-1.23785e-182
5.81388e-185
-1.06028e-182
5.38924e-185
-8.89173e-183
4.83877e-185
-7.29592e-183
4.21159e-185
-5.85242e-183
3.55431e-185
-4.58451e-183
2.908e-185
-3.50305e-183
2.30547e-185
-2.6076e-183
1.76983e-185
-1.88832e-183
1.31458e-185
-1.32862e-183
9.44053e-186
-9.07163e-184
6.54763e-186
-6.00181e-184
4.38106e-186
-3.84209e-184
2.82496e-186
-2.37651e-184
1.75345e-186
-1.4184e-184
1.04583e-186
-8.15278e-185
5.97608e-187
-4.49901e-185
3.25686e-187
-2.3728e-185
1.68367e-187
-1.18964e-185
8.19912e-188
-5.63145e-186
3.7376e-188
-2.5017e-186
1.58539e-188
-1.03666e-186
6.2278e-189
-3.98659e-187
2.25946e-189
-1.418e-187
7.5799e-190
-4.66756e-188
2.3584e-190
-1.42545e-188
6.79384e-191
-4.03226e-189
1.78774e-191
-1.04293e-189
4.21742e-192
-2.42203e-190
8.78469e-193
-4.97318e-191
1.60598e-193
-8.9667e-192
2.58226e-194
-1.42137e-192
3.6516e-195
-1.97981e-193
4.50882e-196
-2.40481e-194
4.81297e-197
-2.52034e-195
4.40928e-198
-2.26041e-196
3.45358e-199
-1.72628e-197
2.30856e-200
-1.119e-198
1.31565e-201
-6.13837e-200
6.38541e-203
-2.83836e-201
2.63378e-204
-1.09888e-202
9.18913e-206
-3.51487e-204
2.68363e-207
-9.01795e-206
6.40553e-209
-1.71497e-207
1.17578e-210
-1.7202e-209
1.6741e-212
7.10669e-216
2.34461e-214
3.42314e-217
3.22823e-216
8.0892e-219
4.36732e-218
1.55623e-220
5.80167e-220
2.6896e-222
7.5632e-222
4.33132e-224
9.66919e-224
6.61285e-226
1.21147e-225
9.66224e-228
1.48651e-227
1.3586e-229
1.78493e-229
1.84457e-231
2.09562e-231
2.42317e-233
2.40353e-233
3.08373e-235
2.69033e-235
3.8039e-237
2.93575e-237
4.5489e-239
3.11955e-239
5.27272e-241
3.22399e-241
5.92143e-243
3.23639e-243
6.43878e-245
3.15133e-245
6.77345e-247
2.97209e-247
6.88689e-249
2.71078e-249
6.76019e-251
2.38718e-251
6.39847e-253
2.02617e-253
5.83142e-255
1.6545e-255
5.10967e-257
1.29716e-257
4.29742e-259
9.74383e-260
3.46278e-261
6.99631e-262
2.66793e-263
4.78982e-264
1.96111e-265
3.11808e-266
1.37202e-267
1.92425e-268
9.11165e-270
1.12199e-270
5.72711e-272
6.15827e-273
3.3959e-274
3.16852e-275
1.89264e-276
1.52103e-277
9.8738e-279
6.77584e-280
4.79926e-281
2.78382e-282
2.16183e-283
1.04719e-284
8.96903e-286
3.57596e-287
3.40265e-288
1.09713e-289
1.17037e-290
2.98608e-292
3.61232e-293
7.09514e-295
9.87865e-296
1.44132e-297
2.35561e-298
2.43303e-300
4.79661e-301
3.2755e-303
8.10663e-304
3.29629e-306
1.09139e-306
2.20392e-309
1.09706e-309
7.34667e-313
7.31797e-313
6.53496e-319
2.43078e-316
-8.66681e-313
2.87763e-316
-2.60546e-309
8.67945e-313
-3.89525e-306
1.30042e-309
-3.86613e-303
1.292e-306
-2.8674e-300
9.58105e-304
-1.69579e-297
5.65894e-301
-8.33312e-295
2.77396e-298
-3.5008e-292
1.16112e-295
-1.28392e-289
4.23785e-293
-4.17728e-287
1.37047e-290
-1.22109e-284
3.97703e-288
-3.24038e-282
1.04639e-285
-7.87332e-280
2.5176e-283
-1.76434e-277
5.57914e-281
-3.66911e-275
1.14582e-278
-7.1192e-273
2.19259e-276
-1.29492e-270
3.92748e-274
-2.21719e-268
6.6126e-272
-3.587e-266
1.05031e-269
-5.50142e-264
1.57896e-267
-8.02318e-262
2.2533e-265
-1.11568e-259
3.06062e-263
-1.48301e-257
3.96634e-261
-1.8887e-255
4.91492e-259
-2.30954e-253
5.83517e-257
-2.71702e-251
6.64959e-255
-3.08083e-249
7.28557e-253
-3.37292e-247
7.68625e-251
-3.57119e-245
7.81892e-249
-3.66233e-243
7.67907e-247
-3.64309e-241
7.28931e-245
-3.52003e-239
6.69418e-243
-3.30787e-237
5.95252e-241
-3.02695e-235
5.12837e-239
-2.70028e-233
4.28264e-237
-2.35083e-231
3.46712e-235
-1.99924e-229
2.72071e-233
-1.66237e-227
2.06811e-231
-1.3526e-225
1.52098e-229
-1.07776e-223
1.08011e-227
-8.41572e-222
7.38106e-226
-6.44422e-220
4.82681e-224
-4.84217e-218
2.99285e-222
-3.57252e-216
1.7294e-220
-2.58963e-214
8.97889e-219
-1.84536e-212
3.79863e-217
-1.29345e-210
7.95103e-216
-7.04019e-209
-1.88169e-209
-2.9419e-207
-1.88329e-207
-1.00358e-205
-9.88727e-206
-2.86308e-204
-3.84078e-204
-6.90356e-203
-1.19515e-202
-1.41375e-201
-3.07004e-201
-2.46452e-200
-6.59847e-200
-3.66198e-199
-1.19486e-198
-4.64366e-198
-1.83062e-197
-5.03535e-197
-2.38053e-196
-4.68774e-196
-2.63657e-195
-3.77506e-195
-2.49995e-194
-2.65632e-194
-2.0464e-193
-1.64462e-193
-1.46178e-192
-8.95798e-193
-9.17947e-192
-4.28374e-192
-5.06932e-191
-1.80976e-191
-2.4592e-190
-6.85873e-191
-1.05542e-189
-2.37564e-190
-4.06947e-189
-7.62216e-190
-1.43544e-188
-2.26857e-189
-4.69206e-188
-6.24416e-189
-1.42319e-187
-1.58759e-188
-3.99543e-187
-3.7388e-188
-1.03766e-186
-8.19425e-188
-2.50143e-186
-1.68132e-187
-5.62567e-186
-3.24986e-187
-1.18748e-185
-5.95907e-187
-2.36662e-185
-1.04225e-186
-4.4839e-185
-1.7468e-186
-8.1202e-185
-2.81373e-186
-1.41208e-184
-4.36343e-186
-2.3653e-184
-6.52168e-186
-3.82353e-184
-9.40422e-186
-5.97264e-184
-1.30971e-185
-9.02763e-184
-1.76353e-185
-1.32219e-183
-2.29765e-185
-1.87914e-183
-2.89882e-185
-2.59486e-183
-3.54438e-185
-3.48602e-183
-4.20213e-185
-4.56275e-183
-4.8317e-185
-5.82602e-183
-5.38737e-185
-7.26579e-183
-5.82097e-185
-8.85995e-183
-6.0865e-185
-1.05735e-182
-6.14501e-185
-1.23601e-182
-5.96836e-185
-1.41635e-182
-5.54168e-185
-1.59214e-182
-4.85054e-185
-1.75637e-182
-3.8072e-185
-1.89494e-182
-2.04511e-185
-1.9363e-182
-1.12369e-186
-1.47559e-182
-1.63442e-196
-1.34463e-183
-5.36328e-193
1.33316e-192
-2.22725e-189
3.88139e-183
-2.49723e-180
5.83055e-182
-2.32866e-179
1.05075e-181
-2.99559e-179
1.3484e-181
-2.97079e-179
1.55942e-181
-2.79691e-179
1.69687e-181
-2.56703e-179
1.76223e-181
-2.30654e-179
1.75957e-181
-2.03102e-179
1.69664e-181
-1.75294e-179
1.58399e-181
-1.48244e-179
1.434e-181
-1.22764e-179
1.25985e-181
-9.94691e-180
1.07434e-181
-7.87744e-180
8.89122e-182
-6.09082e-180
7.1379e-182
-4.59223e-180
5.55465e-182
-3.37162e-180
4.18708e-182
-2.40763e-180
3.05489e-182
-1.67009e-180
2.15495e-182
-1.12368e-180
1.46813e-182
-7.32252e-181
9.64966e-183
-4.6153e-181
6.11237e-183
-2.80984e-181
3.72503e-183
-1.64928e-181
2.17787e-183
-9.30558e-182
1.21629e-183
-5.02499e-182
6.45516e-184
-2.58378e-182
3.23426e-184
-1.25686e-182
1.52088e-184
-5.75178e-183
6.67326e-185
-2.46172e-183
2.71883e-185
-9.80155e-184
1.02537e-185
-3.61686e-184
3.58229e-186
-1.23707e-184
1.16266e-186
-3.93083e-185
3.50075e-187
-1.15876e-185
9.65627e-188
-3.12969e-186
2.39707e-188
-7.61087e-187
5.27563e-189
-1.64116e-187
1.0229e-189
-3.1153e-188
1.75047e-190
-5.21131e-189
2.64436e-191
-7.67739e-190
3.50296e-192
-9.88254e-191
4.03073e-193
-1.09926e-191
4.00174e-194
-1.04776e-192
3.41776e-195
-8.5163e-194
2.50979e-196
-5.88526e-195
1.58605e-197
-3.44907e-196
8.64112e-199
-1.70894e-197
4.06875e-200
-7.12301e-199
1.66023e-201
-2.47296e-200
5.88493e-203
-6.9951e-202
1.81453e-204
-1.52216e-203
4.86158e-206
-2.05841e-205
1.14534e-207
2.98857e-211
2.64138e-209
4.98831e-212
5.96187e-211
2.10617e-213
1.31666e-212
6.84432e-215
2.84418e-214
1.95944e-216
6.00682e-216
5.17205e-218
1.23969e-217
1.285e-219
2.49867e-219
3.03825e-221
4.91527e-221
6.87988e-223
9.4302e-223
1.49781e-224
1.7632e-224
3.14261e-226
3.21026e-226
6.36386e-228
5.68672e-228
1.24483e-229
9.79193e-230
2.35304e-231
1.63732e-231
4.29832e-233
2.65584e-233
7.58625e-235
4.17432e-235
1.29308e-236
6.34979e-237
2.12728e-238
9.33599e-239
3.37503e-240
1.3249e-240
5.15906e-242
1.81206e-242
7.58971e-244
2.38466e-244
1.07323e-245
3.01429e-246
1.45667e-247
3.65278e-248
1.89471e-249
4.23491e-250
2.35766e-251
4.68676e-252
2.80115e-253
4.939e-254
3.1709e-255
4.94279e-256
3.41188e-257
4.68356e-258
3.48047e-259
4.18811e-260
3.35624e-261
3.52124e-262
3.04953e-263
2.77211e-264
2.60136e-265
2.03387e-266
2.07481e-267
1.38329e-268
1.5401e-269
8.66741e-271
1.05828e-271
4.96727e-273
6.69066e-274
2.58155e-275
3.86389e-276
1.2042e-277
2.021e-278
4.97806e-280
9.47588e-281
1.79476e-282
3.93263e-283
5.52669e-285
1.4217e-285
1.41282e-287
4.38455e-288
2.87761e-290
1.12121e-290
4.37703e-293
2.28172e-293
4.41912e-296
3.46357e-296
2.22234e-299
3.48564e-299
2.95907e-305
1.74517e-302
-2.57141e-299
2.02318e-302
-5.13128e-296
4.05473e-299
-5.08704e-293
4.03247e-296
-3.34462e-290
2.65654e-293
-1.64155e-287
1.30491e-290
-6.41777e-285
5.09982e-288
-2.08264e-282
1.6524e-285
-5.77186e-280
4.56696e-283
-1.395e-277
1.09944e-280
-2.98781e-275
2.34263e-278
-5.74343e-273
4.47443e-276
-1.00118e-270
7.74005e-274
-1.59623e-268
1.22301e-271
-2.34455e-266
1.77797e-269
-3.1922e-264
2.39276e-267
-4.05056e-262
2.99683e-265
-4.81254e-260
3.50939e-263
-5.37607e-258
3.8582e-261
-5.66747e-256
3.99666e-259
-5.65696e-254
3.91361e-257
-5.36216e-252
3.63319e-255
-4.83985e-250
3.206e-253
-4.16991e-248
2.69542e-251
-3.43716e-246
2.16374e-249
-2.71611e-244
1.66164e-247
-2.06155e-242
1.22287e-245
-1.50556e-240
8.638e-244
-1.05966e-238
5.8648e-242
-7.19857e-237
3.83219e-240
-4.72657e-235
2.41255e-238
-3.0035e-233
1.46473e-236
-1.84933e-231
8.5829e-235
-1.10458e-229
4.85711e-233
-6.40656e-228
2.6557e-231
-3.61185e-226
1.40323e-229
-1.98111e-224
7.16466e-228
-1.05812e-222
3.5336e-226
-5.50751e-221
1.68202e-224
-2.79577e-219
7.71604e-223
-1.38509e-217
3.40307e-221
-6.70141e-216
1.43745e-219
-3.16822e-214
5.7781e-218
-1.46436e-212
2.18627e-216
-6.61984e-211
7.62794e-215
-2.92792e-209
2.34527e-213
-1.26735e-207
5.55635e-212
-5.36977e-206
3.41807e-211
-2.00028e-204
-2.27265e-205
-6.46837e-203
-1.68229e-203
-1.81774e-201
-7.71267e-202
-4.4335e-200
-2.71621e-200
-9.36318e-199
-7.78463e-199
-1.70783e-197
-1.8566e-197
-2.68432e-196
-3.72229e-196
-3.62995e-195
-6.30622e-195
-4.22047e-194
-9.05818e-194
-4.22211e-193
-1.10623e-192
-3.64574e-192
-1.15233e-191
-2.73617e-191
-1.02907e-190
-1.80198e-190
-7.94642e-190
-1.04814e-189
-5.36547e-189
-5.38251e-189
-3.19225e-188
-2.43602e-188
-1.67432e-187
-9.78053e-188
-7.73381e-187
-3.53616e-187
-3.16967e-186
-1.17181e-186
-1.17036e-185
-3.60424e-186
-3.96127e-185
-1.03005e-185
-1.24443e-184
-2.72739e-185
-3.6326e-184
-6.68586e-185
-9.83014e-184
-1.52211e-184
-2.46577e-183
-3.23393e-184
-5.75505e-183
-6.44959e-184
-1.25644e-182
-1.21442e-183
-2.58096e-182
-2.17324e-183
-5.01604e-182
-3.71536e-183
-9.28315e-182
-6.09457e-183
-1.64445e-181
-9.61988e-183
-2.80058e-181
-1.46349e-182
-4.59912e-181
-2.14819e-182
-7.29601e-181
-3.04565e-182
-1.11958e-180
-4.17515e-182
-1.66408e-180
-5.54015e-182
-2.39921e-180
-7.1213e-182
-3.36029e-180
-8.87387e-182
-4.57767e-180
-1.0728e-181
-6.07314e-180
-1.25892e-181
-7.85755e-180
-1.43431e-181
-9.92712e-180
-1.58635e-181
-1.22611e-179
-1.70208e-181
-1.48211e-179
-1.7694e-181
-1.75498e-179
-1.77834e-181
-2.03741e-179
-1.72194e-181
-2.32081e-179
-1.59681e-181
-2.59582e-179
-1.39949e-181
-2.85225e-179
-1.10543e-181
-3.06947e-179
-6.07101e-182
-3.13831e-179
-3.67932e-183
-2.42224e-179
-1.00005e-192
-2.39407e-180
-1.7432e-189
1.64801e-189
-2.38756e-186
2.85607e-180
-1.57134e-177
4.04071e-179
-1.38204e-176
7.15082e-179
-1.75236e-176
9.0821e-179
-1.72589e-176
1.04578e-178
-1.6221e-176
1.13806e-178
-1.49176e-176
1.18538e-178
-1.34619e-176
1.18928e-178
-1.19228e-176
1.15381e-178
-1.03616e-176
1.08507e-178
-8.83166e-177
9.90521e-179
-7.37805e-177
8.78368e-179
-6.03622e-177
7.56795e-179
-4.83139e-177
6.33436e-179
-3.77907e-177
5.14817e-179
-2.88521e-177
4.05993e-179
-2.14715e-177
3.10456e-179
-1.55571e-177
2.30017e-179
-1.09606e-177
1.64936e-179
-7.49753e-178
1.14338e-179
-4.97212e-178
7.65454e-180
-3.19227e-178
4.94361e-180
-1.98164e-178
3.07514e-180
-1.18723e-178
1.83732e-180
-6.845e-179
1.05004e-180
-3.78211e-179
5.7122e-181
-1.99307e-179
2.93936e-181
-9.956e-180
1.42304e-181
-4.69062e-180
6.44505e-182
-2.07233e-180
2.71691e-182
-8.53818e-181
1.06224e-182
-3.26657e-181
3.85315e-183
-1.16e-181
1.30009e-183
-3.83118e-182
4.07577e-184
-1.17544e-182
1.17286e-184
-3.31039e-183
3.04556e-185
-8.41704e-184
7.03102e-186
-1.90296e-184
1.43339e-186
-3.79571e-185
2.58477e-187
-6.68476e-186
4.12311e-188
-1.03862e-186
5.77721e-189
-1.41184e-187
7.03994e-190
-1.65947e-188
7.40872e-191
-1.67175e-189
6.71334e-192
-1.43612e-190
5.23533e-193
-1.04865e-191
3.51711e-194
-6.49036e-193
2.03983e-195
-3.39403e-194
1.02455e-196
-1.4924e-195
4.47438e-198
-5.46816e-197
1.70667e-199
-1.63673e-198
5.71272e-201
-3.80524e-200
1.6859e-202
-5.75902e-202
4.41675e-204
5.0346e-208
1.13076e-205
2.9431e-208
2.82843e-207
1.44839e-209
6.9099e-209
5.30282e-211
1.64809e-210
1.69235e-212
3.83619e-212
4.95241e-214
8.71046e-214
1.35918e-215
1.92842e-215
3.54025e-217
4.1606e-217
8.81206e-219
8.7429e-219
2.10496e-220
1.78824e-220
4.83825e-222
3.55763e-222
1.07184e-223
6.87903e-224
2.29089e-225
1.2917e-225
4.72636e-227
2.35325e-227
9.41383e-229
4.15541e-229
1.80994e-230
7.1045e-231
3.35783e-232
1.17469e-232
6.00769e-234
1.876e-234
1.03582e-235
2.88986e-236
1.71948e-237
4.2876e-238
2.74522e-239
6.11725e-240
4.21013e-241
8.37822e-242
6.19372e-243
1.09948e-243
8.72715e-245
1.37969e-245
1.17574e-246
1.65182e-247
1.51161e-248
1.88223e-249
1.85072e-250
2.03586e-251
2.15278e-252
2.08402e-253
2.37295e-254
2.01235e-255
2.47146e-256
1.82625e-257
2.42435e-258
1.55124e-259
2.23174e-260
1.22752e-261
1.92012e-262
9.00097e-264
1.53686e-264
6.07823e-266
1.13831e-266
3.75285e-268
7.7542e-269
2.10053e-270
4.82335e-271
1.05488e-272
2.71638e-273
4.69328e-275
1.37087e-275
1.82052e-277
6.12165e-278
6.02962e-280
2.38044e-280
1.65735e-282
7.89408e-283
3.62859e-285
2.16998e-285
5.9312e-288
4.74561e-288
6.43366e-291
7.73919e-291
3.47582e-294
8.36557e-294
5.76477e-300
4.49843e-297
-4.02141e-294
5.2133e-297
-7.47776e-291
9.73883e-294
-6.90432e-288
9.02305e-291
-4.22615e-285
5.53562e-288
-1.93037e-282
2.53127e-285
-7.02115e-280
9.20595e-283
-2.11898e-277
2.7748e-280
-5.45968e-275
7.13171e-278
-1.22635e-272
1.59601e-275
-2.44021e-270
3.16017e-273
-4.35638e-268
5.60697e-271
-7.04999e-266
9.00657e-269
-1.04311e-263
1.32102e-266
-1.42132e-261
1.78197e-264
-1.79452e-259
2.22434e-262
-2.1107e-257
2.58296e-260
-2.32359e-255
2.80324e-258
-2.40402e-253
2.85497e-256
-2.34618e-251
2.73851e-254
-2.16698e-249
2.48197e-252
-1.8998e-247
2.13158e-250
-1.58519e-245
1.73924e-248
-1.26194e-243
1.3514e-246
-9.60603e-242
1.00206e-244
-7.0062e-240
7.10421e-243
-4.90532e-238
4.82387e-241
-3.30254e-236
3.14198e-239
-2.14148e-234
1.96581e-237
-1.33938e-232
1.18288e-235
-8.09104e-231
6.85277e-234
-4.72676e-229
3.82572e-232
-2.67353e-227
2.0597e-230
-1.46566e-225
1.07001e-228
-7.7954e-224
5.36559e-227
-4.02622e-222
2.5975e-225
-2.02103e-220
1.21376e-223
-9.8673e-219
5.47176e-222
-4.68896e-217
2.37746e-220
-2.17012e-215
9.93952e-219
-9.78742e-214
3.98773e-217
-4.30385e-212
1.52887e-215
-1.84609e-210
5.56305e-214
-7.72764e-209
1.89845e-212
-3.15803e-207
5.94131e-211
-1.26046e-205
1.62135e-209
-4.91502e-204
3.29627e-208
-1.87277e-202
6.18809e-208
-6.33166e-201
-6.40911e-202
-1.8855e-199
-4.2347e-200
-4.92247e-198
-1.81625e-198
-1.12135e-196
-6.04184e-197
-2.2191e-195
-1.63995e-195
-3.80044e-194
-3.70542e-194
-5.6162e-193
-7.03445e-193
-7.14801e-192
-1.12773e-191
-7.82966e-191
-1.53209e-190
-7.3863e-190
-1.76934e-189
-6.02053e-189
-1.74299e-188
-4.27068e-188
-1.47243e-187
-2.66304e-187
-1.07637e-186
-1.46972e-186
-6.88969e-186
-7.17735e-186
-3.8928e-185
-3.09653e-185
-1.94281e-184
-1.1885e-184
-8.55852e-184
-4.11883e-184
-3.35475e-183
-1.31087e-183
-1.18792e-182
-3.87822e-183
-3.86293e-182
-1.06747e-182
-1.16751e-181
-2.72638e-182
-3.28245e-181
-6.45929e-182
-8.56742e-181
-1.42463e-181
-2.07679e-180
-2.93998e-181
-4.69563e-180
-5.7092e-181
-9.95771e-180
-1.04882e-180
-1.99196e-179
-1.8342e-180
-3.77756e-179
-3.06859e-180
-6.83296e-179
-4.93163e-180
-1.18461e-178
-7.63464e-180
-1.97666e-178
-1.1403e-179
-3.18365e-178
-1.64492e-179
-4.95816e-178
-2.29418e-179
-7.4764e-178
-3.09703e-179
-1.09306e-177
-4.0511e-179
-1.55169e-177
-5.13861e-179
-2.14208e-177
-6.3252e-179
-2.87924e-177
-7.56109e-179
-3.77269e-177
-8.78185e-179
-4.82569e-177
-9.91215e-179
-6.03316e-177
-1.0871e-178
-7.38081e-177
-1.15773e-178
-8.84519e-177
-1.19572e-178
-1.03933e-176
-1.1951e-178
-1.19839e-176
-1.15192e-178
-1.35701e-176
-1.06448e-178
-1.51015e-176
-9.30899e-179
-1.6524e-176
-7.35653e-179
-1.77265e-176
-4.08421e-179
-1.81065e-176
-2.66174e-180
-1.40914e-176
-1.28609e-189
-1.49081e-177
-1.92624e-186
1.02676e-186
-1.42255e-183
1.05955e-177
-5.4769e-175
1.43137e-176
-4.57727e-174
2.51704e-176
-5.75941e-174
3.18786e-176
-5.65575e-174
3.66937e-176
-5.31506e-174
4.00076e-176
-4.89915e-174
4.1827e-176
-4.43928e-174
4.21814e-176
-3.95337e-174
4.11832e-176
-3.45846e-174
3.90161e-176
-2.97035e-174
3.59161e-176
-2.50287e-174
3.21489e-176
-2.06735e-174
2.79871e-176
-1.67222e-174
2.36918e-176
-1.32314e-174
1.94937e-176
-1.0229e-174
1.5579e-176
-7.71587e-175
1.2085e-176
-5.67252e-175
9.09235e-177
-4.05931e-175
6.62722e-177
-2.82317e-175
4.6744e-177
-1.90536e-175
3.18704e-177
-1.24612e-175
2.0983e-177
-7.88714e-176
1.33195e-177
-4.82271e-176
8.13018e-178
-2.84097e-176
4.75319e-178
-1.60593e-176
2.64939e-178
-8.67193e-177
1.39963e-178
-4.44796e-177
6.97414e-179
-2.1575e-177
3.25965e-179
-9.84129e-178
1.42147e-179
-4.19693e-178
5.76016e-180
-1.66526e-178
2.16861e-180
-6.14125e-179
7.60257e-181
-2.10832e-179
2.4796e-181
-6.73159e-180
7.437e-182
-1.9766e-180
2.01819e-182
-5.25558e-181
4.88247e-183
-1.24636e-181
1.04531e-183
-2.61362e-182
1.98319e-184
-4.8477e-183
3.33386e-185
-7.94516e-184
4.92889e-186
-1.14081e-184
6.34052e-187
-1.4173e-185
7.0442e-188
-1.50937e-186
6.73678e-189
-1.37053e-187
5.54158e-190
-1.05726e-188
3.9231e-191
-6.90642e-190
2.39448e-192
-3.80659e-191
1.26371e-193
-1.7614e-192
5.78964e-195
-6.78195e-194
2.31345e-196
-2.13215e-195
8.10455e-198
-5.22093e-197
2.50281e-199
-8.48604e-199
6.85089e-201
-4.38602e-202
1.82588e-202
6.19441e-205
4.74638e-204
3.27083e-206
1.20332e-205
1.25627e-207
2.97479e-207
4.17855e-209
7.16934e-209
1.27033e-210
1.68389e-210
3.61463e-212
3.85296e-212
9.74675e-214
8.58467e-214
2.50858e-215
1.86155e-215
6.18987e-217
3.92641e-217
1.46835e-218
8.05001e-219
3.35455e-220
1.6031e-220
7.38851e-222
3.09841e-222
1.56979e-223
5.80696e-224
3.21795e-225
1.05432e-225
6.36391e-227
1.85247e-227
1.21377e-228
3.14626e-229
2.23142e-230
5.15901e-231
3.95137e-232
8.15613e-233
6.73368e-234
1.24142e-234
1.10316e-235
1.81631e-236
1.73536e-237
2.55008e-238
2.61762e-239
3.42929e-240
3.78031e-241
4.40822e-242
5.21813e-243
5.40468e-244
6.87139e-245
6.30479e-246
8.61406e-247
6.97922e-248
1.02564e-248
7.30964e-250
1.15686e-250
7.21964e-252
1.23259e-252
6.70001e-254
1.23657e-254
5.81816e-256
1.16387e-256
4.70565e-258
1.02357e-258
3.52582e-260
8.3724e-261
2.43237e-262
6.33573e-263
1.53391e-264
4.40857e-265
8.76716e-267
2.80049e-267
4.49506e-269
1.61031e-269
2.04138e-271
8.2958e-272
8.08115e-274
3.78081e-274
2.73098e-276
1.50018e-276
7.65801e-279
5.07546e-279
1.71016e-281
1.42311e-281
2.85082e-284
3.17401e-284
3.15322e-287
5.27808e-287
1.737e-290
5.81674e-290
3.1633e-296
3.18877e-293
-2.0256e-290
3.7249e-293
-3.69572e-287
6.82862e-290
-3.34714e-284
6.20686e-287
-2.00922e-281
3.73492e-284
-8.99839e-279
1.67479e-281
-3.20841e-276
5.97189e-279
-9.49026e-274
1.76444e-276
-2.39608e-271
4.44442e-274
-5.2728e-269
9.74565e-272
-1.02768e-266
1.89039e-269
-1.79667e-264
3.28503e-267
-2.84673e-262
5.16709e-265
-4.12294e-260
7.41947e-263
-5.4977e-258
9.79579e-261
-6.79123e-256
1.19649e-258
-7.81319e-254
1.35921e-256
-8.41104e-252
1.44272e-254
-8.5075e-250
1.43667e-252
-8.11476e-248
1.34705e-250
-7.32311e-246
1.19304e-248
-6.27108e-244
1.00097e-246
-5.10946e-242
7.97627e-245
-3.97052e-240
6.0507e-243
-2.94931e-238
4.37873e-241
-2.09832e-236
3.02865e-239
-1.43254e-234
2.00561e-237
-9.40085e-233
1.27351e-235
-5.9393e-231
7.7645e-234
-3.61776e-229
4.55091e-232
-2.12745e-227
2.5669e-230
-1.20929e-225
1.39454e-228
-6.65193e-224
7.30262e-227
-3.54456e-222
3.6879e-225
-1.83144e-220
1.79672e-223
-9.18378e-219
8.44536e-222
-4.47299e-217
3.82921e-220
-2.11757e-215
1.6738e-218
-9.75048e-214
7.04604e-217
-4.36937e-212
2.85146e-215
-1.90652e-210
1.10626e-213
-8.10378e-209
4.09648e-212
-3.35679e-207
1.43751e-210
-1.35547e-205
4.72137e-209
-5.33686e-204
1.41747e-207
-2.04921e-202
3.68658e-206
-7.67415e-201
6.98462e-205
-2.79917e-199
-3.74423e-202
-9.04112e-198
-9.51908e-199
-2.57154e-196
-5.85245e-197
-6.40565e-195
-2.38213e-195
-1.39023e-193
-7.5404e-194
-2.61679e-192
-1.94647e-192
-4.25578e-191
-4.17648e-191
-5.96429e-190
-7.51716e-190
-7.19222e-189
-1.141e-188
-7.4604e-188
-1.46629e-187
-6.66368e-187
-1.60111e-186
-5.14324e-186
-1.49129e-185
-3.45677e-185
-1.19143e-184
-2.04493e-184
-8.24317e-184
-1.0725e-183
-5.00085e-183
-4.98664e-183
-2.68238e-182
-2.05287e-182
-1.27318e-181
-7.53935e-182
-5.34654e-181
-2.50678e-181
-2.00403e-180
-7.66824e-181
-6.8061e-180
-2.18341e-180
-2.12667e-179
-5.79016e-180
-6.18337e-179
-1.42682e-179
-1.67397e-178
-3.26773e-179
-4.21278e-178
-6.98381e-179
-9.86587e-178
-1.40031e-178
-2.16055e-177
-2.64877e-178
-4.45028e-177
-4.74915e-178
-8.67029e-177
-8.11906e-178
-1.60463e-176
-1.32958e-177
-2.8372e-176
-2.09397e-177
-4.81434e-176
-3.1799e-177
-7.87122e-176
-4.66346e-177
-1.24339e-175
-6.61163e-177
-1.90099e-175
-9.07171e-177
-2.81667e-175
-1.20597e-176
-4.05032e-175
-1.55502e-176
-5.66097e-175
-1.94639e-176
-7.70216e-175
-2.36652e-176
-1.02141e-174
-2.79704e-176
-1.32178e-174
-3.2151e-176
-1.67141e-174
-3.59482e-176
-2.06777e-174
-3.90915e-176
-2.50561e-174
-4.13158e-176
-2.97693e-174
-4.23862e-176
-3.47104e-174
-4.21178e-176
-3.97506e-174
-4.0395e-176
-4.47444e-174
-3.71764e-176
-4.95404e-174
-3.24116e-176
-5.39772e-174
-2.55867e-176
-5.77145e-174
-1.43102e-176
-5.88687e-174
-9.93714e-178
-4.61231e-174
-8.39846e-187
-5.19672e-175
-1.18296e-183
4.26613e-184
-5.69729e-181
2.58426e-175
-1.26894e-172
3.33122e-174
-1.00815e-171
5.84048e-174
-1.26259e-171
7.40051e-174
-1.23927e-171
8.53264e-174
-1.16604e-171
9.3311e-174
-1.07783e-171
9.79726e-174
-9.80811e-172
9.93399e-174
-8.78239e-172
9.76185e-174
-7.73341e-172
9.31752e-174
-6.69241e-172
8.64997e-174
-5.68763e-172
7.81603e-174
-4.74301e-172
6.87541e-174
-3.8772e-172
5.88696e-174
-3.10351e-172
4.90427e-174
-2.42964e-172
3.9723e-174
-1.85783e-172
3.12631e-174
-1.38605e-172
2.38885e-174
-1.00762e-172
1.77012e-174
-7.12627e-173
1.2705e-174
-4.89554e-173
8.82298e-175
-3.26199e-173
5.92218e-175
-2.1054e-173
3.83633e-175
-1.31404e-173
2.39227e-175
-7.90925e-174
1.43067e-175
-4.57399e-174
8.17039e-176
-2.53096e-174
4.43134e-176
-1.33303e-174
2.27298e-176
-6.65845e-175
1.09668e-176
-3.13707e-175
4.94938e-177
-1.38552e-175
2.07968e-177
-5.70506e-176
8.12957e-178
-2.18621e-176
2.96185e-178
-7.80452e-177
1.00508e-178
-2.59378e-177
3.14223e-179
-7.94278e-178
8.91475e-180
-2.20987e-178
2.26159e-180
-5.50284e-179
5.08879e-181
-1.21456e-179
1.01643e-181
-2.37492e-180
1.80168e-182
-4.1098e-181
2.81224e-183
-6.24017e-182
3.8217e-184
-8.20563e-183
4.48553e-185
-9.25249e-184
4.53072e-186
-8.89558e-185
3.93354e-187
-7.26302e-186
2.93552e-188
-5.01678e-187
1.88542e-189
-2.9195e-188
1.04481e-190
-1.42378e-189
5.01362e-192
-5.76689e-191
2.09275e-193
-1.90455e-192
7.63777e-195
-4.90152e-194
2.45071e-196
-8.46198e-196
6.95276e-198
-1.46602e-198
1.91032e-199
7.98228e-202
5.114e-201
4.44304e-203
1.33387e-202
1.76902e-204
3.38939e-204
6.07088e-206
8.38886e-206
1.89973e-207
2.02184e-207
5.55541e-209
4.7436e-209
1.53772e-210
1.08296e-210
4.05869e-212
2.40464e-212
1.02616e-213
5.19018e-214
2.49237e-215
1.08828e-215
5.826e-217
2.21522e-217
1.31212e-218
4.37401e-219
2.84897e-220
8.37057e-221
5.9651e-222
1.55109e-222
1.20431e-223
2.78022e-224
2.34377e-225
4.81503e-226
4.3947e-227
8.04765e-228
7.93379e-229
1.29633e-229
1.37782e-230
2.00965e-231
2.29943e-232
2.99368e-233
3.68342e-234
4.27796e-235
5.65584e-236
5.85349e-237
8.31198e-238
7.65363e-239
1.16718e-239
9.542e-241
1.56309e-241
1.13157e-242
1.99221e-243
1.27304e-244
2.41096e-245
1.3547e-246
2.7633e-247
1.35914e-248
2.99094e-249
1.28092e-250
3.04745e-251
1.12935e-252
2.91243e-253
9.27178e-255
2.60016e-255
7.05035e-257
2.15857e-257
4.93512e-259
1.65752e-259
3.15716e-261
1.17007e-261
1.83022e-263
7.53909e-264
9.51578e-266
4.39622e-266
4.38147e-268
2.29633e-268
1.75825e-270
1.06093e-270
6.02233e-273
4.26678e-273
1.71131e-275
1.46289e-275
3.87212e-278
4.15608e-278
6.53909e-281
9.39063e-281
7.32614e-284
1.58175e-283
4.08738e-287
1.76545e-286
7.7004e-293
9.80087e-290
-4.82182e-287
1.15824e-289
-8.68691e-284
2.09693e-286
-7.76723e-281
1.88196e-283
-4.60231e-278
1.11798e-280
-2.03422e-275
4.94832e-278
-7.15709e-273
1.74133e-275
-2.08865e-270
5.07663e-273
-5.2018e-268
1.26156e-270
-1.12897e-265
2.72867e-268
-2.16975e-263
5.21987e-266
-3.73977e-261
8.9441e-264
-5.8407e-259
1.3869e-261
-8.33641e-257
1.96287e-259
-1.09526e-254
2.55379e-257
-1.33277e-252
3.07319e-255
-1.5101e-250
3.43879e-253
-1.60066e-248
3.59448e-251
-1.59373e-246
3.52409e-249
-1.49605e-244
3.25237e-247
-1.32833e-242
2.83456e-245
-1.11886e-240
2.33964e-243
-8.96415e-239
1.8336e-241
-6.84781e-237
1.3676e-239
-4.99872e-235
9.72788e-238
-3.49384e-233
6.61144e-236
-2.34253e-231
4.30056e-234
-1.50917e-229
2.6814e-232
-9.35695e-228
1.60469e-230
-5.5911e-226
9.22839e-229
-3.22402e-224
5.10517e-227
-1.79623e-222
2.71906e-225
-9.67995e-221
1.39526e-223
-5.05097e-219
6.90136e-222
-2.55431e-217
3.29149e-220
-1.25296e-215
1.51374e-218
-5.96631e-214
6.71131e-217
-2.75981e-212
2.86678e-215
-1.24087e-210
1.17849e-213
-5.4261e-209
4.65385e-212
-2.30871e-207
1.76036e-210
-9.56192e-206
6.34928e-209
-3.85621e-204
2.1676e-207
-1.5147e-202
6.91549e-206
-5.79592e-201
2.01199e-204
-2.16068e-199
5.0471e-203
-7.84759e-198
9.07049e-202
-2.76111e-196
-1.5533e-198
-8.58039e-195
-9.57064e-196
-2.34159e-193
-5.53654e-194
-5.58073e-192
-2.14303e-192
-1.15567e-190
-6.4536e-191
-2.07028e-189
-1.58251e-189
-3.19735e-188
-3.21931e-188
-4.24777e-187
-5.48359e-187
-4.85004e-186
-7.86557e-186
-4.7606e-185
-9.54364e-185
-4.02306e-184
-9.83622e-184
-2.93825e-183
-8.6484e-183
-1.86995e-182
-6.52542e-182
-1.04889e-181
-4.26826e-181
-5.22423e-181
-2.45191e-180
-2.31089e-180
-1.24724e-179
-9.07146e-180
-5.62368e-179
-3.18666e-179
-2.24897e-178
-1.01646e-178
-8.05606e-178
-2.98836e-178
-2.62347e-177
-8.18725e-178
-7.87499e-177
-2.09101e-177
-2.20182e-176
-4.96914e-177
-5.73629e-176
-1.09965e-176
-1.39108e-175
-2.27665e-176
-3.14563e-175
-4.43454e-176
-6.66945e-175
-8.17053e-176
-1.33406e-174
-1.42982e-175
-2.53116e-174
-2.38963e-175
-4.57158e-174
-3.83055e-175
-7.9011e-174
-5.91159e-175
-1.31216e-173
-8.80565e-175
-2.10181e-173
-1.26787e-174
-3.25586e-173
-1.76643e-174
-4.88585e-173
-2.38404e-174
-7.1121e-173
-3.12053e-174
-1.00571e-172
-3.96591e-174
-1.38366e-172
-4.8979e-174
-1.8551e-172
-5.8816e-174
-2.42687e-172
-6.87256e-174
-3.10125e-172
-7.81753e-174
-3.87643e-172
-8.65804e-174
-4.74517e-172
-9.33459e-174
-5.69483e-172
-9.79025e-174
-6.70759e-172
-9.97586e-174
-7.76043e-172
-9.85401e-174
-8.82643e-172
-9.40298e-174
-9.87585e-172
-8.61713e-174
-1.08782e-171
-7.48787e-174
-1.18018e-171
-5.90232e-174
-1.25766e-171
-3.32143e-174
-1.28078e-171
-2.45029e-175
-1.00942e-171
-3.6179e-184
-1.20885e-172
-4.85845e-181
1.3138e-181
-1.67875e-178
4.60623e-173
-2.13428e-170
5.64737e-172
-1.6092e-169
9.87368e-172
-2.00805e-169
1.25301e-171
-1.97265e-169
1.44843e-171
-1.86008e-169
1.58962e-171
-1.72508e-169
1.67673e-171
-1.57686e-169
1.70968e-171
-1.41984e-169
1.69115e-171
-1.25854e-169
1.62642e-171
-1.09744e-169
1.52283e-171
-9.4074e-170
1.38916e-171
-7.92081e-170
1.23488e-171
-6.54414e-170
1.06959e-171
-5.29975e-170
9.02281e-172
-4.20211e-170
7.40794e-172
-3.2577e-170
5.91629e-172
-2.46697e-170
4.59225e-172
-1.82236e-170
3.46017e-172
-1.31099e-170
2.52779e-172
-9.16981e-171
1.78836e-172
-6.2268e-171
1.22402e-172
-4.09941e-171
8.09273e-173
-2.61206e-171
5.15597e-173
-1.60665e-171
3.15434e-173
-9.50648e-172
1.84577e-173
-5.39066e-172
1.02789e-173
-2.91583e-172
5.42889e-174
-1.50027e-172
2.70523e-174
-7.30444e-173
1.26428e-174
-3.34332e-173
5.5123e-175
-1.42974e-173
2.23878e-175
-5.69742e-174
8.48061e-176
-2.11621e-174
2.9951e-176
-7.32338e-175
9.76382e-177
-2.33969e-175
2.89809e-177
-6.81701e-176
7.71847e-178
-1.78465e-176
1.82757e-178
-4.15165e-177
3.84744e-179
-8.56882e-178
7.19881e-180
-1.56743e-178
1.18787e-180
-2.52021e-179
1.70797e-181
-3.51376e-180
2.12161e-182
-4.2033e-181
2.26786e-183
-4.28821e-182
2.08259e-184
-3.71446e-183
1.64207e-185
-2.71972e-184
1.11237e-186
-1.6754e-185
6.48711e-188
-8.63331e-187
3.26749e-189
-3.68755e-188
1.42756e-190
-1.28205e-189
5.43697e-192
-3.47233e-191
1.81493e-193
-6.35353e-193
5.34022e-195
-1.73711e-195
1.51451e-196
7.45689e-199
4.18025e-198
4.36599e-200
1.12299e-199
1.80176e-201
2.93616e-201
6.38206e-203
7.47075e-203
2.05689e-204
1.84946e-204
6.18597e-206
4.45347e-206
1.75892e-207
1.04273e-207
4.76451e-209
2.3729e-209
1.23522e-210
5.24564e-211
3.07406e-212
1.12583e-212
7.35767e-214
2.34433e-214
1.69566e-215
4.73269e-216
3.76523e-217
9.25521e-218
8.05789e-219
1.75169e-219
1.66194e-220
3.20543e-221
3.3026e-222
5.665e-223
6.32024e-224
9.65788e-225
1.16401e-225
1.58623e-226
2.06141e-227
2.50636e-228
3.50686e-229
3.80403e-230
5.72415e-231
5.53658e-232
8.95296e-233
7.71333e-234
1.33979e-234
1.02655e-235
1.91511e-236
1.30228e-237
2.60993e-238
1.571e-239
3.38409e-240
1.79741e-241
4.16519e-242
1.94465e-243
4.85395e-244
1.98311e-245
5.34052e-246
1.89924e-247
5.52987e-248
1.70123e-249
5.36948e-250
1.41865e-251
4.86939e-252
1.09548e-253
4.10528e-254
7.78539e-256
3.20068e-256