/*--------------------------------*- C++ -*----------------------------------*\
| =========                 |                                                 |
| \\      /  F ield         | OpenFOAM: The Open Source CFD Toolbox           |
|  \\    /   O peration     | Version:  2412                                  |
|   \\  /    A nd           | Website:  www.openfoam.com                      |
|    \\/     M anipulation  |                                                 |
\*---------------------------------------------------------------------------*/
FoamFile
{
    version     2.0;
    format      ascii;
    arch        "LSB;label=32;scalar=64";
    class       volScalarField;
    location    "1.21";
    object      p_rgh;
}
// * * * * * * * * * * * * * * * * * * * * * * * * * * * * * * * * * * * * * //

dimensions      [1 -1 -2 0 0 0 0];

internalField   nonuniform List<scalar> 
40000
(
1.962
1.96206
1.96205
1.96198
1.96184
1.96163
1.96135
1.96101
1.9606
1.96012
1.95957
1.95896
1.95828
1.95754
1.95674
1.95587
1.95495
1.95396
1.95291
1.95181
1.95065
1.94943
1.94816
1.94683
1.94546
1.94403
1.94255
1.94103
1.93947
1.93786
1.9362
1.93451
1.93278
1.93102
1.92922
1.92739
1.92552
1.92363
1.92172
1.91978
1.91782
1.91583
1.91383
1.91182
1.90979
1.90775
1.90571
1.90365
1.90159
1.89953
1.89747
1.89541
1.89336
1.89131
1.88928
1.88725
1.88524
1.88324
1.88126
1.87929
1.87735
1.87544
1.87355
1.87168
1.86985
1.86804
1.86627
1.86453
1.86283
1.86116
1.85954
1.85795
1.85641
1.85491
1.85345
1.85204
1.85068
1.84937
1.8481
1.84689
1.84573
1.84462
1.84356
1.84256
1.84161
1.84072
1.83988
1.8391
1.83838
1.83772
1.83711
1.83657
1.83608
1.83566
1.83529
1.83498
1.83474
1.83455
1.83443
1.83436
1.83436
1.83442
1.83454
1.83472
1.83496
1.83526
1.83562
1.83604
1.83652
1.83706
1.83766
1.83831
1.83903
1.8398
1.84063
1.84152
1.84246
1.84346
1.84451
1.84561
1.84677
1.84798
1.84924
1.85054
1.8519
1.8533
1.85475
1.85625
1.85779
1.85937
1.86099
1.86265
1.86435
1.86608
1.86785
1.86965
1.87148
1.87334
1.87523
1.87714
1.87907
1.88103
1.88301
1.885
1.88701
1.88904
1.89107
1.89311
1.89516
1.89722
1.89927
1.90133
1.90339
1.90544
1.90748
1.90952
1.91154
1.91355
1.91555
1.91753
1.91949
1.92143
1.92334
1.92523
1.92709
1.92892
1.93071
1.93248
1.93421
1.9359
1.93755
1.93915
1.94072
1.94224
1.94371
1.94514
1.94651
1.94784
1.94911
1.95032
1.95148
1.95259
1.95363
1.95462
1.95555
1.95641
1.95722
1.95796
1.95863
1.95924
1.95979
1.96027
1.96068
1.96103
1.96131
1.96152
1.96166
1.96174
1.96174
1.96168
1.96194
1.962
1.962
1.96193
1.96179
1.96158
1.9613
1.96095
1.96054
1.96006
1.95952
1.95891
1.95823
1.95749
1.95669
1.95582
1.95489
1.95391
1.95286
1.95176
1.9506
1.94938
1.94811
1.94678
1.94541
1.94398
1.94251
1.94099
1.93942
1.93781
1.93616
1.93447
1.93274
1.93098
1.92918
1.92735
1.92549
1.9236
1.92168
1.91974
1.91778
1.9158
1.9138
1.91179
1.90977
1.90773
1.90568
1.90363
1.90157
1.89951
1.89746
1.8954
1.89335
1.8913
1.88927
1.88724
1.88523
1.88324
1.88126
1.8793
1.87736
1.87545
1.87356
1.8717
1.86986
1.86806
1.86629
1.86455
1.86286
1.86119
1.85957
1.85799
1.85645
1.85495
1.8535
1.85209
1.85073
1.84942
1.84816
1.84695
1.84579
1.84468
1.84362
1.84262
1.84168
1.84079
1.83995
1.83918
1.83846
1.83779
1.83719
1.83665
1.83616
1.83574
1.83537
1.83506
1.83482
1.83463
1.83451
1.83445
1.83444
1.8345
1.83462
1.8348
1.83504
1.83534
1.8357
1.83612
1.8366
1.83713
1.83773
1.83839
1.8391
1.83987
1.8407
1.84158
1.84252
1.84352
1.84457
1.84567
1.84682
1.84803
1.84929
1.85059
1.85195
1.85335
1.8548
1.85629
1.85782
1.8594
1.86102
1.86268
1.86437
1.8661
1.86787
1.86966
1.87149
1.87335
1.87523
1.87714
1.87908
1.88103
1.88301
1.885
1.88701
1.88903
1.89106
1.8931
1.89515
1.8972
1.89926
1.90131
1.90336
1.90541
1.90746
1.90949
1.91151
1.91352
1.91552
1.9175
1.91945
1.92139
1.9233
1.92519
1.92705
1.92888
1.93067
1.93244
1.93416
1.93585
1.9375
1.93911
1.94067
1.94219
1.94366
1.94509
1.94646
1.94779
1.94906
1.95027
1.95143
1.95254
1.95358
1.95457
1.9555
1.95636
1.95716
1.9579
1.95858
1.95919
1.95973
1.96021
1.96063
1.96097
1.96125
1.96146
1.96161
1.96168
1.96168
1.96162
1.96194
1.962
1.962
1.96193
1.96179
1.96158
1.9613
1.96095
1.96054
1.96006
1.95951
1.9589
1.95823
1.95749
1.95668
1.95582
1.95489
1.9539
1.95286
1.95175
1.95059
1.94937
1.9481
1.94677
1.9454
1.94397
1.9425
1.94098
1.93941
1.9378
1.93615
1.93446
1.93273
1.93096
1.92916
1.92733
1.92547
1.92358
1.92167
1.91973
1.91776
1.91578
1.91379
1.91177
1.90975
1.90771
1.90566
1.90361
1.90155
1.8995
1.89744
1.89538
1.89333
1.89129
1.88925
1.88723
1.88521
1.88322
1.88124
1.87928
1.87734
1.87543
1.87354
1.87168
1.86985
1.86805
1.86628
1.86454
1.86285
1.86118
1.85956
1.85798
1.85644
1.85494
1.85349
1.85209
1.85073
1.84942
1.84816
1.84695
1.84579
1.84468
1.84363
1.84263
1.84169
1.8408
1.83996
1.83919
1.83847
1.83781
1.83721
1.83666
1.83618
1.83575
1.83539
1.83508
1.83484
1.83465
1.83453
1.83446
1.83446
1.83452
1.83464
1.83482
1.83505
1.83535
1.83571
1.83613
1.83661
1.83715
1.83774
1.8384
1.83911
1.83988
1.84071
1.84159
1.84253
1.84353
1.84457
1.84567
1.84683
1.84803
1.84929
1.85059
1.85194
1.85334
1.85479
1.85628
1.85782
1.85939
1.86101
1.86267
1.86436
1.86609
1.86785
1.86965
1.87148
1.87333
1.87522
1.87713
1.87906
1.88102
1.88299
1.88498
1.88699
1.88901
1.89104
1.89308
1.89513
1.89718
1.89924
1.90129
1.90334
1.90539
1.90744
1.90947
1.91149
1.9135
1.9155
1.91748
1.91944
1.92137
1.92329
1.92517
1.92703
1.92886
1.93066
1.93242
1.93415
1.93584
1.93749
1.9391
1.94066
1.94218
1.94366
1.94508
1.94646
1.94778
1.94905
1.95027
1.95143
1.95253
1.95358
1.95456
1.95549
1.95636
1.95716
1.9579
1.95858
1.95919
1.95973
1.96021
1.96063
1.96097
1.96125
1.96146
1.96161
1.96168
1.96168
1.96162
1.96201
1.96207
1.96207
1.96199
1.96185
1.96164
1.96136
1.96101
1.9606
1.96012
1.95957
1.95896
1.95828
1.95754
1.95674
1.95587
1.95494
1.95395
1.95291
1.9518
1.95064
1.94942
1.94814
1.94682
1.94544
1.94401
1.94253
1.94101
1.93944
1.93783
1.93617
1.93448
1.93275
1.93098
1.92918
1.92735
1.92548
1.92359
1.92167
1.91973
1.91777
1.91578
1.91378
1.91177
1.90974
1.9077
1.90565
1.90359
1.90154
1.89948
1.89741
1.89536
1.8933
1.89126
1.88922
1.88719
1.88518
1.88318
1.8812
1.87924
1.8773
1.87539
1.8735
1.87163
1.8698
1.868
1.86623
1.86449
1.86279
1.86113
1.85951
1.85792
1.85638
1.85489
1.85344
1.85203
1.85067
1.84936
1.8481
1.84689
1.84573
1.84462
1.84357
1.84257
1.84162
1.84074
1.8399
1.83913
1.83841
1.83775
1.83714
1.8366
1.83612
1.83569
1.83533
1.83502
1.83478
1.83459
1.83447
1.8344
1.8344
1.83446
1.83458
1.83475
1.83499
1.83529
1.83565
1.83607
1.83655
1.83709
1.83768
1.83834
1.83905
1.83982
1.84065
1.84153
1.84247
1.84346
1.84451
1.84561
1.84677
1.84797
1.84923
1.85053
1.85189
1.85329
1.85473
1.85623
1.85776
1.85934
1.86096
1.86261
1.86431
1.86604
1.8678
1.8696
1.87143
1.87329
1.87517
1.87709
1.87902
1.88098
1.88295
1.88495
1.88695
1.88898
1.89101
1.89305
1.8951
1.89716
1.89922
1.90127
1.90333
1.90538
1.90743
1.90946
1.91149
1.9135
1.9155
1.91748
1.91944
1.92138
1.9233
1.92519
1.92705
1.92888
1.93068
1.93244
1.93417
1.93587
1.93752
1.93913
1.94069
1.94222
1.94369
1.94512
1.9465
1.94782
1.94909
1.95031
1.95148
1.95258
1.95363
1.95462
1.95555
1.95641
1.95722
1.95796
1.95863
1.95925
1.95979
1.96027
1.96069
1.96103
1.96131
1.96152
1.96167
1.96174
1.96175
1.96169
1.96213
1.96219
1.96219
1.96212
1.96197
1.96176
1.96148
1.96114
1.96072
1.96024
1.95969
1.95908
1.9584
1.95766
1.95685
1.95598
1.95505
1.95406
1.95301
1.9519
1.95073
1.94951
1.94823
1.9469
1.94552
1.94409
1.94261
1.94108
1.93951
1.93789
1.93624
1.93454
1.9328
1.93103
1.92923
1.92739
1.92552
1.92362
1.9217
1.91975
1.91779
1.9158
1.91379
1.91177
1.90974
1.9077
1.90564
1.90358
1.90152
1.89945
1.89739
1.89533
1.89327
1.89122
1.88918
1.88715
1.88513
1.88313
1.88114
1.87918
1.87724
1.87532
1.87342
1.87156
1.86972
1.86791
1.86614
1.8644
1.8627
1.86103
1.85941
1.85782
1.85628
1.85478
1.85333
1.85192
1.85056
1.84924
1.84798
1.84677
1.84561
1.8445
1.84345
1.84244
1.8415
1.84061
1.83977
1.839
1.83828
1.83762
1.83701
1.83647
1.83598
1.83556
1.83519
1.83489
1.83464
1.83446
1.83433
1.83427
1.83426
1.83432
1.83444
1.83462
1.83486
1.83516
1.83552
1.83594
1.83642
1.83696
1.83755
1.83821
1.83892
1.83969
1.84052
1.84141
1.84235
1.84334
1.84439
1.84549
1.84665
1.84785
1.84911
1.85042
1.85177
1.85318
1.85463
1.85612
1.85766
1.85924
1.86086
1.86252
1.86422
1.86595
1.86772
1.86952
1.87135
1.87321
1.8751
1.87702
1.87896
1.88092
1.8829
1.88489
1.88691
1.88893
1.89097
1.89302
1.89507
1.89713
1.89919
1.90126
1.90332
1.90537
1.90742
1.90946
1.91149
1.91351
1.91551
1.9175
1.91946
1.92141
1.92333
1.92522
1.92709
1.92892
1.93073
1.9325
1.93423
1.93593
1.93758
1.9392
1.94077
1.94229
1.94377
1.9452
1.94658
1.94791
1.94919
1.95041
1.95157
1.95268
1.95373
1.95472
1.95565
1.95652
1.95733
1.95807
1.95875
1.95936
1.95991
1.96039
1.96081
1.96115
1.96143
1.96165
1.96179
1.96187
1.96187
1.96181
1.96232
1.96238
1.96237
1.9623
1.96216
1.96194
1.96166
1.96131
1.9609
1.96042
1.95987
1.95925
1.95857
1.95782
1.95701
1.95614
1.95521
1.95421
1.95316
1.95205
1.95088
1.94965
1.94837
1.94704
1.94565
1.94421
1.94273
1.9412
1.93962
1.938
1.93633
1.93463
1.93289
1.93111
1.9293
1.92746
1.92558
1.92368
1.92175
1.9198
1.91782
1.91583
1.91382
1.91179
1.90975
1.9077
1.90564
1.90357
1.9015
1.89943
1.89736
1.89529
1.89323
1.89117
1.88912
1.88709
1.88506
1.88305
1.88106
1.87909
1.87715
1.87522
1.87332
1.87145
1.86961
1.8678
1.86602
1.86427
1.86257
1.8609
1.85927
1.85768
1.85613
1.85462
1.85317
1.85175
1.85039
1.84907
1.84781
1.84659
1.84543
1.84432
1.84326
1.84226
1.84131
1.84041
1.83958
1.8388
1.83808
1.83741
1.83681
1.83626
1.83578
1.83535
1.83498
1.83468
1.83443
1.83425
1.83412
1.83406
1.83406
1.83411
1.83423
1.83441
1.83465
1.83495
1.83531
1.83573
1.83621
1.83675
1.83735
1.83801
1.83872
1.8395
1.84033
1.84121
1.84216
1.84315
1.84421
1.84531
1.84647
1.84768
1.84894
1.85025
1.85161
1.85302
1.85447
1.85597
1.85751
1.85909
1.86072
1.86239
1.86409
1.86583
1.8676
1.86941
1.87124
1.87311
1.87501
1.87693
1.87887
1.88084
1.88282
1.88483
1.88685
1.88888
1.89092
1.89298
1.89504
1.8971
1.89917
1.90124
1.90331
1.90537
1.90743
1.90947
1.91151
1.91354
1.91554
1.91754
1.91951
1.92146
1.92338
1.92528
1.92716
1.929
1.93081
1.93258
1.93432
1.93602
1.93769
1.9393
1.94088
1.94241
1.9439
1.94533
1.94672
1.94805
1.94933
1.95055
1.95172
1.95283
1.95389
1.95488
1.95582
1.95669
1.9575
1.95824
1.95892
1.95954
1.96009
1.96057
1.96099
1.96133
1.96162
1.96183
1.96197
1.96205
1.96205
1.96199
1.96256
1.96262
1.96262
1.96254
1.9624
1.96219
1.9619
1.96155
1.96114
1.96065
1.9601
1.95948
1.9588
1.95805
1.95723
1.95636
1.95542
1.95442
1.95336
1.95225
1.95107
1.94984
1.94855
1.94721
1.94582
1.94438
1.94289
1.94135
1.93977
1.93814
1.93647
1.93476
1.93301
1.93122
1.9294
1.92755
1.92567
1.92376
1.92182
1.91986
1.91788
1.91588
1.91386
1.91182
1.90977
1.90771
1.90564
1.90357
1.90149
1.89941
1.89733
1.89525
1.89318
1.89111
1.88906
1.88701
1.88498
1.88296
1.88097
1.87899
1.87703
1.8751
1.87319
1.87131
1.86946
1.86764
1.86586
1.86411
1.86239
1.86071
1.85908
1.85748
1.85593
1.85442
1.85295
1.85154
1.85017
1.84885
1.84757
1.84635
1.84519
1.84407
1.84301
1.842
1.84105
1.84015
1.83932
1.83853
1.83781
1.83714
1.83654
1.83599
1.8355
1.83507
1.8347
1.8344
1.83415
1.83396
1.83384
1.83377
1.83377
1.83383
1.83395
1.83413
1.83437
1.83467
1.83503
1.83546
1.83594
1.83648
1.83708
1.83774
1.83846
1.83923
1.84007
1.84096
1.8419
1.8429
1.84396
1.84507
1.84623
1.84745
1.84871
1.85003
1.85139
1.85281
1.85426
1.85577
1.85732
1.85891
1.86054
1.86221
1.86392
1.86567
1.86745
1.86926
1.87111
1.87298
1.87488
1.87681
1.87876
1.88074
1.88273
1.88474
1.88677
1.88881
1.89087
1.89293
1.895
1.89707
1.89915
1.90123
1.9033
1.90537
1.90744
1.90949
1.91154
1.91357
1.91559
1.91759
1.91957
1.92153
1.92346
1.92537
1.92725
1.9291
1.93092
1.9327
1.93445
1.93616
1.93783
1.93945
1.94103
1.94257
1.94406
1.9455
1.94689
1.94823
1.94952
1.95075
1.95192
1.95304
1.9541
1.95509
1.95603
1.95691
1.95772
1.95847
1.95915
1.95977
1.96032
1.96081
1.96122
1.96157
1.96186
1.96207
1.96221
1.96229
1.96229
1.96223
1.96286
1.96293
1.96292
1.96285
1.9627
1.96249
1.9622
1.96185
1.96143
1.96094
1.96039
1.95977
1.95908
1.95833
1.95751
1.95663
1.95569
1.95468
1.95362
1.9525
1.95131
1.95008
1.94878
1.94744
1.94604
1.94459
1.94309
1.94154
1.93995
1.93831
1.93664
1.93492
1.93316
1.93137
1.92954
1.92768
1.92578
1.92386
1.92192
1.91994
1.91795
1.91594
1.91391
1.91186
1.9098
1.90773
1.90565
1.90357
1.90148
1.89939
1.8973
1.89521
1.89312
1.89105
1.88898
1.88692
1.88488
1.88285
1.88085
1.87886
1.87689
1.87495
1.87303
1.87114
1.86928
1.86745
1.86566
1.8639
1.86218
1.86049
1.85884
1.85724
1.85568
1.85416
1.85269
1.85127
1.84989
1.84856
1.84728
1.84606
1.84488
1.84376
1.8427
1.84168
1.84073
1.83983
1.83898
1.8382
1.83747
1.8368
1.83619
1.83564
1.83515
1.83472
1.83435
1.83404
1.83379
1.83361
1.83348
1.83342
1.83341
1.83347
1.83359
1.83377
1.83401
1.83432
1.83468
1.8351
1.83559
1.83613
1.83674
1.8374
1.83812
1.8389
1.83974
1.84063
1.84158
1.84259
1.84365
1.84477
1.84594
1.84716
1.84843
1.84975
1.85112
1.85254
1.85401
1.85552
1.85708
1.85867
1.86031
1.86199
1.86371
1.86547
1.86726
1.86908
1.87094
1.87282
1.87473
1.87667
1.87863
1.88062
1.88262
1.88465
1.88668
1.88874
1.8908
1.89287
1.89495
1.89704
1.89913
1.90121
1.9033
1.90538
1.90746
1.90952
1.91158
1.91362
1.91565
1.91766
1.91965
1.92162
1.92357
1.92548
1.92737
1.92923
1.93106
1.93285
1.93461
1.93633
1.938
1.93964
1.94123
1.94277
1.94427
1.94572
1.94712
1.94846
1.94975
1.95099
1.95217
1.95329
1.95436
1.95536
1.9563
1.95718
1.958
1.95875
1.95944
1.96006
1.96061
1.9611
1.96152
1.96187
1.96216
1.96237
1.96252
1.96259
1.96259
1.96253
1.96323
1.96329
1.96329
1.96321
1.96306
1.96285
1.96256
1.96221
1.96179
1.96129
1.96074
1.96011
1.95942
1.95866
1.95784
1.95696
1.95601
1.955
1.95393
1.9528
1.95161
1.95036
1.94906
1.94771
1.9463
1.94484
1.94333
1.94178
1.94018
1.93853
1.93684
1.93511
1.93334
1.93154
1.9297
1.92783
1.92592
1.92399
1.92203
1.92005
1.91804
1.91602
1.91397
1.91191
1.90984
1.90776
1.90567
1.90357
1.90147
1.89936
1.89726
1.89516
1.89306
1.89097
1.88889
1.88682
1.88477
1.88273
1.88071
1.8787
1.87672
1.87477
1.87284
1.87094
1.86907
1.86723
1.86542
1.86365
1.86192
1.86022
1.85857
1.85695
1.85538
1.85386
1.85237
1.85094
1.84956
1.84822
1.84693
1.8457
1.84452
1.84339
1.84232
1.8413
1.84034
1.83943
1.83858
1.83779
1.83706
1.83639
1.83577
1.83522
1.83473
1.83429
1.83392
1.83361
1.83336
1.83317
1.83305
1.83298
1.83298
1.83304
1.83316
1.83334
1.83358
1.83389
1.83425
1.83468
1.83517
1.83572
1.83632
1.83699
1.83772
1.8385
1.83934
1.84024
1.8412
1.84221
1.84328
1.8444
1.84558
1.84681
1.84809
1.84942
1.8508
1.85222
1.8537
1.85522
1.85679
1.8584
1.86005
1.86174
1.86347
1.86523
1.86703
1.86887
1.87073
1.87263
1.87456
1.87651
1.87848
1.88048
1.88249
1.88453
1.88658
1.88865
1.89072
1.89281
1.8949
1.897
1.8991
1.9012
1.9033
1.9054
1.90748
1.90956
1.91163
1.91369
1.91573
1.91775
1.91976
1.92174
1.92369
1.92562
1.92752
1.9294
1.93123
1.93304
1.9348
1.93653
1.93822
1.93986
1.94146
1.94302
1.94452
1.94598
1.94739
1.94874
1.95004
1.95128
1.95247
1.9536
1.95467
1.95568
1.95663
1.95751
1.95833
1.95909
1.95978
1.96041
1.96096
1.96145
1.96188
1.96223
1.96252
1.96273
1.96288
1.96295
1.96296
1.9629
1.96365
1.96371
1.96371
1.96363
1.96349
1.96327
1.96298
1.96263
1.9622
1.96171
1.96114
1.96051
1.95982
1.95905
1.95823
1.95734
1.95638
1.95536
1.95429
1.95315
1.95195
1.9507
1.94939
1.94802
1.94661
1.94514
1.94362
1.94205
1.94044
1.93878
1.93708
1.93534
1.93356
1.93174
1.92989
1.928
1.92609
1.92414
1.92217
1.92017
1.91815
1.91611
1.91405
1.91198
1.90989
1.90779
1.90569
1.90357
1.90146
1.89934
1.89722
1.8951
1.89299
1.89088
1.88879
1.8867
1.88463
1.88258
1.88054
1.87853
1.87653
1.87456
1.87262
1.87071
1.86882
1.86697
1.86515
1.86337
1.86162
1.85991
1.85824
1.85662
1.85504
1.8535
1.85201
1.85056
1.84917
1.84782
1.84653
1.84528
1.84409
1.84296
1.84188
1.84085
1.83988
1.83897
1.83811
1.83732
1.83658
1.8359
1.83528
1.83473
1.83423
1.83379
1.83342
1.83311
1.83285
1.83267
1.83254
1.83247
1.83247
1.83253
1.83265
1.83283
1.83308
1.83339
1.83375
1.83418
1.83467
1.83523
1.83584
1.83651
1.83724
1.83803
1.83888
1.83979
1.84075
1.84177
1.84285
1.84398
1.84516
1.8464
1.84769
1.84903
1.85042
1.85185
1.85334
1.85487
1.85645
1.85807
1.85973
1.86144
1.86318
1.86496
1.86677
1.86862
1.8705
1.87241
1.87435
1.87631
1.8783
1.88032
1.88235
1.8844
1.88646
1.88854
1.89064
1.89274
1.89484
1.89696
1.89907
1.90119
1.9033
1.90541
1.90752
1.90961
1.9117
1.91377
1.91582
1.91786
1.91988
1.92187
1.92384
1.92579
1.9277
1.92959
1.93144
1.93325
1.93503
1.93677
1.93847
1.94013
1.94174
1.9433
1.94482
1.94629
1.9477
1.94907
1.95037
1.95163
1.95282
1.95396
1.95504
1.95605
1.95701
1.9579
1.95872
1.95949
1.96018
1.96081
1.96137
1.96187
1.96229
1.96265
1.96294
1.96315
1.9633
1.96338
1.96338
1.96332
1.96414
1.9642
1.9642
1.96412
1.96397
1.96375
1.96346
1.9631
1.96267
1.96217
1.96161
1.96097
1.96027
1.9595
1.95867
1.95777
1.95681
1.95578
1.9547
1.95355
1.95235
1.95108
1.94976
1.94839
1.94696
1.94548
1.94395
1.94237
1.94074
1.93907
1.93736
1.9356
1.93381
1.93198
1.93011
1.92821
1.92628
1.92431
1.92233
1.92031
1.91828
1.91622
1.91415
1.91206
1.90995
1.90784
1.90571
1.90358
1.90145
1.89931
1.89717
1.89504
1.89291
1.89079
1.88867
1.88657
1.88449
1.88241
1.88036
1.87833
1.87632
1.87433
1.87237
1.87044
1.86854
1.86667
1.86484
1.86304
1.86128
1.85956
1.85787
1.85623
1.85464
1.85309
1.85158
1.85013
1.84872
1.84736
1.84606
1.8448
1.8436
1.84246
1.84137
1.84033
1.83936
1.83844
1.83757
1.83677
1.83603
1.83534
1.83472
1.83416
1.83366
1.83322
1.83284
1.83252
1.83227
1.83208
1.83195
1.83189
1.83188
1.83194
1.83206
1.83225
1.8325
1.83281
1.83318
1.83361
1.83411
1.83466
1.83528
1.83596
1.83669
1.83749
1.83835
1.83926
1.84023
1.84126
1.84235
1.84349
1.84468
1.84593
1.84723
1.84858
1.84998
1.85143
1.85293
1.85448
1.85607
1.8577
1.85938
1.86109
1.86285
1.86465
1.86647
1.86834
1.87023
1.87216
1.87412
1.8761
1.8781
1.88013
1.88218
1.88425
1.88633
1.88843
1.89054
1.89266
1.89478
1.89691
1.89905
1.90118
1.90331
1.90544
1.90756
1.90967
1.91177
1.91386
1.91593
1.91799
1.92002
1.92203
1.92402
1.92598
1.92791
1.92981
1.93167
1.9335
1.93529
1.93705
1.93876
1.94043
1.94205
1.94363
1.94516
1.94664
1.94807
1.94944
1.95076
1.95202
1.95322
1.95437
1.95546
1.95648
1.95744
1.95834
1.95917
1.95994
1.96064
1.96128
1.96184
1.96234
1.96277
1.96313
1.96342
1.96364
1.96379
1.96386
1.96387
1.9638
1.96469
1.96475
1.96474
1.96467
1.96452
1.96429
1.964
1.96364
1.96321
1.9627
1.96213
1.96149
1.96078
1.96001
1.95917
1.95826
1.95729
1.95626
1.95516
1.95401
1.95279
1.95152
1.95018
1.9488
1.94736
1.94586
1.94432
1.94273
1.94109
1.9394
1.93767
1.9359
1.93409
1.93224
1.93036
1.92844
1.92649
1.92451
1.92251
1.92048
1.91842
1.91635
1.91425
1.91214
1.91002
1.90789
1.90574
1.90359
1.90144
1.89928
1.89712
1.89497
1.89282
1.89068
1.88855
1.88643
1.88432
1.88223
1.88016
1.87811
1.87608
1.87407
1.87209
1.87014
1.86823
1.86634
1.86449
1.86267
1.86089
1.85915
1.85746
1.8558
1.85419
1.85263
1.85111
1.84964
1.84822
1.84685
1.84553
1.84426
1.84305
1.84189
1.84079
1.83975
1.83876
1.83783
1.83696
1.83615
1.8354
1.83471
1.83408
1.83352
1.83301
1.83257
1.83219
1.83187
1.83161
1.83142
1.83129
1.83122
1.83122
1.83128
1.8314
1.83159
1.83184
1.83215
1.83253
1.83296
1.83346
1.83402
1.83465
1.83533
1.83608
1.83688
1.83774
1.83867
1.83965
1.84069
1.84178
1.84293
1.84414
1.8454
1.84671
1.84807
1.84949
1.85095
1.85247
1.85403
1.85563
1.85728
1.85898
1.86071
1.86248
1.86429
1.86614
1.86802
1.86994
1.87188
1.87385
1.87585
1.87788
1.87993
1.88199
1.88408
1.88618
1.8883
1.89043
1.89257
1.89471
1.89686
1.89902
1.90117
1.90332
1.90547
1.90761
1.90974
1.91186
1.91397
1.91606
1.91813
1.92018
1.92221
1.92421
1.92619
1.92814
1.93005
1.93194
1.93378
1.93559
1.93736
1.93909
1.94077
1.94241
1.944
1.94554
1.94704
1.94847
1.94986
1.95119
1.95246
1.95368
1.95483
1.95593
1.95696
1.95793
1.95884
1.95968
1.96045
1.96116
1.9618
1.96237
1.96287
1.96331
1.96367
1.96396
1.96418
1.96433
1.96441
1.96441
1.96435
1.96529
1.96536
1.96535
1.96527
1.96512
1.9649
1.9646
1.96424
1.9638
1.96329
1.96272
1.96207
1.96136
1.96057
1.95972
1.95881
1.95783
1.95679
1.95568
1.95451
1.95329
1.952
1.95066
1.94926
1.9478
1.94629
1.94474
1.94313
1.94147
1.93977
1.93802
1.93624
1.93441
1.93254
1.93064
1.9287
1.92673
1.92474
1.92271
1.92066
1.91858
1.91649
1.91437
1.91224
1.9101
1.90794
1.90578
1.90361
1.90143
1.89925
1.89707
1.8949
1.89273
1.89056
1.88841
1.88626
1.88414
1.88202
1.87993
1.87786
1.87581
1.87378
1.87178
1.86981
1.86787
1.86597
1.8641
1.86226
1.86046
1.85871
1.85699
1.85532
1.85369
1.85211
1.85058
1.84909
1.84765
1.84627
1.84494
1.84366
1.84243
1.84127
1.84015
1.8391
1.8381
1.83716
1.83628
1.83546
1.8347
1.83401
1.83337
1.8328
1.83229
1.83184
1.83145
1.83113
1.83087
1.83068
1.83055
1.83048
1.83048
1.83054
1.83066
1.83085
1.8311
1.83142
1.8318
1.83224
1.83274
1.83331
1.83394
1.83463
1.83539
1.8362
1.83707
1.838
1.839
1.84004
1.84115
1.84231
1.84353
1.84481
1.84613
1.84751
1.84894
1.85042
1.85195
1.85353
1.85515
1.85682
1.85853
1.86028
1.86207
1.8639
1.86577
1.86767
1.8696
1.87157
1.87356
1.87558
1.87763
1.8797
1.88179
1.8839
1.88602
1.88816
1.89031
1.89247
1.89464
1.89681
1.89898
1.90116
1.90333
1.9055
1.90766
1.90982
1.91196
1.91409
1.9162
1.91829
1.92036
1.92241
1.92444
1.92643
1.9284
1.93033
1.93223
1.9341
1.93592
1.93771
1.93945
1.94115
1.94281
1.94441
1.94597
1.94748
1.94893
1.95033
1.95167
1.95296
1.95418
1.95535
1.95646
1.9575
1.95848
1.95939
1.96024
1.96102
1.96174
1.96238
1.96296
1.96347
1.9639
1.96427
1.96456
1.96479
1.96494
1.96502
1.96502
1.96496
1.96597
1.96603
1.96602
1.96594
1.96579
1.96557
1.96527
1.9649
1.96446
1.96394
1.96336
1.96271
1.96199
1.9612
1.96034
1.95941
1.95842
1.95737
1.95625
1.95507
1.95383
1.95253
1.95117
1.94976
1.94829
1.94677
1.94519
1.94357
1.94189
1.94018
1.93841
1.9366
1.93476
1.93287
1.93095
1.92899
1.927
1.92498
1.92293
1.92086
1.91876
1.91664
1.91451
1.91235
1.91019
1.90801
1.90582
1.90362
1.90142
1.89922
1.89702
1.89482
1.89262
1.89043
1.88825
1.88609
1.88393
1.8818
1.87968
1.87758
1.87551
1.87346
1.87144
1.86945
1.86749
1.86556
1.86367
1.86181
1.85999
1.85821
1.85648
1.85479
1.85314
1.85154
1.84999
1.84848
1.84703
1.84563
1.84428
1.84299
1.84175
1.84057
1.83944
1.83838
1.83737
1.83642
1.83553
1.8347
1.83393
1.83323
1.83258
1.832
1.83148
1.83103
1.83064
1.83032
1.83005
1.82986
1.82972
1.82966
1.82965
1.82971
1.82984
1.83003
1.83029
1.83061
1.83099
1.83144
1.83195
1.83252
1.83316
1.83386
1.83462
1.83544
1.83633
1.83727
1.83827
1.83933
1.84045
1.84163
1.84286
1.84415
1.84549
1.84689
1.84834
1.84983
1.85138
1.85298
1.85462
1.8563
1.85803
1.85981
1.86162
1.86347
1.86536
1.86728
1.86924
1.87123
1.87324
1.87529
1.87736
1.87945
1.88156
1.88369
1.88584
1.88801
1.89018
1.89236
1.89456
1.89675
1.89895
1.90115
1.90335
1.90554
1.90773
1.9099
1.91207
1.91422
1.91635
1.91847
1.92056
1.92263
1.92468
1.9267
1.92869
1.93064
1.93256
1.93445
1.93629
1.9381
1.93986
1.94158
1.94325
1.94487
1.94644
1.94797
1.94943
1.95085
1.9522
1.9535
1.95474
1.95592
1.95704
1.95809
1.95908
1.96
1.96086
1.96165
1.96237
1.96303
1.96361
1.96412
1.96456
1.96493
1.96523
1.96545
1.96561
1.96569
1.96569
1.96563
1.9667
1.96676
1.96676
1.96668
1.96652
1.96629
1.96599
1.96562
1.96517
1.96465
1.96406
1.9634
1.96267
1.96188
1.96101
1.96007
1.95907
1.95801
1.95688
1.95568
1.95443
1.95312
1.95174
1.95031
1.94883
1.94729
1.94569
1.94405
1.94236
1.94062
1.93884
1.93701
1.93514
1.93323
1.93129
1.92931
1.92729
1.92525
1.92318
1.92108
1.91896
1.91682
1.91465
1.91248
1.91028
1.90808
1.90586
1.90364
1.90141
1.89918
1.89695
1.89473
1.89251
1.89029
1.88809
1.88589
1.88371
1.88155
1.87941
1.87729
1.87519
1.87311
1.87107
1.86905
1.86706
1.86511
1.86319
1.86131
1.85947
1.85767
1.85592
1.8542
1.85254
1.85092
1.84934
1.84782
1.84635
1.84493
1.84357
1.84226
1.841
1.8398
1.83866
1.83758
1.83656
1.8356
1.8347
1.83386
1.83308
1.83237
1.83172
1.83113
1.8306
1.83014
1.82975
1.82942
1.82915
1.82896
1.82882
1.82875
1.82875
1.82881
1.82894
1.82913
1.82939
1.82971
1.8301
1.83056
1.83107
1.83166
1.8323
1.83301
1.83378
1.83461
1.83551
1.83646
1.83748
1.83856
1.83969
1.84088
1.84213
1.84343
1.84479
1.84621
1.84767
1.84919
1.85076
1.85237
1.85403
1.85574
1.85749
1.85929
1.86112
1.863
1.86491
1.86686
1.86884
1.87085
1.87289
1.87496
1.87706
1.87917
1.88131
1.88347
1.88565
1.88784
1.89004
1.89225
1.89447
1.89669
1.89892
1.90114
1.90337
1.90558
1.9078
1.91
1.91219
1.91437
1.91652
1.91867
1.92078
1.92288
1.92495
1.92699
1.929
1.93098
1.93292
1.93483
1.93669
1.93852
1.9403
1.94204
1.94373
1.94537
1.94696
1.9485
1.94999
1.95142
1.95279
1.9541
1.95535
1.95655
1.95768
1.95874
1.95974
1.96067
1.96154
1.96234
1.96307
1.96373
1.96432
1.96484
1.96528
1.96566
1.96596
1.96619
1.96634
1.96642
1.96642
1.96636
1.9675
1.96756
1.96756
1.96748
1.96732
1.96709
1.96678
1.9664
1.96595
1.96543
1.96483
1.96416
1.96342
1.96261
1.96174
1.96079
1.95978
1.9587
1.95756
1.95635
1.95508
1.95375
1.95236
1.95091
1.94941
1.94785
1.94624
1.94458
1.94286
1.9411
1.9393
1.93745
1.93556
1.93362
1.93166
1.92965
1.92761
1.92555
1.92345
1.92132
1.91918
1.91701
1.91482
1.91261
1.91039
1.90815
1.90591
1.90366
1.9014
1.89915
1.89689
1.89463
1.89238
1.89014
1.8879
1.88568
1.88347
1.88128
1.87911
1.87696
1.87483
1.87273
1.87066
1.86861
1.8666
1.86462
1.86268
1.86078
1.85891
1.85709
1.8553
1.85357
1.85188
1.85023
1.84864
1.8471
1.84561
1.84417
1.84279
1.84146
1.84019
1.83897
1.83782
1.83672
1.83568
1.83471
1.83379
1.83294
1.83216
1.83143
1.83077
1.83017
1.82964
1.82918
1.82878
1.82844
1.82817
1.82797
1.82784
1.82777
1.82776
1.82783
1.82796
1.82815
1.82841
1.82874
1.82914
1.8296
1.83012
1.83071
1.83136
1.83208
1.83286
1.83371
1.83462
1.83559
1.83662
1.83771
1.83886
1.84006
1.84133
1.84265
1.84403
1.84546
1.84695
1.84849
1.85007
1.85171
1.8534
1.85513
1.8569
1.85872
1.86058
1.86248
1.86442
1.86639
1.8684
1.87044
1.87251
1.87461
1.87673
1.87888
1.88105
1.88323
1.88544
1.88765
1.88988
1.89212
1.89437
1.89662
1.89888
1.90113
1.90338
1.90563
1.90787
1.9101
1.91232
1.91452
1.91671
1.91888
1.92103
1.92315
1.92524
1.92731
1.92934
1.93135
1.93331
1.93524
1.93713
1.93898
1.94078
1.94254
1.94425
1.94592
1.94753
1.94908
1.95059
1.95203
1.95342
1.95475
1.95602
1.95722
1.95837
1.95945
1.96046
1.9614
1.96228
1.96309
1.96383
1.96449
1.96509
1.96561
1.96606
1.96644
1.96675
1.96698
1.96714
1.96722
1.96722
1.96716
1.96836
1.96842
1.96842
1.96834
1.96818
1.96794
1.96763
1.96725
1.96679
1.96626
1.96566
1.96498
1.96423
1.96341
1.96253
1.96157
1.96054
1.95945
1.95829
1.95707
1.95578
1.95444
1.95303
1.95156
1.95004
1.94846
1.94683
1.94514
1.94341
1.94163
1.9398
1.93792
1.93601
1.93405
1.93206
1.93002
1.92796
1.92586
1.92374
1.92159
1.91941
1.91721
1.91499
1.91275
1.9105
1.90824
1.90596
1.90368
1.9014
1.89911
1.89682
1.89453
1.89225
1.88997
1.88771
1.88545
1.88322
1.88099
1.87879
1.87661
1.87445
1.87232
1.87022
1.86814
1.8661
1.86409
1.86212
1.86019
1.8583
1.85645
1.85464
1.85288
1.85116
1.8495
1.84788
1.84631
1.8448
1.84334
1.84194
1.84059
1.8393
1.83807
1.83689
1.83578
1.83473
1.83374
1.83281
1.83195
1.83115
1.83042
1.82974
1.82914
1.8286
1.82813
1.82772
1.82738
1.82711
1.8269
1.82677
1.8267
1.82669
1.82676
1.82689
1.82709
1.82735
1.82769
1.82809
1.82855
1.82909
1.82968
1.83035
1.83108
1.83187
1.83273
1.83365
1.83463
1.83568
1.83678
1.83795
1.83918
1.84046
1.8418
1.8432
1.84466
1.84616
1.84772
1.84933
1.851
1.85271
1.85446
1.85626
1.85811
1.86
1.86193
1.86389
1.86589
1.86793
1.87
1.8721
1.87423
1.87638
1.87856
1.88075
1.88297
1.88521
1.88746
1.88972
1.89199
1.89427
1.89655
1.89884
1.90112
1.90341
1.90568
1.90795
1.91022
1.91246
1.9147
1.91691
1.91911
1.92129
1.92344
1.92556
1.92765
1.92972
1.93174
1.93374
1.93569
1.93761
1.93948
1.94131
1.94309
1.94482
1.9465
1.94814
1.94971
1.95123
1.9527
1.95411
1.95545
1.95674
1.95796
1.95912
1.96021
1.96123
1.96219
1.96308
1.9639
1.96464
1.96532
1.96592
1.96645
1.96691
1.96729
1.9676
1.96784
1.968
1.96808
1.96808
1.96802
1.96929
1.96935
1.96935
1.96926
1.9691
1.96886
1.96855
1.96816
1.9677
1.96716
1.96655
1.96586
1.9651
1.96427
1.96337
1.9624
1.96136
1.96026
1.95908
1.95784
1.95654
1.95517
1.95375
1.95226
1.95072
1.94912
1.94746
1.94576
1.944
1.94219
1.94033
1.93843
1.93649
1.93451
1.93249
1.93043
1.92833
1.92621
1.92405
1.92187
1.91966
1.91743
1.91518
1.91291
1.91063
1.90833
1.90602
1.90371
1.90139
1.89906
1.89674
1.89442
1.8921
1.8898
1.8875
1.88521
1.88294
1.88068
1.87845
1.87623
1.87404
1.87188
1.86974
1.86764
1.86556
1.86353
1.86152
1.85956
1.85764
1.85576
1.85393
1.85214
1.85039
1.8487
1.84706
1.84547
1.84393
1.84245
1.84102
1.83965
1.83834
1.83709
1.8359
1.83477
1.8337
1.8327
1.83175
1.83088
1.83007
1.82932
1.82864
1.82802
1.82748
1.82699
1.82658
1.82624
1.82596
1.82575
1.82561
1.82554
1.82554
1.8256
1.82574
1.82594
1.82621
1.82655
1.82695
1.82743
1.82797
1.82858
1.82925
1.82999
1.8308
1.83167
1.8326
1.8336
1.83466
1.83579
1.83697
1.83822
1.83952
1.84089
1.84231
1.84378
1.84532
1.8469
1.84854
1.85023
1.85196
1.85375
1.85558
1.85745
1.85937
1.86132
1.86332
1.86535
1.86742
1.86952
1.87165
1.87381
1.876
1.87821
1.88044
1.88269
1.88496
1.88724
1.88954
1.89184
1.89416
1.89647
1.89879
1.90111
1.90343
1.90574
1.90804
1.91034
1.91262
1.91488
1.91713
1.91936
1.92157
1.92375
1.9259
1.92802
1.93012
1.93217
1.93419
1.93618
1.93812
1.94002
1.94187
1.94367
1.94543
1.94714
1.94879
1.95039
1.95193
1.95342
1.95484
1.95621
1.95751
1.95875
1.95992
1.96103
1.96207
1.96304
1.96394
1.96476
1.96552
1.96621
1.96682
1.96736
1.96782
1.96821
1.96852
1.96876
1.96892
1.96901
1.96901
1.96895
1.97028
1.97035
1.97034
1.97026
1.97009
1.96985
1.96953
1.96914
1.96867
1.96812
1.9675
1.9668
1.96604
1.96519
1.96428
1.9633
1.96224
1.96112
1.95993
1.95867
1.95735
1.95597
1.95452
1.95301
1.95145
1.94982
1.94814
1.94641
1.94463
1.94279
1.94091
1.93898
1.93701
1.935
1.93295
1.93086
1.92873
1.92657
1.92439
1.92217
1.91993
1.91766
1.91538
1.91308
1.91076
1.90843
1.90608
1.90373
1.90138
1.89902
1.89666
1.8943
1.89195
1.8896
1.88727
1.88495
1.88264
1.88035
1.87807
1.87582
1.8736
1.8714
1.86923
1.86709
1.86498
1.86291
1.86088
1.85888
1.85693
1.85502
1.85316
1.85134
1.84957
1.84785
1.84618
1.84456
1.843
1.84149
1.84004
1.83865
1.83731
1.83604
1.83483
1.83368
1.8326