/*--------------------------------*- C++ -*----------------------------------*\
| =========                 |                                                 |
| \\      /  F ield         | OpenFOAM: The Open Source CFD Toolbox           |
|  \\    /   O peration     | Version:  2412                                  |
|   \\  /    A nd           | Website:  www.openfoam.com                      |
|    \\/     M anipulation  |                                                 |
\*---------------------------------------------------------------------------*/
FoamFile
{
    version     2.0;
    format      ascii;
    arch        "LSB;label=32;scalar=64";
    class       surfaceScalarField;
    location    "1.21";
    object      phi;
}
// * * * * * * * * * * * * * * * * * * * * * * * * * * * * * * * * * * * * * //

dimensions      [0 3 -1 0 0 0 0];

oriented        oriented;

internalField   nonuniform List<scalar> 
79600
(
1.7315e-11
-1.72962e-11
4.91859e-11
-3.18705e-11
8.56674e-11
-3.64824e-11
1.23638e-10
-3.7973e-11
1.6215e-10
-3.85106e-11
2.00794e-10
-3.86425e-11
2.39355e-10
-3.85608e-11
2.77731e-10
-3.83761e-11
3.15869e-10
-3.81385e-11
3.5374e-10
-3.787e-11
3.91319e-10
-3.75776e-11
4.28582e-10
-3.72613e-11
4.65502e-10
-3.69203e-11
5.02054e-10
-3.65535e-11
5.38213e-10
-3.61598e-11
5.73951e-10
-3.57385e-11
6.09241e-10
-3.5289e-11
6.44052e-10
-3.48111e-11
6.78357e-10
-3.43047e-11
7.12127e-10
-3.37698e-11
7.45332e-10
-3.32061e-11
7.77945e-10
-3.26133e-11
8.09936e-10
-3.19911e-11
8.41276e-10
-3.13392e-11
8.71935e-10
-3.06578e-11
9.01883e-10
-2.99471e-11
9.31091e-10
-2.92077e-11
9.5953e-10
-2.84397e-11
9.87172e-10
-2.76433e-11
1.01399e-09
-2.68182e-11
1.03995e-09
-2.59644e-11
1.06503e-09
-2.5082e-11
1.08921e-09
-2.41713e-11
1.11244e-09
-2.32328e-11
1.13471e-09
-2.22672e-11
1.15598e-09
-2.12745e-11
1.17624e-09
-2.02551e-11
1.19544e-09
-1.92091e-11
1.21358e-09
-1.8137e-11
1.23062e-09
-1.70394e-11
1.24654e-09
-1.59171e-11
1.26131e-09
-1.47706e-11
1.27491e-09
-1.36006e-11
1.28732e-09
-1.24077e-11
1.29851e-09
-1.11928e-11
1.30847e-09
-9.95667e-12
1.31717e-09
-8.70049e-12
1.3246e-09
-7.42529e-12
1.33073e-09
-6.13201e-12
1.33555e-09
-4.82152e-12
1.33904e-09
-3.49456e-12
1.34119e-09
-2.15165e-12
1.34199e-09
-7.93275e-13
1.3414e-09
5.90764e-13
1.33942e-09
1.97671e-12
1.33605e-09
3.36917e-12
1.33128e-09
4.76523e-12
1.32512e-09
6.16454e-12
1.31755e-09
7.56676e-12
1.30858e-09
8.97076e-12
1.29821e-09
1.03751e-11
1.28643e-09
1.17781e-11
1.27325e-09
1.31785e-11
1.25867e-09
1.45743e-11
1.24271e-09
1.59639e-11
1.22536e-09
1.73451e-11
1.20665e-09
1.8716e-11
1.18657e-09
2.00744e-11
1.16516e-09
2.14183e-11
1.14241e-09
2.27457e-11
1.11836e-09
2.40547e-11
1.09301e-09
2.53433e-11
1.0664e-09
2.66096e-11
1.03855e-09
2.78516e-11
1.00949e-09
2.90674e-11
9.7923e-10
3.02552e-11
9.47818e-10
3.1413e-11
9.15279e-10
3.25389e-11
8.81648e-10
3.36309e-11
8.4696e-10
3.46872e-11
8.11253e-10
3.5706e-11
7.74566e-10
3.66854e-11
7.3694e-10
3.76241e-11
6.98419e-10
3.85203e-11
6.59046e-10
3.93726e-11
6.18867e-10
4.01792e-11
5.77928e-10
4.09387e-11
5.36279e-10
4.16497e-11
4.9397e-10
4.23109e-11
4.51049e-10
4.29212e-11
4.07571e-10
4.34796e-11
3.63586e-10
4.39848e-11
3.1915e-10
4.44359e-11
2.74317e-10
4.48323e-11
2.29143e-10
4.51734e-11
1.83684e-10
4.54586e-11
1.37997e-10
4.56874e-11
9.21374e-11
4.58592e-11
4.61636e-11
4.59733e-11
1.33812e-13
4.60288e-11
-4.58963e-11
4.60288e-11
-9.1871e-11
4.59733e-11
-1.37732e-10
4.58591e-11
-1.8342e-10
4.56872e-11
-2.2888e-10
4.54584e-11
-2.74054e-10
4.51734e-11
-3.18887e-10
4.48325e-11
-3.63323e-10
4.44362e-11
-4.07309e-10
4.39851e-11
-4.5079e-10
4.34801e-11
-4.93713e-10
4.29223e-11
-5.36026e-10
4.23125e-11
-5.77679e-10
4.16517e-11
-6.18621e-10
4.09412e-11
-6.58803e-10
4.01821e-11
-6.98179e-10
3.93762e-11
-7.36704e-10
3.85248e-11
-7.74332e-10
3.76291e-11
-8.11023e-10
3.66904e-11
-8.46735e-10
3.57107e-11
-8.81427e-10
3.4692e-11
-9.15063e-10
3.36357e-11
-9.47608e-10
3.25439e-11
-9.79026e-10
3.14185e-11
-1.00929e-09
3.02611e-11
-1.03836e-09
2.90738e-11
-1.06622e-09
2.78585e-11
-1.09283e-09
2.66167e-11
-1.11818e-09
2.53502e-11
-1.14225e-09
2.40614e-11
-1.165e-09
2.27525e-11
-1.18642e-09
2.14252e-11
-1.20651e-09
2.00819e-11
-1.22523e-09
1.87246e-11
-1.24259e-09
1.73549e-11
-1.25856e-09
1.59749e-11
-1.27315e-09
1.45865e-11
-1.28634e-09
1.3191e-11
-1.29813e-09
1.17905e-11
-1.30852e-09
1.03874e-11
-1.3175e-09
8.98278e-12
-1.32508e-09
7.57805e-12
-1.33126e-09
6.17574e-12
-1.33603e-09
4.77624e-12
-1.33941e-09
3.3793e-12
-1.3414e-09
1.98606e-12
-1.34199e-09
5.99528e-13
-1.34121e-09
-7.85164e-13
-1.33906e-09
-2.14304e-12
-1.33558e-09
-3.48539e-12
-1.33077e-09
-4.81145e-12
-1.32465e-09
-6.12015e-12
-1.31723e-09
-7.41184e-12
-1.30855e-09
-8.68559e-12
-1.29861e-09
-9.94029e-12
-1.28743e-09
-1.11755e-11
-1.27504e-09
-1.23901e-11
-1.26146e-09
-1.35832e-11
-1.2467e-09
-1.47539e-11
-1.2308e-09
-1.59008e-11
-1.21378e-09
-1.70236e-11
-1.19566e-09
-1.81212e-11
-1.17646e-09
-1.91928e-11
-1.15622e-09
-2.02386e-11
-1.13496e-09
-2.12576e-11
-1.11271e-09
-2.22497e-11
-1.0895e-09
-2.32151e-11
-1.06535e-09
-2.4153e-11
-1.04029e-09
-2.50627e-11
-1.01434e-09
-2.59441e-11
-9.87543e-10
-2.67979e-11
-9.5992e-10
-2.76234e-11
-9.31501e-10
-2.84195e-11
-9.02316e-10
-2.91864e-11
-8.72396e-10
-2.99224e-11
-8.41767e-10
-3.06283e-11
-8.10463e-10
-3.13048e-11
-7.7851e-10
-3.19526e-11
-7.45938e-10
-3.25727e-11
-7.12775e-10
-3.31649e-11
-6.7905e-10
-3.37278e-11
-6.44789e-10
-3.42605e-11
-6.10028e-10
-3.47628e-11
-5.74794e-10
-3.52338e-11
-5.39118e-10
-3.56748e-11
-5.03033e-10
-3.60865e-11
-4.66562e-10
-3.64693e-11
-4.29737e-10
-3.68237e-11
-3.92586e-10
-3.71499e-11
-3.55139e-10
-3.74474e-11
-3.17423e-10
-3.77154e-11
-2.7947e-10
-3.79533e-11
-2.41309e-10
-3.81595e-11
-2.02974e-10
-3.8333e-11
-1.64505e-10
-3.84689e-11
-1.25962e-10
-3.85425e-11
-8.75362e-11
-3.84246e-11
-5.00926e-11
-3.74448e-11
-1.72558e-11
-3.28389e-11
-1.72604e-11
3.34401e-11
-5.0736e-11
9.11718e-11
-8.9599e-11
1.54602e-10
-9.99091e-11
2.19234e-10
-1.02608e-10
2.84224e-10
-1.03505e-10
3.49295e-10
-1.03715e-10
4.14271e-10
-1.03535e-10
4.79027e-10
-1.03128e-10
5.43473e-10
-1.02583e-10
6.07541e-10
-1.01937e-10
6.71174e-10
-1.0121e-10
7.34318e-10
-1.00406e-10
7.96924e-10
-9.95273e-11
8.58944e-10
-9.85742e-11
9.2033e-10
-9.7546e-11
9.81034e-10
-9.64422e-11
1.04101e-09
-9.52621e-11
1.1002e-09
-9.40057e-11
1.15857e-09
-9.26727e-11
1.21606e-09
-9.12626e-11
1.27263e-09
-8.9775e-11
1.32823e-09
-8.82091e-11
1.3828e-09
-8.65647e-11
1.4363e-09
-8.48415e-11
1.48869e-09
-8.30398e-11
1.5399e-09
-8.116e-11
1.5899e-09
-7.92025e-11
1.63862e-09
-7.71673e-11
1.68603e-09
-7.50544e-11
1.73207e-09
-7.28636e-11
1.7767e-09
-7.05953e-11
1.81987e-09
-6.82497e-11
1.86153e-09
-6.58276e-11
1.90162e-09
-6.33298e-11
1.94011e-09
-6.07571e-11
1.97695e-09
-5.811e-11
2.01208e-09
-5.53893e-11
2.04547e-09
-5.25958e-11
2.07707e-09
-4.97307e-11
2.10682e-09
-4.67952e-11
2.1347e-09
-4.37908e-11
2.16065e-09
-4.0719e-11
2.18463e-09
-3.75813e-11
2.2066e-09
-3.43797e-11
2.22652e-09
-3.11161e-11
2.24436e-09
-2.77929e-11
2.26007e-09
-2.44127e-11
2.27363e-09
-2.09776e-11
2.28498e-09
-1.74903e-11
2.29411e-09
-1.39534e-11
2.30099e-09
-1.03694e-11
2.30558e-09
-6.74115e-12
2.30785e-09
-3.0704e-12
2.3078e-09
6.42344e-13
2.30538e-09
4.38979e-12
2.30059e-09
8.15917e-12
2.29341e-09
1.1949e-11
2.28382e-09
1.57567e-11
2.27181e-09
1.95789e-11
2.25736e-09
2.34118e-11
2.24048e-09
2.72511e-11
2.22117e-09
3.10924e-11
2.19941e-09
3.49311e-11
2.17523e-09
3.8762e-11
2.14861e-09
4.25799e-11
2.11958e-09
4.63793e-11
2.08814e-09
5.01546e-11
2.05432e-09
5.39003e-11
2.01813e-09
5.76107e-11
1.97959e-09
6.12802e-11
1.93874e-09
6.49033e-11
1.89561e-09
6.84743e-11
1.85023e-09
7.19877e-11
1.80265e-09
7.54379e-11
1.7529e-09
7.88192e-11
1.70103e-09
8.2126e-11
1.64709e-09
8.53526e-11
1.59113e-09
8.84934e-11
1.53322e-09
9.15429e-11
1.47341e-09
9.44957e-11
1.41177e-09
9.73466e-11
1.34836e-09
1.00091e-10
1.28326e-09
1.02723e-10
1.21654e-09
1.05238e-10
1.14828e-09
1.07632e-10
1.07856e-09
1.09899e-10
1.00747e-09
1.12035e-10
9.35082e-10
1.14036e-10
8.61495e-10
1.15899e-10
7.86798e-10
1.17619e-10
7.11085e-10
1.19193e-10
6.34449e-10
1.20619e-10
5.56991e-10
1.21893e-10
4.78808e-10
1.23014e-10
4.00002e-10
1.23978e-10
3.20676e-10
1.24785e-10
2.4093e-10
1.25432e-10
1.6087e-10
1.25918e-10
8.06002e-11
1.26242e-10
2.24923e-13
1.26402e-10
-8.01507e-11
1.26402e-10
-1.60422e-10
1.26242e-10
-2.40484e-10
1.25918e-10
-3.2023e-10
1.25432e-10
-3.99558e-10
1.24785e-10
-4.78364e-10
1.23979e-10
-5.56547e-10
1.23015e-10
-6.34006e-10
1.21895e-10
-7.10643e-10
1.20621e-10
-7.8636e-10
1.19195e-10
-8.6106e-10
1.17622e-10
-9.34651e-10
1.15902e-10
-1.00704e-09
1.14041e-10
-1.07814e-09
1.1204e-10
-1.14786e-09
1.09905e-10
-1.21613e-09
1.0764e-10
-1.28285e-09
1.05248e-10
-1.34795e-09
1.02733e-10
-1.41137e-09
1.00102e-10
-1.47302e-09
9.73579e-11
-1.53283e-09
9.45073e-11
-1.59075e-09
9.1555e-11
-1.64671e-09
8.85061e-11
-1.70066e-09
8.53661e-11
-1.75254e-09
8.21404e-11
-1.8023e-09
7.88342e-11
-1.84989e-09
7.54531e-11
-1.89528e-09
7.20029e-11
-1.93842e-09
6.8489e-11
-1.97927e-09
6.49178e-11
-2.01782e-09
6.12953e-11
-2.05402e-09
5.76267e-11
-2.08786e-09
5.39176e-11
-2.11931e-09
5.0174e-11
-2.14835e-09
4.64009e-11
-2.17498e-09
4.26031e-11
-2.19918e-09
3.87868e-11
-2.22094e-09
3.49571e-11
-2.24027e-09
3.11188e-11
-2.25717e-09
2.72776e-11
-2.27162e-09
2.34383e-11
-2.28365e-09
1.96047e-11
-2.29325e-09
1.57817e-11
-2.30045e-09
1.19734e-11
-2.30525e-09
8.18206e-12
-2.30768e-09
4.41101e-12
-2.30774e-09
6.62885e-13
-2.30547e-09
-3.05064e-12
-2.3009e-09
-6.72063e-12
-2.29403e-09
-1.03471e-11
-2.28492e-09
-1.39288e-11
-2.27357e-09
-1.74627e-11
-2.26004e-09
-2.0947e-11
-2.24434e-09
-2.43801e-11
-2.22652e-09
-2.77589e-11
-2.20662e-09
-3.10809e-11
-2.18466e-09
-3.43438e-11
-2.1607e-09
-3.75455e-11
-2.13477e-09
-4.06839e-11
-2.10691e-09
-4.3756e-11
-2.07717e-09
-4.67603e-11
-2.0456e-09
-4.96962e-11
-2.01223e-09
-5.25615e-11
-1.97711e-09
-5.53546e-11
-1.94029e-09
-5.80749e-11
-1.90182e-09
-6.0721e-11
-1.86175e-09
-6.32927e-11
-1.82011e-09
-6.57888e-11
-1.77696e-09
-6.82089e-11
-1.73235e-09
-7.05534e-11
-1.68633e-09
-7.28213e-11
-1.63894e-09
-7.50125e-11
-1.59024e-09
-7.71247e-11
-1.54027e-09
-7.91574e-11
-1.48909e-09
-8.11098e-11
-1.43673e-09
-8.29815e-11
-1.38326e-09
-8.47754e-11
-1.32872e-09
-8.64923e-11
-1.27317e-09
-8.81333e-11
-1.21664e-09
-8.96967e-11
-1.15918e-09
-9.11821e-11
-1.10086e-09
-9.25871e-11
-1.04171e-09
-9.39132e-11
-9.8178e-10
-9.51589e-11
-9.21128e-10
-9.63263e-11
-8.598e-10
-9.74164e-11
-7.97839e-10
-9.84282e-11
-7.35296e-10
-9.93645e-11
-6.72219e-10
-1.00225e-10
-6.08656e-10
-1.01011e-10
-5.44653e-10
-1.01717e-10
-4.80258e-10
-1.02346e-10
-4.15518e-10
-1.02897e-10
-3.50483e-10
-1.03367e-10
-2.852e-10
-1.03753e-10
-2.1973e-10
-1.04012e-10
-1.54294e-10
-1.03859e-10
-9.00439e-11
-1.01687e-10
-3.23658e-11
-9.05046e-11
-4.96279e-11
3.76778e-11
-8.84147e-11
1.02561e-10
-1.54483e-10
1.73445e-10
-1.7079e-10
2.45115e-10
-1.74277e-10
3.16758e-10
-1.75149e-10
3.88287e-10
-1.75245e-10
4.59658e-10
-1.74905e-10
5.30796e-10
-1.74264e-10
6.01623e-10
-1.73407e-10
6.72065e-10
-1.72378e-10
7.42057e-10
-1.71201e-10
8.11536e-10
-1.69886e-10
8.80445e-10
-1.68437e-10
9.48729e-10
-1.66857e-10
1.01633e-09
-1.65148e-10
1.0832e-09
-1.63308e-10
1.14928e-09
-1.61339e-10
1.21451e-09
-1.5924e-10
1.27885e-09
-1.5701e-10
1.34224e-09
-1.5465e-10
1.40462e-09
-1.52158e-10
1.46594e-09
-1.49534e-10
1.52616e-09
-1.46778e-10
1.58521e-09
-1.43889e-10
1.64303e-09
-1.40868e-10
1.69959e-09
-1.37714e-10
1.75481e-09
-1.34429e-10
1.80865e-09
-1.31012e-10
1.86106e-09
-1.27462e-10
1.91197e-09
-1.23781e-10
1.96135e-09
-1.19967e-10
2.00912e-09
-1.16023e-10
2.05524e-09
-1.11949e-10
2.09965e-09
-1.07746e-10
2.14231e-09
-1.03415e-10
2.18316e-09
-9.89567e-11
2.22214e-09
-9.43729e-11
2.25921e-09
-8.96649e-11
2.29432e-09
-8.48345e-11
2.32741e-09
-7.98837e-11
2.35843e-09
-7.48147e-11
2.38734e-09
-6.96301e-11
2.41409e-09
-6.43323e-11
2.43864e-09
-5.89244e-11
2.46093e-09
-5.34098e-11
2.48093e-09
-4.77922e-11
2.49859e-09
-4.20753e-11
2.51388e-09
-3.62632e-11
2.52675e-09
-3.03601e-11
2.53716e-09
-2.43704e-11
2.54509e-09
-1.82992e-11
2.5505e-09
-1.21516e-11
2.55336e-09
-5.93354e-12
2.55366e-09
3.47072e-13
2.55136e-09
6.68861e-12
2.54644e-09
1.30797e-11
2.53887e-09
1.95152e-11
2.52864e-09
2.5988e-11
2.51573e-09
3.24908e-11
2.50012e-09
3.90163e-11
2.48181e-09
4.55569e-11
2.4608e-09
5.21047e-11
2.43708e-09
5.86514e-11
2.41065e-09
6.51884e-11
2.38152e-09
7.17067e-11
2.34971e-09
7.81969e-11
2.31521e-09
8.46496e-11
2.27806e-09
9.10554e-11
2.23827e-09
9.74047e-11
2.19586e-09
1.03688e-10
2.15087e-09
1.09895e-10
2.10332e-09
1.16017e-10
2.05327e-09
1.22043e-10
2.00074e-09
1.27964e-10
1.94579e-09
1.33769e-10
1.88847e-09
1.39449e-10
1.82883e-09
1.44995e-10
1.76693e-09
1.50395e-10
1.70283e-09
1.55641e-10
1.6366e-09
1.60723e-10
1.56832e-09
1.65631e-10
1.49805e-09
1.70358e-10
1.42588e-09
1.74894e-10
1.35189e-09
1.7923e-10
1.27616e-09
1.83357e-10
1.19879e-09
1.87268e-10
1.11987e-09
1.90955e-10
1.0395e-09
1.94409e-10
9.57773e-10
1.97626e-10
8.74793e-10
2.00598e-10
7.90667e-10
2.03319e-10
7.055e-10
2.05784e-10
6.19405e-10
2.07988e-10
5.32491e-10
2.09926e-10
4.44874e-10
2.11595e-10
3.56668e-10
2.12991e-10
2.67989e-10
2.1411e-10
1.78954e-10
2.14952e-10
8.96805e-11
2.15513e-10
2.86833e-13
2.15794e-10
-8.91072e-11
2.15794e-10
-1.78382e-10
2.15514e-10
-2.67418e-10
2.14953e-10
-3.56098e-10
2.14112e-10
-4.44305e-10
2.12993e-10
-5.31923e-10
2.11598e-10
-6.18837e-10
2.0993e-10
-7.04934e-10
2.07992e-10
-7.90102e-10
2.05789e-10
-8.74231e-10
2.03324e-10
-9.57214e-10
2.00604e-10
-1.03895e-09
1.97633e-10
-1.11932e-09
1.94417e-10
-1.19825e-09
1.90963e-10
-1.27562e-09
1.87278e-10
-1.35135e-09
1.83369e-10
-1.42534e-09
1.79243e-10
-1.49752e-09
1.74909e-10
-1.56779e-09
1.70374e-10
-1.63608e-09
1.65648e-10
-1.70232e-09
1.6074e-10
-1.76642e-09
1.55659e-10
-1.82833e-09
1.50414e-10
-1.88798e-09
1.45014e-10
-1.9453e-09
1.3947e-10
-2.00026e-09
1.3379e-10
-2.05279e-09
1.27985e-10
-2.10286e-09
1.22065e-10
-2.15041e-09
1.16039e-10
-2.19541e-09
1.09918e-10
-2.23782e-09
1.03712e-10
-2.27762e-09
9.74297e-11
-2.31479e-09
9.10818e-11
-2.34929e-09
8.46778e-11
-2.38112e-09
7.82272e-11
-2.41025e-09
7.17388e-11
-2.43669e-09
6.52222e-11
-2.46042e-09
5.8687e-11
-2.48144e-09
5.21413e-11
-2.49976e-09
4.55938e-11
-2.51537e-09
3.90534e-11
-2.52829e-09
3.25273e-11
-2.53854e-09
2.60232e-11
-2.54611e-09
1.95492e-11
-2.55104e-09
1.31122e-11
-2.55335e-09
6.7198e-12
-2.55307e-09
3.77859e-13
-2.55022e-09
-5.9025e-12
-2.54482e-09
-1.21196e-11
-2.5369e-09
-1.82648e-11
-2.52649e-09
-2.43336e-11
-2.51364e-09
-3.03207e-11
-2.49836e-09
-3.62214e-11
-2.48071e-09
-4.20318e-11
-2.46072e-09
-4.77474e-11
-2.43844e-09
-5.33638e-11
-2.4139e-09
-5.88776e-11
-2.38716e-09
-6.42851e-11
-2.35826e-09
-6.9583e-11
-2.32725e-09
-7.4768e-11
-2.29417e-09
-7.98372e-11
-2.25908e-09
-8.47886e-11
-2.22202e-09
-8.96195e-11
-2.18305e-09
-9.43269e-11
-2.14221e-09
-9.891e-11
-2.09957e-09
-1.03367e-10
-2.05516e-09
-1.07696e-10
-2.00905e-09
-1.11898e-10
-1.96129e-09
-1.1597e-10
-1.91193e-09
-1.19913e-10
-1.86103e-09
-1.23726e-10
-1.80863e-09
-1.27408e-10
-1.75481e-09
-1.30956e-10
-1.69959e-09
-1.34371e-10
-1.64305e-09
-1.37651e-10
-1.58524e-09
-1.40797e-10
-1.5262e-09
-1.43812e-10
-1.466e-09
-1.46695e-10
-1.40469e-09
-1.49448e-10
-1.34232e-09
-1.52068e-10
-1.27894e-09
-1.54557e-10
-1.21461e-09
-1.56913e-10
-1.14939e-09
-1.59137e-10
-1.08332e-09
-1.61228e-10
-1.01646e-09
-1.63188e-10
-9.48859e-10
-1.65017e-10
-8.8057e-10
-1.66716e-10
-8.11647e-10
-1.68286e-10
-7.42144e-10
-1.69728e-10
-6.72109e-10
-1.71042e-10
-6.01598e-10
-1.72228e-10
-5.3066e-10
-1.73283e-10
-4.59345e-10
-1.74209e-10
-3.87707e-10
-1.75007e-10
-3.15793e-10
-1.75666e-10
-2.43677e-10
-1.76127e-10
-1.71596e-10
-1.75943e-10
-1.00749e-10
-1.72538e-10
-3.67437e-11
-1.54506e-10
-8.63707e-11
3.81265e-11
-1.2654e-10
1.04211e-10
-2.20573e-10
1.76892e-10
-2.43472e-10
2.50381e-10
-2.47764e-10
3.23667e-10
-2.48434e-10
3.96691e-10
-2.48267e-10
4.6946e-10
-2.47672e-10
5.41946e-10
-2.46749e-10
6.14099e-10
-2.45558e-10
6.85857e-10
-2.44135e-10
7.57159e-10
-2.42503e-10
8.27946e-10
-2.40672e-10
8.98159e-10
-2.38649e-10
9.67741e-10
-2.36438e-10
1.03664e-09
-2.34041e-10
1.10479e-09
-2.31459e-10
1.17214e-09
-2.28692e-10
1.23864e-09
-2.2574e-10
1.30423e-09
-2.22603e-10
1.36886e-09
-2.19281e-10
1.43248e-09
-2.15772e-10
1.49502e-09
-2.12076e-10
1.55644e-09
-2.08193e-10
1.61667e-09
-2.04122e-10
1.67567e-09
-1.99865e-10
1.73337e-09
-1.9542e-10
1.78972e-09
-1.90787e-10
1.84467e-09
-1.85967e-10
1.89817e-09
-1.80959e-10
1.95015e-09
-1.75764e-10
2.00057e-09
-1.70382e-10
2.04936e-09
-1.64814e-10
2.09647e-09
-1.59062e-10
2.14185e-09
-1.53126e-10
2.18544e-09
-1.47008e-10
2.22719e-09
-1.40709e-10
2.26705e-09
-1.34232e-10
2.30496e-09
-1.27577e-10
2.34088e-09
-1.20748e-10
2.37474e-09
-1.13747e-10
2.40651e-09
-1.06578e-10
2.43612e-09
-9.92435e-11
2.46353e-09
-9.17472e-11
2.4887e-09
-8.40935e-11
2.51158e-09
-7.62869e-11
2.53212e-09
-6.83325e-11
2.55028e-09
-6.02355e-11
2.56602e-09
-5.20015e-11
2.57929e-09
-4.36363e-11
2.59007e-09
-3.51466e-11
2.59831e-09
-2.65393e-11
2.60397e-09
-1.78223e-11
2.60704e-09
-9.00422e-12
2.60748e-09
-9.48578e-14
2.60527e-09
8.89944e-12
2.60038e-09
1.79705e-11
2.59279e-09
2.71089e-11
2.58247e-09
3.63042e-11
2.56942e-09
4.55457e-11
2.55361e-09
5.48226e-11
2.53504e-09
6.41239e-11
2.51371e-09
7.34383e-11
2.4896e-09
8.27539e-11
2.46274e-09
9.20581e-11
2.4331e-09
1.01338e-10
2.40072e-09
1.10581e-10
2.3656e-09
1.19774e-10
2.32775e-09
1.28902e-10
2.2872e-09
1.37953e-10
2.24398e-09
1.46912e-10
2.19811e-09
1.55766e-10
2.14962e-09
1.64501e-10
2.09856e-09
1.73101e-10
2.04497e-09
1.81554e-10
1.9889e-09
1.89844e-10
1.93039e-09
1.97958e-10
1.8695e-09
2.05881e-10
1.8063e-09
2.13598e-10
1.74085e-09
2.21097e-10
1.67321e-09
2.28363e-10
1.60346e-09
2.35383e-10
1.53167e-09
2.42144e-10
1.45793e-09
2.48633e-10
1.38232e-09
2.54838e-10
1.30494e-09
2.60745e-10
1.22586e-09
2.66343e-10
1.14519e-09
2.71621e-10
1.06303e-09
2.76569e-10
9.79479e-10
2.81177e-10
8.94641e-10
2.85435e-10
8.08625e-10
2.89334e-10
7.2154e-10
2.92867e-10
6.335e-10
2.96026e-10
5.4462e-10
2.98805e-10
4.55016e-10
3.01198e-10
3.64806e-10
3.03199e-10
2.74111e-10
3.04805e-10
1.83049e-10
3.06012e-10
9.17437e-11
3.06818e-10
3.14973e-13
3.07221e-10
-9.11142e-11
3.07221e-10
-1.82421e-10
3.06819e-10
-2.73484e-10
3.06014e-10
-3.6418e-10
3.04809e-10
-4.5439e-10
3.03204e-10
-5.43995e-10
3.01204e-10
-6.32876e-10
2.98812e-10
-7.20918e-10
2.96034e-10
-8.08004e-10
2.92875e-10
-8.94023e-10
2.89343e-10
-9.78864e-10
2.85444e-10
-1.06242e-09
2.81187e-10
-1.14458e-09
2.76581e-10
-1.22526e-09
2.71634e-10
-1.30433e-09
2.66357e-10
-1.38173e-09
2.60761e-10
-1.45734e-09
2.54855e-10
-1.53108e-09
2.48652e-10
-1.60287e-09
2.42164e-10
-1.67263e-09
2.35405e-10
-1.74027e-09
2.28385e-10
-1.80573e-09
2.2112e-10
-1.86894e-09
2.13622e-10
-1.92983e-09
2.05905e-10
-1.98835e-09
1.97984e-10
-2.04443e-09
1.89871e-10
-2.09803e-09
1.81582e-10
-2.14909e-09
1.7313e-10
-2.19758e-09
1.64531e-10
-2.24346e-09
1.55797e-10
-2.28669e-09
1.46944e-10
-2.32725e-09
1.37986e-10
-2.3651e-09
1.28936e-10
-2.40023e-09
1.19809e-10
-2.43263e-09
1.10619e-10
-2.46226e-09
1.01378e-10
-2.48914e-09
9.20996e-11
-2.51325e-09
8.27973e-11
-2.53459e-09
7.34832e-11
-2.55317e-09
6.41691e-11
-2.56898e-09
5.48675e-11
-2.58204e-09
4.55899e-11
-2.59237e-09
3.63471e-11
-2.59997e-09
2.71506e-11
-2.60487e-09
1.80114e-11
-2.60709e-09
8.94e-12
-2.60666e-09
-5.3958e-14
-2.6036e-09
-8.96244e-12
-2.59794e-09
-1.77795e-11
-2.58971e-09
-2.64946e-11
-2.57894e-09
-3.50998e-11
-2.56568e-09
-4.35879e-11
-2.54995e-09
-5.19513e-11
-2.5318e-09
-6.01838e-11
-2.51126e-09
-6.82794e-11
-2.48839e-09
-7.62326e-11
-2.46323e-09
-8.40385e-11
-2.43582e-09
-9.16918e-11
-2.40622e-09
-9.91881e-11
-2.37446e-09
-1.06523e-10
-2.3406e-09
-1.13694e-10
-2.3047e-09
-1.20695e-10
-2.26679e-09
-1.27524e-10
-2.22694e-09
-1.34178e-10
-2.1852e-09
-1.40654e-10
-2.14161e-09
-1.46952e-10
-2.09624e-09
-1.53068e-10
-2.04913e-09
-1.59003e-10
-2.00035e-09
-1.64755e-10
-1.94994e-09
-1.70322e-10
-1.89796e-09
-1.75703e-10
-1.84448e-09
-1.80897e-10
-1.78953e-09
-1.85903e-10
-1.73318e-09
-1.90721e-10
-1.67548e-09
-1.95349e-10
-1.61649e-09
-1.9979e-10
-1.55625e-09
-2.04044e-10
-1.49484e-09
-2.08111e-10
-1.4323e-09
-2.1199e-10
-1.36868e-09
-2.15684e-10
-1.30405e-09
-2.19191e-10
-1.23845e-09
-2.22511e-10
-1.17194e-09
-2.25646e-10
-1.10458e-09
-2.28595e-10
-1.03641e-09
-2.31358e-10
-9.67487e-10
-2.33936e-10
-8.97871e-10
-2.36331e-10
-8.2761e-10
-2.38544e-10
-7.56762e-10
-2.40577e-10
-6.85375e-10
-2.42428e-10
-6.13503e-10
-2.44098e-10
-5.41201e-10
-2.45588e-10
-4.68516e-10
-2.46895e-10
-3.95501e-10
-2.48022e-10
-3.22208e-10
-2.48958e-10
-2.48713e-10
-2.4962e-10
-1.75255e-10
-2.49399e-10
-1.03046e-10
-2.44749e-10
-3.77505e-11
-2.198e-10
-1.2412e-10
3.80277e-11
-1.64565e-10
1.04084e-10
-2.86632e-10
1.77142e-10
-3.16533e-10
2.51222e-10
-3.21843e-10
3.25112e-10
-3.22322e-10
3.9868e-10
-3.21832e-10
4.7193e-10
-3.20921e-10
5.44852e-10
-3.19671e-10
6.17411e-10
-3.18117e-10
6.89557e-10
-3.16282e-10
7.61238e-10
-3.14184e-10
8.32397e-10
-3.11831e-10
9.0298e-10
-3.0923e-10
9.72929e-10
-3.06386e-10
1.04219e-09
-3.033e-10
1.11071e-09
-2.99975e-10
1.17842e-09
-2.96409e-10
1.24529e-09
-2.92604e-10
1.31124e-09
-2.88559e-10
1.37623e-09
-2.84273e-10
1.44021e-09
-2.79745e-10
1.50311e-09
-2.74976e-10
1.56488e-09
-2.69965e-10
1.62547e-09
-2.64711e-10
1.68482e-09
-2.59214e-10
1.74287e-09
-2.53475e-10
1.79957e-09
-2.47492e-10
1.85487e-09
-2.41266e-10
1.9087e-09
-2.34796e-10
1.96102e-09
-2.28084e-10
2.01177e-09
-2.21129e-10
2.06089e-09
-2.13934e-10
2.10832e-09
-2.06499e-10
2.15402e-09
-1.98825e-10
2.19793e-09
-1.90915e-10
2.23999e-09
-1.82769e-10
2.28015e-09
-1.74391e-10
2.31835e-09
-1.65783e-10
2.35455e-09
-1.56948e-10
2.3887e-09
-1.4789e-10
2.42073e-09
-1.38612e-10
2.4506e-09
-1.29118e-10
2.47827e-09
-1.19414e-10
2.50368e-09
-1.09504e-10
2.52679e-09
-9.93952e-11
2.54754e-09
-8.90927e-11
2.56591e-09
-7.86036e-11
2.58184e-09
-6.79351e-11
2.5953e-09
-5.70949e-11
2.60625e-09
-4.60914e-11
2.61464e-09
-3.49336e-11
2.62045e-09
-2.36317e-11
2.62364e-09
-1.21961e-11
2.62418e-09
-6.386e-13
2.62205e-09
1.10312e-11
2.61722e-09
2.28025e-11
2.60966e-09
3.46632e-11
2.59937e-09
4.66e-11
2.58631e-09
5.85993e-11
2.57049e-09
7.06472e-11
2.55188e-09
8.27293e-11
2.53049e-09
9.48305e-11
2.50631e-09
1.06935e-10
2.47934e-09
1.19028e-10
2.44959e-09
1.31091e-10
2.41706e-09
1.43108e-10
2.38178e-09
1.55062e-10
2.34374e-09
1.66935e-10
2.30299e-09
1.78709e-10
2.25953e-09
1.90367e-10
2.21341e-09
2.0189e-10
2.16465e-09
2.1326e-10
2.11329e-09
2.24457e-10
2.05938e-09
2.35464e-10
2.00297e-09
2.46261e-10
1.9441e-09
2.56829e-10
1.88283e-09
2.67151e-10
1.81922e-09
2.77207e-10
1.75334e-09
2.86979e-10
1.68525e-09
2.9645e-10
1.61503e-09
3.05601e-10
1.54276e-09
3.14416e-10
1.46852e-09
3.22876e-10
1.39239e-09
3.30967e-10
1.31446e-09
3.38671e-10
1.23483e-09
3.45973e-10
1.15359e-09
3.5286e-10
1.07084e-09
3.59316e-10
9.86692e-10
3.65328e-10
9.01242e-10
3.70885e-10
8.146e-10
3.75974e-10
7.2688e-10
3.80586e-10
6.38195e-10
3.8471e-10
5.48661e-10
3.88338e-10
4.58397e-10
3.91461e-10
3.6752e-10
3.94075e-10
2.76152e-10
3.96172e-10
1.84415e-10
3.97748e-10
9.24316e-11
3.98801e-10
3.23973e-13
3.99328e-10
-9.17841e-11
3.99328e-10
-1.83769e-10
3.98803e-10
-2.75507e-10
3.97752e-10
-3.66876e-10
3.96178e-10
-4.57753e-10
3.94082e-10
-5.48019e-10
3.9147e-10
-6.37554e-10
3.88347e-10
-7.26241e-10
3.8472e-10
-8.13962e-10
3.80597e-10
-9.00606e-10
3.75986e-10
-9.8606e-10
3.70898e-10
-1.07022e-09
3.65343e-10
-1.15297e-09
3.59332e-10
-1.23421e-09
3.52877e-10
-1.31384e-09
3.45993e-10
-1.39177e-09
3.38692e-10
-1.46791e-09
3.30989e-10
-1.54215e-09
3.229e-10
-1.61443e-09
3.14441e-10
-1.68465e-09
3.05627e-10
-1.75274e-09
2.96477e-10
-1.81863e-09
2.87007e-10
-1.88225e-09
2.77236e-10
-1.94352e-09
2.67181e-10
-2.0024e-09
2.56861e-10
-2.05882e-09
2.46294e-10
-2.11273e-09
2.35498e-10
-2.1641e-09
2.24493e-10
-2.21286e-09
2.13297e-10
-2.25899e-09
2.01928e-10
-2.30245e-09
1.90406e-10
-2.34322e-09
1.7875e-10
-2.38126e-09
1.66977e-10
-2.41655e-09
1.55105e-10
-2.44909e-09
1.43153e-10
-2.47885e-09
1.31138e-10
-2.50582e-09
1.19077e-10
-2.53001e-09
1.06986e-10
-2.55141e-09
9.48822e-11
-2.57002e-09
8.27813e-11
-2.58585e-09
7.06989e-11
-2.59891e-09
5.86505e-11
-2.60922e-09
4.66504e-11
-2.61678e-09
3.47129e-11
-2.62162e-09
2.28522e-11
-2.62376e-09
1.10814e-11
-2.62323e-09
-5.87746e-13
-2.62004e-09
-1.21444e-11
-2.61424e-09
-2.35791e-11
-2.60586e-09
-3.48798e-11
-2.59492e-09
-4.60358e-11
-2.58147e-09
-5.70379e-11
-2.56555e-09
-6.78766e-11
-2.54719e-09
-7.85434e-11
-2.52644e-09
-8.90311e-11
-2.50333e-09
-9.93326e-11
-2.47793e-09
-1.09442e-10
-2.45027e-09
-1.19351e-10
-2.4204e-09
-1.29056e-10
-2.38837e-09
-1.3855e-10
-2.35424e-09
-1.47829e-10
-2.31805e-09
-1.56888e-10
-2.27985e-09
-1.65722e-10
-2.23969e-09
-1.7433e-10
-2.19764e-09
-1.82707e-10
-2.15374e-09
-1.90851e-10
-2.10805e-09
-1.98761e-10
-2.06061e-09
-2.06435e-10
-2.0115e-09
-2.1387e-10
-1.96076e-09
-2.21065e-10
-1.90844e-09
-2.28018e-10
-1.85461e-09
-2.34728e-10
-1.79932e-09
-2.41196e-10
-1.74262e-09
-2.4742e-10
-1.68456e-09
-2.53401e-10
-1.62522e-09
-2.59139e-10
-1.56463e-09
-2.64634e-10
-1.50285e-09
-2.69886e-10
-1.43995e-09
-2.74895e-10
-1.37597e-09
-2.79663e-10
-1.31097e-09
-2.8419e-10
-1.245e-09
-2.88477e-10
-1.17813e-09
-2.92523e-10
-1.11039e-09
-2.9633e-10
-1.04185e-09
-2.99897e-10
-9.72561e-10
-3.03225e-10
-9.02574e-10
-3.06319e-10
-8.31941e-10
-3.09176e-10
-7.60718e-10
-3.118e-10
-6.88957e-10
-3.1419e-10
-6.16711e-10
-3.16345e-10
-5.44032e-10
-3.18268e-10
-4.70971e-10
-3.19957e-10
-3.97579e-10
-3.21413e-10
-3.2391e-10
-3.22625e-10
-2.50042e-10
-3.23488e-10
-1.76217e-10
-3.23225e-10
-1.03648e-10
-3.17318e-10
-3.80285e-11
-2.85418e-10
-1.62149e-10
3.80099e-11
-2.02574e-10
1.04029e-10
-3.5265e-10
1.77225e-10
-3.89729e-10
2.51601e-10
-3.96219e-10
3.25858e-10
-3.96578e-10
3.99797e-10
-3.95769e-10
4.73398e-10
-3.94521e-10
5.46645e-10
-3.92919e-10
6.19507e-10
-3.9098e-10
6.91943e-10
-3.88719e-10
7.63902e-10
-3.86144e-10
8.35334e-10
-3.83262e-10
9.06185e-10
-3.8008e-10
9.764e-10
-3.766e-10
1.04593e-09
-3.72825e-10
1.11471e-09
-3.68755e-10
1.18269e-09
-3.64391e-10
1.24981e-09
-3.59732e-10
1.31603e-09
-3.54778e-10
1.38129e-09
-3.49529e-10
1.44553e-09
-3.43983e-10
1.50869e-09
-3.38141e-10
1.57073e-09
-3.32002e-10
1.63158e-09
-3.25565e-10
1.6912e-09
-3.18829e-10
1.74952e-09
-3.11795e-10
1.80648e-09
-3.04461e-10
1.86204e-09
-2.96828e-10
1.91614e-09
-2.88896e-10
1.96872e-09
-2.80666e-10
2.01973e-09
-2.72138e-10
2.06911e-09
-2.63313e-10
2.11681e-09
-2.54194e-10
2.16276e-09
-2.4478e-10
2.20692e-09
-2.35075e-10
2.24923e-09
-2.2508e-10
2.28964e-09
-2.14799e-10
2.32809e-09
-2.04234e-10
2.36453e-09
-1.93389e-10
2.3989e-09
-1.82268e-10
2.43117e-09
-1.70876e-10
2.46127e-09
-1.59219e-10
2.48915e-09
-1.473e-10
2.51477e-09
-1.35128e-10
2.53809e-09
-1.22709e-10
2.55904e-09
-1.10051e-10
2.5776e-09
-9.71613e-11
2.59371e-09
-8.40495e-11
2.60734e-09
-7.07249e-11
2.61845e-09
-5.71976e-11
2.627e-09
-4.34788e-11
2.63294e-09
-2.95804e-11
2.63626e-09
-1.55152e-11
2.63692e-09
-1.29648e-12
2.63489e-09
1.30629e-11
2.63014e-09
2.75489e-11
2.62265e-09
4.21465e-11
2.61241e-09
5.68399e-11
2.5994e-09
7.16125e-11
2.5836e-09
8.64472e-11
2.565e-09
1.01326e-10
2.54361e-09
1.16231e-10
2.5194e-09
1.31142e-10
2.49239e-09
1.4604e-10
2.46258e-09
1.60904e-10
2.42997e-09
1.75714e-10
2.39459e-09
1.90448e-10
2.35644e-09
2.05084e-10
2.31555e-09
2.19602e-10
2.27194e-09
2.33977e-10
2.22564e-09
2.48189e-10
2.17669e-09
2.62213e-10
2.12512e-09
2.76026e-10
2.07098e-09
2.89606e-10
2.01431e-09
3.02929e-10
1.95517e-09
3.15972e-10
1.89361e-09
3.28711e-10
1.82969e-09
3.41125e-10
1.76348e-09
3.53189e-10
1.69504e-09
3.64883e-10
1.62446e-09
3.76183e-10
1.55181e-09
3.87069e-10
1.47717e-09
3.97519e-10
1.40062e-09
4.07512e-10
1.32226e-09
4.17029e-10
1.24218e-09
4.26051e-10
1.16048e-09
4.3456e-10
1.07726e-09
4.42538e-10
9.9262e-10
4.49968e-10
9.0667e-10
4.56835e-10
8.19518e-10
4.63125e-10
7.31277e-10
4.68825e-10
6.42063e-10
4.73923e-10
5.51992e-10
4.78408e-10
4.61183e-10
4.8227e-10
3.69756e-10
4.85501e-10
2.77834e-10
4.88094e-10
1.85539e-10
4.90043e-10
9.29954e-11
4.91345e-10
3.26713e-13
4.91996e-10
-9.23425e-11
4.91997e-10
-1.84887e-10
4.91348e-10
-2.77183e-10
4.90048e-10
-3.69106e-10
4.88101e-10
-4.60534e-10
4.85509e-10
-5.51345e-10
4.8228e-10
-6.41418e-10
4.78419e-10
-7.30633e-10
4.73935e-10
-8.18875e-10
4.68839e-10
-9.06029e-10
4.63141e-10
-9.91983e-10
4.56852e-10
-1.07663e-09
4.49986e-10
-1.15985e-09
4.42558e-10
-1.24155e-09
4.34583e-10
-1.32164e-09
4.26076e-10
-1.4e-09
4.17056e-10
-1.47655e-09
4.0754e-10
-1.5512e-09
3.97548e-10
-1.62385e-09
3.87099e-10
-1.69444e-09
3.76215e-10
-1.76288e-09
3.64916e-10
-1.8291e-09
3.53223e-10
-1.89302e-09
3.4116e-10
-1.95459e-09
3.28748e-10
-2.01373e-09
3.16009e-10
-2.07041e-09
3.02968e-10
-2.12456e-09
2.89646e-10
-2.17613e-09
2.76068e-10
-2.22509e-09
2.62255e-10
-2.27139e-09
2.48233e-10
-2.31501e-09
2.34023e-10
-2.35591e-09
2.19649e-10
-2.39406e-09
2.05133e-10
-2.42946e-09
1.90498e-10
-2.46207e-09
1.75766e-10
-2.49189e-09
1.60958e-10
-2.51891e-09
1.46095e-10
-2.54312e-09
1.31199e-10
-2.56453e-09
1.16289e-10
-2.58313e-09
1.01385e-10
-2.59894e-09
8.65059e-11
-2.61196e-09
7.16713e-11
-2.6222e-09
5.68987e-11
-2.6297e-09
4.22052e-11
-2.63445e-09
2.76078e-11
-2.63649e-09
1.31225e-11
-2.63584e-09
-1.23641e-12
-2.63253e-09
-1.54545e-11
-2.62659e-09
-2.95189e-11
-2.61805e-09
-4.34162e-11
-2.60696e-09
-5.71334e-11
-2.59334e-09
-7.0659e-11
-2.57723e-09
-8.39821e-11
-2.55868e-09
-9.70924e-11
-2.53773e-09
-1.09981e-10
-2.51442e-09
-1.22639e-10
-2.48881e-09
-1.35058e-10
-2.46093e-09
-1.4723e-10
-2.43083e-09
-1.59149e-10
-2.39858e-09
-1.70807e-10
-2.3642e-09
-1.82199e-10
-2.32777e-09
-1.9332e-10
-2.28933e-09
-2.04165e-10
-2.24893e-09
-2.1473e-10
-2.20662e-09
-2.25011e-10
-2.16247e-09
-2.35006e-10
-2.11652e-09
-2.44711e-10
-2.06883e-09
-2.54125e-10
-2.01945e-09
-2.63244e-10
-1.96845e-09
-2.72068e-10
-1.91587e-09
-2.80595e-10
-1.86177e-09
-2.88823e-10
-1.80621e-09
-2.96754e-10
-1.74925e-09
-3.04387e-10
-1.69093e-09