/*--------------------------------*- C++ -*----------------------------------*\
| =========                 |                                                 |
| \\      /  F ield         | OpenFOAM: The Open Source CFD Toolbox           |
|  \\    /   O peration     | Version:  2412                                  |
|   \\  /    A nd           | Website:  www.openfoam.com                      |
|    \\/     M anipulation  |                                                 |
\*---------------------------------------------------------------------------*/
FoamFile
{
    version     2.0;
    format      ascii;
    arch        "LSB;label=32;scalar=64";
    class       volScalarField;
    location    "1.22";
    object      p;
}
// * * * * * * * * * * * * * * * * * * * * * * * * * * * * * * * * * * * * * //

dimensions      [1 -1 -2 0 0 0 0];

internalField   nonuniform List<scalar> 
40000
(
0
7.12523e-05
8.46859e-05
4.23344e-05
-5.58359e-05
-0.000213147
-0.000430355
-0.000705375
-0.00103639
-0.00142324
-0.00186632
-0.00236546
-0.00291975
-0.00352812
-0.00418968
-0.00490371
-0.0056695
-0.00648618
-0.00735273
-0.00826808
-0.00923111
-0.0102407
-0.0112955
-0.0123946
-0.0135364
-0.0147197
-0.015943
-0.0172049
-0.0185038
-0.0198383
-0.0212068
-0.0226078
-0.0240396
-0.0255005
-0.0269888
-0.0285026
-0.0300403
-0.0316002
-0.0331804
-0.0347793
-0.0363948
-0.0380251
-0.0396683
-0.0413224
-0.0429858
-0.0446565
-0.0463327
-0.0480124
-0.0496938
-0.051375
-0.053054
-0.0547291
-0.0563985
-0.0580604
-0.0597129
-0.0613545
-0.0629834
-0.0645978
-0.0661962
-0.0677768
-0.0693381
-0.0708785
-0.0723963
-0.0738904
-0.0753592
-0.0768014
-0.0782158
-0.0796009
-0.0809555
-0.0822783
-0.0835684
-0.0848246
-0.0860458
-0.0872312
-0.0883797
-0.0894905
-0.0905626
-0.0915953
-0.0925879
-0.0935398
-0.0944501
-0.0953184
-0.096144
-0.0969265
-0.0976653
-0.0983601
-0.0990102
-0.0996156
-0.100176
-0.10069
-0.10116
-0.101583
-0.101959
-0.10229
-0.102573
-0.10281
-0.103
-0.103143
-0.103239
-0.103289
-0.103291
-0.103246
-0.103154
-0.103015
-0.102829
-0.102596
-0.102316
-0.10199
-0.101617
-0.101199
-0.100734
-0.100223
-0.099667
-0.0990656
-0.0984193
-0.0977285
-0.0969936
-0.096215
-0.0953932
-0.0945288
-0.0936222
-0.0926742
-0.0916852
-0.0906561
-0.0895876
-0.0884805
-0.0873356
-0.0861538
-0.084936
-0.0836832
-0.0823966
-0.081077
-0.0797256
-0.0783438
-0.0769326
-0.0754934
-0.0740275
-0.0725363
-0.0710211
-0.0694835
-0.067925
-0.0663471
-0.0647513
-0.0631394
-0.0615132
-0.059874
-0.0582238
-0.0565643
-0.0548971
-0.0532243
-0.0515474
-0.0498685
-0.0481894
-0.046512
-0.0448379
-0.0431692
-0.0415078
-0.0398555
-0.0382142
-0.0365857
-0.0349721
-0.0333751
-0.0317964
-0.030238
-0.0287017
-0.0271892
-0.0257023
-0.0242429
-0.0228126
-0.0214131
-0.0200459
-0.0187126
-0.017415
-0.0161543
-0.0149322
-0.0137501
-0.0126095
-0.0115116
-0.0104577
-0.00944919
-0.00848704
-0.00757242
-0.0067066
-0.0058906
-0.00512526
-0.00441168
-0.00375056
-0.0031427
-0.00258897
-0.00208988
-0.00164611
-0.00125833
-0.000927037
-0.00065233
-0.000434759
-0.000274579
-0.000171978
-0.000127506
-0.000141338
-0.000214491
-3.92407
-3.924
-3.92398
-3.92402
-3.92412
-3.92428
-3.9245
-3.92477
-3.9251
-3.92549
-3.92593
-3.92643
-3.92698
-3.92759
-3.92825
-3.92897
-3.92973
-3.93055
-3.93141
-3.93233
-3.93329
-3.9343
-3.93535
-3.93645
-3.93759
-3.93878
-3.94
-3.94126
-3.94256
-3.94389
-3.94526
-3.94666
-3.94809
-3.94955
-3.95104
-3.95255
-3.95408
-3.95564
-3.95722
-3.95882
-3.96043
-3.96206
-3.9637
-3.96535
-3.96702
-3.96868
-3.97036
-3.97204
-3.97372
-3.97539
-3.97707
-3.97874
-3.98041
-3.98207
-3.98372
-3.98536
-3.98699
-3.9886
-3.99019
-3.99177
-3.99333
-3.99487
-3.99638
-3.99787
-3.99934
-4.00078
-4.00219
-4.00357
-4.00492
-4.00624
-4.00753
-4.00878
-4.01
-4.01118
-4.01233
-4.01344
-4.0145
-4.01553
-4.01652
-4.01747
-4.01838
-4.01925
-4.02007
-4.02085
-4.02159
-4.02228
-4.02293
-4.02353
-4.02409
-4.0246
-4.02507
-4.02549
-4.02587
-4.0262
-4.02648
-4.02671
-4.0269
-4.02705
-4.02714
-4.02719
-4.02719
-4.02715
-4.02706
-4.02692
-4.02673
-4.0265
-4.02622
-4.0259
-4.02553
-4.02511
-4.02464
-4.02414
-4.02358
-4.02298
-4.02234
-4.02165
-4.02092
-4.02014
-4.01932
-4.01846
-4.01756
-4.01661
-4.01562
-4.0146
-4.01353
-4.01243
-4.01129
-4.01011
-4.00889
-4.00764
-4.00636
-4.00504
-4.00369
-4.00232
-4.00091
-3.99947
-3.99801
-3.99652
-3.99501
-3.99347
-3.99192
-3.99034
-3.98875
-3.98714
-3.98552
-3.98388
-3.98223
-3.98058
-3.97891
-3.97724
-3.97557
-3.97389
-3.97221
-3.97054
-3.96887
-3.9672
-3.96554
-3.96389
-3.96225
-3.96062
-3.95901
-3.95742
-3.95584
-3.95428
-3.95275
-3.95124
-3.94975
-3.94829
-3.94686
-3.94546
-3.9441
-3.94277
-3.94147
-3.94021
-3.93899
-3.93781
-3.93667
-3.93557
-3.93452
-3.93351
-3.93255
-3.93163
-3.93077
-3.92995
-3.92919
-3.92848
-3.92781
-3.92721
-3.92665
-3.92616
-3.92571
-3.92532
-3.92499
-3.92472
-3.9245
-3.92434
-3.92424
-3.92419
-3.92421
-3.92428
-7.84809
-7.84801
-7.848
-7.84804
-7.84814
-7.8483
-7.84852
-7.84879
-7.84912
-7.84951
-7.84995
-7.85045
-7.85101
-7.85161
-7.85227
-7.85299
-7.85375
-7.85457
-7.85544
-7.85635
-7.85731
-7.85832
-7.85938
-7.86048
-7.86162
-7.8628
-7.86402
-7.86528
-7.86658
-7.86792
-7.86928
-7.87068
-7.87211
-7.87357
-7.87506
-7.87657
-7.87811
-7.87967
-7.88125
-7.88285
-7.88446
-7.88609
-7.88773
-7.88938
-7.89104
-7.89271
-7.89438
-7.89606
-7.89774
-7.89942
-7.90109
-7.90277
-7.90443
-7.90609
-7.90774
-7.90938
-7.911
-7.91261
-7.91421
-7.91578
-7.91734
-7.91888
-7.92039
-7.92188
-7.92334
-7.92478
-7.92619
-7.92757
-7.92892
-7.93024
-7.93152
-7.93278
-7.93399
-7.93517
-7.93632
-7.93742
-7.93849
-7.93952
-7.94051
-7.94145
-7.94236
-7.94322
-7.94404
-7.94482
-7.94556
-7.94625
-7.94689
-7.9475
-7.94805
-7.94857
-7.94903
-7.94945
-7.94983
-7.95016
-7.95044
-7.95067
-7.95086
-7.951
-7.9511
-7.95115
-7.95115
-7.95111
-7.95101
-7.95088
-7.95069
-7.95046
-7.95018
-7.94986
-7.94949
-7.94907
-7.94861
-7.9481
-7.94755
-7.94695
-7.94631
-7.94562
-7.94489
-7.94411
-7.9433
-7.94244
-7.94154
-7.94059
-7.93961
-7.93858
-7.93752
-7.93642
-7.93528
-7.9341
-7.93289
-7.93164
-7.93036
-7.92904
-7.9277
-7.92632
-7.92491
-7.92348
-7.92202
-7.92053
-7.91902
-7.91749
-7.91593
-7.91436
-7.91277
-7.91116
-7.90954
-7.9079
-7.90625
-7.9046
-7.90293
-7.90126
-7.89959
-7.89791
-7.89624
-7.89456
-7.89289
-7.89122
-7.88957
-7.88792
-7.88628
-7.88465
-7.88304
-7.88144
-7.87987
-7.87831
-7.87677
-7.87526
-7.87378
-7.87232
-7.87089
-7.86949
-7.86812
-7.86679
-7.86549
-7.86423
-7.86301
-7.86183
-7.86069
-7.85959
-7.85854
-7.85753
-7.85657
-7.85566
-7.85479
-7.85398
-7.85321
-7.8525
-7.85184
-7.85123
-7.85067
-7.85018
-7.84973
-7.84934
-7.84901
-7.84874
-7.84852
-7.84836
-7.84826
-7.84821
-7.84823
-7.8483
-11.7721
-11.772
-11.772
-11.772
-11.7721
-11.7723
-11.7725
-11.7728
-11.7731
-11.7735
-11.7739
-11.7744
-11.775
-11.7756
-11.7762
-11.777
-11.7777
-11.7785
-11.7794
-11.7803
-11.7813
-11.7823
-11.7834
-11.7845
-11.7856
-11.7868
-11.788
-11.7893
-11.7906
-11.7919
-11.7933
-11.7947
-11.7961
-11.7976
-11.7991
-11.8006
-11.8021
-11.8037
-11.8053
-11.8069
-11.8085
-11.8101
-11.8117
-11.8134
-11.8151
-11.8167
-11.8184
-11.8201
-11.8218
-11.8234
-11.8251
-11.8268
-11.8285
-11.8301
-11.8318
-11.8334
-11.835
-11.8366
-11.8382
-11.8398
-11.8414
-11.8429
-11.8444
-11.8459
-11.8474
-11.8488
-11.8502
-11.8516
-11.853
-11.8543
-11.8556
-11.8568
-11.858
-11.8592
-11.8604
-11.8615
-11.8625
-11.8636
-11.8645
-11.8655
-11.8664
-11.8673
-11.8681
-11.8689
-11.8696
-11.8703
-11.8709
-11.8715
-11.8721
-11.8726
-11.8731
-11.8735
-11.8739
-11.8742
-11.8745
-11.8747
-11.8749
-11.875
-11.8751
-11.8752
-11.8752
-11.8751
-11.875
-11.8749
-11.8747
-11.8745
-11.8742
-11.8739
-11.8735
-11.8731
-11.8726
-11.8721
-11.8716
-11.871
-11.8703
-11.8696
-11.8689
-11.8681
-11.8673
-11.8665
-11.8656
-11.8646
-11.8636
-11.8626
-11.8616
-11.8605
-11.8593
-11.8581
-11.8569
-11.8557
-11.8544
-11.8531
-11.8517
-11.8504
-11.8489
-11.8475
-11.8461
-11.8446
-11.8431
-11.8415
-11.84
-11.8384
-11.8368
-11.8352
-11.8336
-11.8319
-11.8303
-11.8286
-11.827
-11.8253
-11.8236
-11.8219
-11.8203
-11.8186
-11.8169
-11.8152
-11.8136
-11.8119
-11.8103
-11.8087
-11.807
-11.8055
-11.8039
-11.8023
-11.8008
-11.7993
-11.7978
-11.7963
-11.7949
-11.7935
-11.7921
-11.7908
-11.7895
-11.7882
-11.787
-11.7858
-11.7847
-11.7836
-11.7825
-11.7815
-11.7805
-11.7796
-11.7788
-11.778
-11.7772
-11.7765
-11.7758
-11.7752
-11.7746
-11.7741
-11.7737
-11.7733
-11.773
-11.7727
-11.7725
-11.7723
-11.7722
-11.7722
-11.7722
-11.7723
-15.696
-15.6959
-15.6959
-15.6959
-15.696
-15.6962
-15.6964
-15.6967
-15.697
-15.6974
-15.6978
-15.6983
-15.6989
-15.6995
-15.7002
-15.7009
-15.7017
-15.7025
-15.7034
-15.7043
-15.7052
-15.7062
-15.7073
-15.7084
-15.7096
-15.7107
-15.712
-15.7132
-15.7145
-15.7159
-15.7172
-15.7187
-15.7201
-15.7216
-15.723
-15.7246
-15.7261
-15.7277
-15.7292
-15.7309
-15.7325
-15.7341
-15.7357
-15.7374
-15.7391
-15.7407
-15.7424
-15.7441
-15.7458
-15.7475
-15.7492
-15.7508
-15.7525
-15.7542
-15.7558
-15.7575
-15.7591
-15.7607
-15.7623
-15.7639
-15.7654
-15.767
-15.7685
-15.77
-15.7714
-15.7729
-15.7743
-15.7757
-15.777
-15.7783
-15.7796
-15.7809
-15.7821
-15.7833
-15.7844
-15.7855
-15.7866
-15.7876
-15.7886
-15.7896
-15.7905
-15.7913
-15.7922
-15.7929
-15.7937
-15.7944
-15.795
-15.7956
-15.7962
-15.7967
-15.7971
-15.7976
-15.7979
-15.7983
-15.7985
-15.7988
-15.799
-15.7991
-15.7992
-15.7993
-15.7993
-15.7992
-15.7991
-15.799
-15.7988
-15.7986
-15.7983
-15.798
-15.7976
-15.7972
-15.7967
-15.7962
-15.7957
-15.7951
-15.7944
-15.7937
-15.793
-15.7922
-15.7914
-15.7906
-15.7896
-15.7887
-15.7877
-15.7867
-15.7856
-15.7845
-15.7834
-15.7822
-15.781
-15.7797
-15.7785
-15.7772
-15.7758
-15.7744
-15.773
-15.7716
-15.7701
-15.7686
-15.7671
-15.7656
-15.764
-15.7624
-15.7609
-15.7592
-15.7576
-15.756
-15.7543
-15.7527
-15.751
-15.7493
-15.7476
-15.746
-15.7443
-15.7426
-15.7409
-15.7393
-15.7376
-15.7359
-15.7343
-15.7327
-15.731
-15.7294
-15.7279
-15.7263
-15.7248
-15.7232
-15.7218
-15.7203
-15.7189
-15.7175
-15.7161
-15.7147
-15.7134
-15.7122
-15.711
-15.7098
-15.7086
-15.7075
-15.7065
-15.7055
-15.7045
-15.7036
-15.7027
-15.7019
-15.7011
-15.7004
-15.6997
-15.6991
-15.6986
-15.6981
-15.6976
-15.6972
-15.6969
-15.6966
-15.6964
-15.6962
-15.6961
-15.6961
-15.6961
-15.6962
-19.6198
-19.6198
-19.6197
-19.6198
-19.6199
-19.6201
-19.6203
-19.6206
-19.6209
-19.6213
-19.6217
-19.6222
-19.6228
-19.6234
-19.6241
-19.6248
-19.6255
-19.6264
-19.6272
-19.6282
-19.6291
-19.6302
-19.6312
-19.6323
-19.6335
-19.6347
-19.6359
-19.6372
-19.6385
-19.6398
-19.6412
-19.6426
-19.644
-19.6455
-19.647
-19.6485
-19.6501
-19.6516
-19.6532
-19.6548
-19.6565
-19.6581
-19.6597
-19.6614
-19.6631
-19.6648
-19.6664
-19.6681
-19.6698
-19.6715
-19.6732
-19.6749
-19.6765
-19.6782
-19.6799
-19.6815
-19.6831
-19.6848
-19.6864
-19.6879
-19.6895
-19.6911
-19.6926
-19.6941
-19.6955
-19.697
-19.6984
-19.6998
-19.7011
-19.7025
-19.7037
-19.705
-19.7062
-19.7074
-19.7085
-19.7097
-19.7107
-19.7118
-19.7127
-19.7137
-19.7146
-19.7155
-19.7163
-19.7171
-19.7178
-19.7185
-19.7191
-19.7197
-19.7203
-19.7208
-19.7213
-19.7217
-19.7221
-19.7224
-19.7227
-19.7229
-19.7231
-19.7233
-19.7234
-19.7234
-19.7234
-19.7234
-19.7233
-19.7231
-19.7229
-19.7227
-19.7224
-19.7221
-19.7217
-19.7213
-19.7209
-19.7204
-19.7198
-19.7192
-19.7186
-19.7179
-19.7171
-19.7164
-19.7155
-19.7147
-19.7138
-19.7128
-19.7118
-19.7108
-19.7098
-19.7087
-19.7075
-19.7063
-19.7051
-19.7039
-19.7026
-19.7013
-19.6999
-19.6985
-19.6971
-19.6957
-19.6942
-19.6927
-19.6912
-19.6897
-19.6881
-19.6865
-19.6849
-19.6833
-19.6817
-19.68
-19.6784
-19.6767
-19.675
-19.6734
-19.6717
-19.67
-19.6683
-19.6666
-19.6649
-19.6633
-19.6616
-19.6599
-19.6583
-19.6566
-19.655
-19.6534
-19.6518
-19.6503
-19.6487
-19.6472
-19.6457
-19.6442
-19.6428
-19.6414
-19.64
-19.6387
-19.6374
-19.6361
-19.6349
-19.6337
-19.6325
-19.6314
-19.6304
-19.6294
-19.6284
-19.6275
-19.6266
-19.6258
-19.625
-19.6243
-19.6236
-19.623
-19.6224
-19.6219
-19.6215
-19.6211
-19.6208
-19.6205
-19.6203
-19.6201
-19.62
-19.62
-19.62
-19.6201
-23.5437
-23.5436
-23.5436
-23.5436
-23.5437
-23.5439
-23.5441
-23.5444
-23.5447
-23.5451
-23.5455
-23.5461
-23.5466
-23.5472
-23.5479
-23.5486
-23.5494
-23.5502
-23.5511
-23.552
-23.553
-23.554
-23.5551
-23.5562
-23.5573
-23.5585
-23.5598
-23.5611
-23.5624
-23.5637
-23.5651
-23.5665
-23.568
-23.5694
-23.5709
-23.5725
-23.574
-23.5756
-23.5772
-23.5788
-23.5804
-23.5821
-23.5837
-23.5854
-23.5871
-23.5888
-23.5905
-23.5921
-23.5938
-23.5955
-23.5972
-23.5989
-23.6006
-23.6023
-23.6039
-23.6056
-23.6072
-23.6088
-23.6105
-23.612
-23.6136
-23.6152
-23.6167
-23.6182
-23.6197
-23.6211
-23.6225
-23.6239
-23.6253
-23.6266
-23.6279
-23.6292
-23.6304
-23.6316
-23.6327
-23.6338
-23.6349
-23.6359
-23.6369
-23.6379
-23.6388
-23.6397
-23.6405
-23.6413
-23.642
-23.6427
-23.6433
-23.6439
-23.6445
-23.645
-23.6455
-23.6459
-23.6463
-23.6466
-23.6469
-23.6471
-23.6473
-23.6475
-23.6476
-23.6476
-23.6476
-23.6476
-23.6475
-23.6473
-23.6471
-23.6469
-23.6466
-23.6463
-23.6459
-23.6455
-23.6451
-23.6445
-23.644
-23.6434
-23.6427
-23.6421
-23.6413
-23.6405
-23.6397
-23.6389
-23.638
-23.637
-23.636
-23.635
-23.6339
-23.6328
-23.6317
-23.6305
-23.6293
-23.628
-23.6267
-23.6254
-23.624
-23.6227
-23.6212
-23.6198
-23.6183
-23.6168
-23.6153
-23.6138
-23.6122
-23.6106
-23.609
-23.6074
-23.6057
-23.6041
-23.6024
-23.6008
-23.5991
-23.5974
-23.5957
-23.594
-23.5923
-23.5906
-23.5889
-23.5873
-23.5856
-23.5839
-23.5823
-23.5806
-23.579
-23.5774
-23.5758
-23.5742
-23.5727
-23.5711
-23.5696
-23.5682
-23.5667
-23.5653
-23.5639
-23.5626
-23.5613
-23.56
-23.5588
-23.5576
-23.5564
-23.5553
-23.5542
-23.5532
-23.5522
-23.5513
-23.5504
-23.5496
-23.5488
-23.5481
-23.5475
-23.5468
-23.5463
-23.5458
-23.5453
-23.5449
-23.5446
-23.5443
-23.5441
-23.5439
-23.5438
-23.5438
-23.5438
-23.5439
-27.4674
-27.4674
-27.4673
-27.4674
-27.4675
-27.4676
-27.4679
-27.4681
-27.4685
-27.4689
-27.4693
-27.4698
-27.4704
-27.471
-27.4717
-27.4724
-27.4732
-27.474
-27.4749
-27.4758
-27.4768
-27.4778
-27.4789
-27.48
-27.4812
-27.4824
-27.4836
-27.4849
-27.4862
-27.4876
-27.489
-27.4904
-27.4919
-27.4933
-27.4948
-27.4964
-27.4979
-27.4995
-27.5011
-27.5028
-27.5044
-27.506
-27.5077
-27.5094
-27.5111
-27.5128
-27.5145
-27.5162
-27.5179
-27.5196
-27.5213
-27.523
-27.5247
-27.5263
-27.528
-27.5297
-27.5313
-27.5329
-27.5346
-27.5362
-27.5377
-27.5393
-27.5408
-27.5423
-27.5438
-27.5453
-27.5467
-27.5481
-27.5495
-27.5508
-27.5521
-27.5533
-27.5546
-27.5558
-27.5569
-27.558
-27.5591
-27.5602
-27.5611
-27.5621
-27.563
-27.5639
-27.5647
-27.5655
-27.5662
-27.5669
-27.5676
-27.5682
-27.5688
-27.5693
-27.5697
-27.5702
-27.5705
-27.5709
-27.5712
-27.5714
-27.5716
-27.5717
-27.5718
-27.5719
-27.5719
-27.5718
-27.5717
-27.5716
-27.5714
-27.5712
-27.5709
-27.5706
-27.5702
-27.5698
-27.5693
-27.5688
-27.5682
-27.5676
-27.567
-27.5663
-27.5656
-27.5648
-27.564
-27.5631
-27.5622
-27.5612
-27.5602
-27.5592
-27.5581
-27.557
-27.5559
-27.5547
-27.5535
-27.5522
-27.5509
-27.5496
-27.5482
-27.5468
-27.5454
-27.5439
-27.5425
-27.541
-27.5394
-27.5379
-27.5363
-27.5347
-27.5331
-27.5315
-27.5298
-27.5282
-27.5265
-27.5248
-27.5231
-27.5214
-27.5197
-27.518
-27.5163
-27.5146
-27.5129
-27.5113
-27.5096
-27.5079
-27.5062
-27.5046
-27.5029
-27.5013
-27.4997
-27.4981
-27.4966
-27.4951
-27.4935
-27.4921
-27.4906
-27.4892
-27.4878
-27.4864
-27.4851
-27.4838
-27.4826
-27.4814
-27.4802
-27.4791
-27.4781
-27.477
-27.4761
-27.4751
-27.4742
-27.4734
-27.4726
-27.4719
-27.4712
-27.4706
-27.4701
-27.4696
-27.4691
-27.4687
-27.4684
-27.4681
-27.4679
-27.4677
-27.4676
-27.4676
-27.4676
-27.4677
-31.3911
-31.3911
-31.3911
-31.3911
-31.3912
-31.3914
-31.3916
-31.3919
-31.3922
-31.3926
-31.3931
-31.3936
-31.3941
-31.3948
-31.3954
-31.3962
-31.397
-31.3978
-31.3987
-31.3996
-31.4006
-31.4016
-31.4027
-31.4038
-31.405
-31.4062
-31.4075
-31.4087
-31.4101
-31.4114
-31.4128
-31.4143
-31.4157
-31.4172
-31.4187
-31.4203
-31.4219
-31.4234
-31.4251
-31.4267
-31.4283
-31.43
-31.4317
-31.4334
-31.4351
-31.4368
-31.4385
-31.4402
-31.4419
-31.4436
-31.4453
-31.447
-31.4487
-31.4504
-31.4521
-31.4538
-31.4554
-31.4571
-31.4587
-31.4603
-31.4619
-31.4634
-31.465
-31.4665
-31.468
-31.4695
-31.4709
-31.4723
-31.4737
-31.475
-31.4763
-31.4776
-31.4788
-31.48
-31.4812
-31.4823
-31.4834
-31.4844
-31.4854
-31.4864
-31.4873
-31.4882
-31.489
-31.4898
-31.4905
-31.4912
-31.4919
-31.4925
-31.4931
-31.4936
-31.4941
-31.4945
-31.4949
-31.4952
-31.4955
-31.4957
-31.4959
-31.4961
-31.4961
-31.4962
-31.4962
-31.4962
-31.4961
-31.4959
-31.4957
-31.4955
-31.4952
-31.4949
-31.4945
-31.4941
-31.4936
-31.4931
-31.4926
-31.492
-31.4913
-31.4906
-31.4899
-31.4891
-31.4883
-31.4874
-31.4865
-31.4855
-31.4845
-31.4835
-31.4824
-31.4813
-31.4801
-31.4789
-31.4777
-31.4764
-31.4751
-31.4738
-31.4724
-31.471
-31.4696
-31.4681
-31.4666
-31.4651
-31.4636
-31.462
-31.4604
-31.4588
-31.4572
-31.4556
-31.4539
-31.4523
-31.4506
-31.4489
-31.4472
-31.4455
-31.4438
-31.4421
-31.4404
-31.4387
-31.4369
-31.4352
-31.4336
-31.4319
-31.4302
-31.4285
-31.4269
-31.4253
-31.4236
-31.4221
-31.4205
-31.4189
-31.4174
-31.4159
-31.4145
-31.413
-31.4116
-31.4103
-31.409
-31.4077
-31.4064
-31.4052
-31.404
-31.4029
-31.4018
-31.4008
-31.3998
-31.3989
-31.398
-31.3972
-31.3964
-31.3957
-31.395
-31.3944
-31.3938
-31.3933
-31.3928
-31.3924
-31.3921
-31.3918
-31.3916
-31.3914
-31.3913
-31.3913
-31.3913
-31.3914
-35.3148
-35.3147
-35.3147
-35.3148
-35.3149
-35.315
-35.3153
-35.3156
-35.3159
-35.3163
-35.3168
-35.3173
-35.3178
-35.3185
-35.3191
-35.3199
-35.3207
-35.3215
-35.3224
-35.3233
-35.3243
-35.3254
-35.3265
-35.3276
-35.3288
-35.33
-35.3312
-35.3325
-35.3339
-35.3353
-35.3367
-35.3381
-35.3396
-35.3411
-35.3426
-35.3442
-35.3457
-35.3473
-35.349
-35.3506
-35.3523
-35.354
-35.3556
-35.3573
-35.359
-35.3608
-35.3625
-35.3642
-35.3659
-35.3677
-35.3694
-35.3711
-35.3728
-35.3745
-35.3762
-35.3779
-35.3796
-35.3812
-35.3828
-35.3845
-35.3861
-35.3876
-35.3892
-35.3907
-35.3922
-35.3937
-35.3951
-35.3965
-35.3979
-35.3993
-35.4006
-35.4019
-35.4031
-35.4043
-35.4055
-35.4066
-35.4077
-35.4087
-35.4097
-35.4107
-35.4116
-35.4125
-35.4134
-35.4141
-35.4149
-35.4156
-35.4163
-35.4169
-35.4174
-35.418
-35.4184
-35.4189
-35.4192
-35.4196
-35.4199
-35.4201
-35.4203
-35.4204
-35.4205
-35.4206
-35.4206
-35.4205
-35.4205
-35.4203
-35.4201
-35.4199
-35.4196
-35.4193
-35.4189
-35.4185
-35.418
-35.4175
-35.4169
-35.4163
-35.4157
-35.415
-35.4142
-35.4134
-35.4126
-35.4117
-35.4108
-35.4098
-35.4088
-35.4078
-35.4067
-35.4056
-35.4044
-35.4032
-35.402
-35.4007
-35.3994
-35.398
-35.3967
-35.3952
-35.3938
-35.3923
-35.3908
-35.3893
-35.3878
-35.3862
-35.3846
-35.383
-35.3814
-35.3797
-35.378
-35.3764
-35.3747
-35.373
-35.3713
-35.3695
-35.3678
-35.3661
-35.3644
-35.3627
-35.3609
-35.3592
-35.3575
-35.3558
-35.3541
-35.3525
-35.3508
-35.3492
-35.3475
-35.3459
-35.3444
-35.3428
-35.3413
-35.3398
-35.3383
-35.3369
-35.3355
-35.3341
-35.3328
-35.3315
-35.3302
-35.329
-35.3278
-35.3267
-35.3256
-35.3246
-35.3236
-35.3226
-35.3217
-35.3209
-35.3201
-35.3194
-35.3187
-35.3181
-35.3175
-35.317
-35.3165
-35.3161
-35.3158
-35.3155
-35.3153
-35.3151
-35.315
-35.315
-35.315
-35.315
-39.2384
-39.2384
-39.2383
-39.2384
-39.2385
-39.2387
-39.2389
-39.2392
-39.2395
-39.2399
-39.2404
-39.2409
-39.2415
-39.2421
-39.2428
-39.2435
-39.2443
-39.2452
-39.2461
-39.247
-39.248
-39.2491
-39.2502
-39.2513
-39.2525
-39.2537
-39.255
-39.2563
-39.2577
-39.259
-39.2605
-39.2619
-39.2634
-39.2649
-39.2665
-39.268
-39.2696
-39.2712
-39.2729
-39.2745
-39.2762
-39.2779
-39.2796
-39.2813
-39.283
-39.2848
-39.2865
-39.2882
-39.29
-39.2917
-39.2934
-39.2952
-39.2969
-39.2986
-39.3003
-39.302
-39.3037
-39.3054
-39.307
-39.3086
-39.3102
-39.3118
-39.3134
-39.3149
-39.3164
-39.3179
-39.3194
-39.3208
-39.3222
-39.3236
-39.3249
-39.3262
-39.3274
-39.3286
-39.3298
-39.331
-39.332
-39.3331
-39.3341
-39.3351
-39.336
-39.3369
-39.3378
-39.3386
-39.3393
-39.34
-39.3407
-39.3413
-39.3419
-39.3424
-39.3429
-39.3433
-39.3437
-39.344
-39.3443
-39.3446
-39.3447
-39.3449
-39.345
-39.345
-39.345
-39.345
-39.3449
-39.3448
-39.3446
-39.3443
-39.3441
-39.3437
-39.3433
-39.3429
-39.3424
-39.3419
-39.3414
-39.3407
-39.3401
-39.3394
-39.3386
-39.3378
-39.337
-39.3361
-39.3352
-39.3342
-39.3332
-39.3321
-39.3311
-39.3299
-39.3287
-39.3275
-39.3263
-39.325
-39.3237
-39.3223
-39.3209
-39.3195
-39.3181
-39.3166
-39.3151
-39.3135
-39.312
-39.3104
-39.3088
-39.3072
-39.3055
-39.3039
-39.3022
-39.3005
-39.2988
-39.2971
-39.2953
-39.2936
-39.2919
-39.2901
-39.2884
-39.2867
-39.2849
-39.2832
-39.2815
-39.2798
-39.2781
-39.2764
-39.2747
-39.2731
-39.2714
-39.2698
-39.2682
-39.2667
-39.2651
-39.2636
-39.2621
-39.2607
-39.2592
-39.2579
-39.2565
-39.2552
-39.2539
-39.2527
-39.2515
-39.2504
-39.2493
-39.2483
-39.2473
-39.2463
-39.2454
-39.2446
-39.2438
-39.243
-39.2423
-39.2417
-39.2411
-39.2406
-39.2402
-39.2398
-39.2394
-39.2391
-39.2389
-39.2387
-39.2386
-39.2386
-39.2386
-39.2387
-43.162
-43.1619
-43.1619
-43.162
-43.1621
-43.1622
-43.1625
-43.1628
-43.1631
-43.1635
-43.164
-43.1645
-43.1651
-43.1657
-43.1664
-43.1672
-43.168
-43.1688
-43.1697
-43.1707
-43.1717
-43.1727
-43.1739
-43.175
-43.1762
-43.1774
-43.1787
-43.18
-43.1814
-43.1828
-43.1842
-43.1857
-43.1872
-43.1887
-43.1903
-43.1919
-43.1935
-43.1951
-43.1968
-43.1984
-43.2001
-43.2018
-43.2035
-43.2053
-43.207
-43.2087
-43.2105
-43.2122
-43.214
-43.2158
-43.2175
-43.2193
-43.221
-43.2227
-43.2244
-43.2262
-43.2279
-43.2295
-43.2312
-43.2328
-43.2345
-43.2361
-43.2376
-43.2392
-43.2407
-43.2422
-43.2437
-43.2451
-43.2465
-43.2479
-43.2492
-43.2505
-43.2518
-43.253
-43.2542
-43.2553
-43.2565
-43.2575
-43.2585
-43.2595
-43.2605
-43.2614
-43.2622
-43.263
-43.2638
-43.2645
-43.2652
-43.2658
-43.2664
-43.2669
-43.2674
-43.2678
-43.2682
-43.2685
-43.2688
-43.2691
-43.2693
-43.2694
-43.2695
-43.2696
-43.2696
-43.2695
-43.2694
-43.2693
-43.2691
-43.2688
-43.2686
-43.2682
-43.2678
-43.2674
-43.2669
-43.2664
-43.2658
-43.2652
-43.2646
-43.2638
-43.2631
-43.2623
-43.2614
-43.2605
-43.2596
-43.2586
-43.2576
-43.2566
-43.2554
-43.2543
-43.2531
-43.2519
-43.2506
-43.2493
-43.248
-43.2466
-43.2452
-43.2438
-43.2423
-43.2409
-43.2393
-43.2378
-43.2362
-43.2346
-43.233
-43.2313
-43.2297
-43.228
-43.2263
-43.2246
-43.2229
-43.2212
-43.2194
-43.2177
-43.2159
-43.2142
-43.2124
-43.2107
-43.2089
-43.2072
-43.2054
-43.2037
-43.202
-43.2003
-43.1986
-43.1969
-43.1953
-43.1937
-43.1921
-43.1905
-43.1889
-43.1874
-43.1859
-43.1844
-43.183
-43.1816
-43.1803
-43.1789
-43.1777
-43.1764
-43.1752
-43.1741
-43.173
-43.1719
-43.1709
-43.1699
-43.169
-43.1682
-43.1674
-43.1666
-43.1659
-43.1653
-43.1647
-43.1642
-43.1637
-43.1633
-43.163
-43.1627
-43.1625
-43.1623
-43.1622
-43.1621
-43.1622
-43.1622
-47.0855
-47.0855
-47.0854
-47.0855
-47.0856
-47.0858
-47.086
-47.0863
-47.0866
-47.087
-47.0875
-47.088
-47.0886
-47.0893
-47.09
-47.0907
-47.0915
-47.0924
-47.0933
-47.0943
-47.0953
-47.0964
-47.0975
-47.0987
-47.0999
-47.1011
-47.1024
-47.1037
-47.1051
-47.1065
-47.108
-47.1094
-47.111
-47.1125
-47.1141
-47.1157
-47.1173
-47.1189
-47.1206
-47.1223
-47.124
-47.1257
-47.1275
-47.1292
-47.131
-47.1327
-47.1345
-47.1363
-47.138
-47.1398
-47.1416
-47.1433
-47.1451
-47.1468
-47.1486
-47.1503
-47.152
-47.1537
-47.1554
-47.1571
-47.1587
-47.1603
-47.1619
-47.1635
-47.165
-47.1665
-47.168
-47.1695
-47.1709
-47.1723
-47.1736
-47.1749
-47.1762
-47.1774
-47.1786
-47.1798
-47.1809
-47.182
-47.183
-47.184
-47.185
-47.1859
-47.1867
-47.1875
-47.1883
-47.189
-47.1897
-47.1903
-47.1909
-47.1914
-47.1919
-47.1924
-47.1928
-47.1931
-47.1934
-47.1936
-47.1938
-47.194
-47.1941
-47.1941
-47.1941
-47.1941
-47.194
-47.1939
-47.1937
-47.1934
-47.1931
-47.1928
-47.1924
-47.192
-47.1915
-47.191
-47.1904
-47.1898
-47.1891
-47.1884
-47.1876
-47.1868
-47.1859
-47.185
-47.1841
-47.1831
-47.1821
-47.181
-47.1799
-47.1787
-47.1775
-47.1763
-47.175
-47.1737
-47.1724
-47.171
-47.1696
-47.1681
-47.1667
-47.1652
-47.1636
-47.1621
-47.1605
-47.1589
-47.1572
-47.1556
-47.1539
-47.1522
-47.1505
-47.1488
-47.147
-47.1453
-47.1435
-47.1418
-47.14
-47.1382
-47.1364
-47.1347
-47.1329
-47.1312
-47.1294
-47.1277
-47.1259
-47.1242
-47.1225
-47.1208
-47.1191
-47.1175
-47.1159
-47.1143
-47.1127
-47.1112
-47.1097
-47.1082
-47.1067
-47.1053
-47.104
-47.1026
-47.1013
-47.1001
-47.0989
-47.0977
-47.0966
-47.0955
-47.0945
-47.0935
-47.0926
-47.0918
-47.091
-47.0902
-47.0895
-47.0889
-47.0883
-47.0877
-47.0873
-47.0869
-47.0865
-47.0862
-47.086
-47.0858
-47.0857
-47.0857
-47.0857
-47.0858
-51.009
-51.0089
-51.0089
-51.009
-51.0091
-51.0092
-51.0095
-51.0098
-51.0101
-51.0105
-51.011
-51.0115
-51.0121
-51.0128
-51.0135
-51.0143
-51.0151
-51.016
-51.0169
-51.0179
-51.0189
-51.02
-51.0211
-51.0223
-51.0235
-51.0248
-51.0261
-51.0274
-51.0288
-51.0302
-51.0317
-51.0332
-51.0347
-51.0363
-51.0379
-51.0395
-51.0411
-51.0428
-51.0445
-51.0462
-51.0479
-51.0496
-51.0514
-51.0532
-51.0549
-51.0567
-51.0585
-51.0603
-51.0621
-51.0639
-51.0657
-51.0674
-51.0692
-51.071
-51.0727
-51.0745
-51.0762
-51.0779
-51.0796
-51.0813
-51.083
-51.0846
-51.0862
-51.0878
-51.0894
-51.0909
-51.0924
-51.0938
-51.0953
-51.0967
-51.098
-51.0994
-51.1007
-51.1019
-51.1031
-51.1043
-51.1054
-51.1065
-51.1076
-51.1086
-51.1095
-51.1104
-51.1113
-51.1121
-51.1129
-51.1136
-51.1143
-51.1149
-51.1155
-51.1161
-51.1166
-51.117
-51.1174
-51.1177
-51.118
-51.1183
-51.1185
-51.1186
-51.1187
-51.1188
-51.1188
-51.1187
-51.1186
-51.1185
-51.1183
-51.1181
-51.1178
-51.1174
-51.117
-51.1166
-51.1161
-51.1156
-51.115
-51.1144
-51.1137
-51.113
-51.1122
-51.1114
-51.1105
-51.1096
-51.1086
-51.1076
-51.1066
-51.1055
-51.1044
-51.1032
-51.102
-51.1008
-51.0995
-51.0982
-51.0968
-51.0954
-51.094
-51.0925
-51.091
-51.0895
-51.0879
-51.0864
-51.0848
-51.0831
-51.0815
-51.0798
-51.0781
-51.0764
-51.0747
-51.0729
-51.0712
-51.0694
-51.0676
-51.0658
-51.064
-51.0623
-51.0605
-51.0587
-51.0569
-51.0551
-51.0533
-51.0516
-51.0498
-51.0481
-51.0464
-51.0447
-51.043
-51.0413
-51.0397
-51.0381
-51.0365
-51.0349
-51.0334
-51.0319
-51.0304
-51.029
-51.0276
-51.0263
-51.025
-51.0237
-51.0225
-51.0213
-51.0202
-51.0191
-51.0181
-51.0171
-51.0162
-51.0153
-51.0145
-51.0137
-51.013
-51.0124
-51.0118
-51.0112
-51.0108
-51.0103
-51.01
-51.0097
-51.0095
-51.0093
-51.0092
-51.0091
-51.0092
-51.0092
-54.9324
-54.9323
-54.9323
-54.9324
-54.9325
-54.9327
-54.9329
-54.9332
-54.9336
-54.934
-54.9345
-54.935
-54.9356
-54.9363
-54.937
-54.9377
-54.9386
-54.9395
-54.9404
-54.9414
-54.9424
-54.9435
-54.9447
-54.9458
-54.9471
-54.9484
-54.9497
-54.951
-54.9524
-54.9539
-54.9554
-54.9569
-54.9584
-54.96
-54.9616
-54.9632
-54.9649
-54.9666
-54.9683
-54.97
-54.9718
-54.9735
-54.9753
-54.9771
-54.9789
-54.9807
-54.9825
-54.9843
-54.9861
-54.9879
-54.9897
-54.9915
-54.9933
-54.9951
-54.9969
-54.9987
-55.0004
-55.0022
-55.0039
-55.0056
-55.0073
-55.0089
-55.0105
-55.0121
-55.0137
-55.0153
-55.0168
-55.0183
-55.0197
-55.0211
-55.0225
-55.0239
-55.0252
-55.0264
-55.0276
-55.0288
-55.03
-55.0311
-55.0321
-55.0331
-55.0341
-55.035
-55.0359
-55.0367
-55.0375
-55.0383
-55.039
-55.0396
-55.0402
-55.0407
-55.0412
-55.0417
-55.0421
-55.0424
-55.0427
-55.043
-55.0432
-55.0433
-55.0434
-55.0435
-55.0435
-55.0434
-55.0433
-55.0432
-55.043
-55.0428
-55.0425
-55.0421
-55.0417
-55.0413
-55.0408
-55.0402
-55.0397
-55.039
-55.0383
-55.0376
-55.0368
-55.036
-55.0351
-55.0342
-55.0332
-55.0322
-55.0312
-55.0301
-55.0289
-55.0278
-55.0265
-55.0253
-55.024
-55.0226
-55.0213
-55.0198
-55.0184
-55.0169
-55.0154
-55.0139
-55.0123
-55.0107
-55.0091
-55.0074
-55.0057
-55.004
-55.0023
-55.0006
-54.9988
-54.9971
-54.9953
-54.9935
-54.9917
-54.9899
-54.9881
-54.9863
-54.9845
-54.9827
-54.9809
-54.9791
-54.9773
-54.9755
-54.9737
-54.972
-54.9702
-54.9685
-54.9668
-54.9651
-54.9635
-54.9618
-54.9602
-54.9586
-54.9571
-54.9556
-54.9541
-54.9527
-54.9513
-54.9499
-54.9486
-54.9473
-54.9461
-54.9449
-54.9437
-54.9426
-54.9416
-54.9406
-54.9397
-54.9388
-54.938
-54.9372
-54.9365
-54.9358
-54.9352
-54.9347
-54.9342
-54.9338
-54.9334
-54.9331
-54.9329
-54.9327
-54.9326
-54.9326
-54.9326
-54.9326
-58.8558
-58.8557
-58.8557
-58.8557
-58.8559
-58.856
-58.8563
-58.8566
-58.8569
-58.8574
-58.8578
-58.8584
-58.859
-58.8597
-58.8604
-58.8612
-58.862
-58.8629
-58.8639
-58.8649
-58.8659
-58.867
-58.8682
-58.8694
-58.8706
-58.8719
-58.8733
-58.8746
-58.8761
-58.8775
-58.879
-58.8806
-58.8821
-58.8837
-58.8853
-58.887
-58.8887
-58.8904
-58.8921
-58.8939
-58.8956
-58.8974
-58.8992
-58.901
-58.9028
-58.9047
-58.9065
-58.9083
-58.9102
-58.912
-58.9138
-58.9157
-58.9175
-58.9193
-58.9211
-58.9229
-58.9247
-58.9264
-58.9282
-58.9299
-58.9316
-58.9333
-58.9349
-58.9365
-58.9381
-58.9397
-58.9412
-58.9427
-58.9442
-58.9456
-58.947
-58.9484
-58.9497
-58.951
-58.9522
-58.9534
-58.9546
-58.9557
-58.9568
-58.9578
-58.9588
-58.9597
-58.9606
-58.9614
-58.9622
-58.963
-58.9637
-58.9643
-58.9649
-58.9655
-58.966
-58.9664
-58.9668
-58.9672
-58.9675
-58.9678
-58.968
-58.9681
-58.9682
-58.9683
-58.9683
-58.9682
-58.9681
-58.968
-58.9678
-58.9675
-58.9672
-58.9669
-58.9665
-58.966
-58.9655
-58.965
-58.9644
-58.9637
-58.963
-58.9623
-58.9615
-58.9607
-58.9598
-58.9589
-58.9579
-58.9569
-58.9558
-58.9547
-58.9535
-58.9523
-58.9511
-58.9498
-58.9485
-58.9471
-58.9458
-58.9443
-58.9429
-58.9414
-58.9398
-58.9383
-58.9367
-58.935
-58.9334
-58.9317
-58.93
-58.9283
-58.9266
-58.9248
-58.9231
-58.9213
-58.9195
-58.9177
-58.9158
-58.914
-58.9122
-58.9103
-58.9085
-58.9067
-58.9049
-58.903
-58.9012
-58.8994
-58.8976
-58.8958
-58.8941
-58.8923
-58.8906
-58.8889
-58.8872
-58.8856
-58.8839
-58.8823
-58.8808
-58.8792
-58.8777
-58.8763
-58.8749
-58.8735
-58.8721
-58.8708
-58.8696
-58.8684
-58.8672
-58.8661
-58.8651
-58.8641
-58.8631
-58.8622
-58.8614
-58.8606
-58.8599
-58.8592
-58.8586
-58.8581
-58.8576
-58.8572
-58.8568
-58.8565
-58.8563
-58.8561
-58.856
-58.8559
-58.8559
-58.856
-62.7791
-62.779
-62.779
-62.7791
-62.7792
-62.7793
-62.7796
-62.7799
-62.7803
-62.7807
-62.7812
-62.7817
-62.7824
-62.783
-62.7838
-62.7846
-62.7854
-62.7863
-62.7873
-62.7883
-62.7894
-62.7905
-62.7917
-62.7929
-62.7941