/*--------------------------------*- C++ -*----------------------------------*\
| =========                 |                                                 |
| \\      /  F ield         | OpenFOAM: The Open Source CFD Toolbox           |
|  \\    /   O peration     | Version:  2412                                  |
|   \\  /    A nd           | Website:  www.openfoam.com                      |
|    \\/     M anipulation  |                                                 |
\*---------------------------------------------------------------------------*/
FoamFile
{
    version     2.0;
    format      ascii;
    arch        "LSB;label=32;scalar=64";
    class       volScalarField;
    location    "1.22";
    object      p_rgh;
}
// * * * * * * * * * * * * * * * * * * * * * * * * * * * * * * * * * * * * * //

dimensions      [1 -1 -2 0 0 0 0];

internalField   nonuniform List<scalar> 
40000
(
1.962
1.96207
1.96208
1.96204
1.96194
1.96179
1.96157
1.96129
1.96096
1.96058
1.96013
1.95963
1.95908
1.95847
1.95781
1.9571
1.95633
1.95551
1.95465
1.95373
1.95277
1.95176
1.9507
1.94961
1.94846
1.94728
1.94606
1.9448
1.9435
1.94216
1.94079
1.93939
1.93796
1.9365
1.93501
1.9335
1.93196
1.9304
1.92882
1.92722
1.92561
1.92397
1.92233
1.92068
1.91901
1.91734
1.91567
1.91399
1.91231
1.91063
1.90895
1.90727
1.9056
1.90394
1.90229
1.90065
1.89902
1.8974
1.8958
1.89422
1.89266
1.89112
1.8896
1.88811
1.88664
1.8852
1.88378
1.8824
1.88104
1.87972
1.87843
1.87718
1.87595
1.87477
1.87362
1.87251
1.87144
1.8704
1.86941
1.86846
1.86755
1.86668
1.86586
1.86507
1.86433
1.86364
1.86299
1.86238
1.86182
1.86131
1.86084
1.86042
1.86004
1.85971
1.85943
1.85919
1.859
1.85886
1.85876
1.85871
1.85871
1.85875
1.85885
1.85899
1.85917
1.8594
1.85968
1.86001
1.86038
1.8608
1.86127
1.86178
1.86233
1.86293
1.86358
1.86427
1.86501
1.86579
1.86661
1.86747
1.86838
1.86933
1.87031
1.87134
1.87241
1.87352
1.87466
1.87585
1.87706
1.87832
1.8796
1.88092
1.88227
1.88366
1.88507
1.88651
1.88797
1.88946
1.89098
1.89252
1.89408
1.89565
1.89725
1.89886
1.90049
1.90213
1.90378
1.90544
1.9071
1.90878
1.91045
1.91213
1.91381
1.91549
1.91716
1.91883
1.92049
1.92214
1.92379
1.92541
1.92703
1.92862
1.9302
1.93176
1.9333
1.93481
1.9363
1.93776
1.93919
1.94059
1.94195
1.94329
1.94459
1.94585
1.94707
1.94825
1.94939
1.95049
1.95154
1.95255
1.95351
1.95443
1.95529
1.95611
1.95687
1.95759
1.95825
1.95886
1.95941
1.95991
1.96035
1.96074
1.96107
1.96135
1.96157
1.96173
1.96183
1.96187
1.96186
1.96179
1.96193
1.962
1.96202
1.96198
1.96188
1.96172
1.9615
1.96123
1.9609
1.96051
1.96007
1.95957
1.95902
1.95841
1.95775
1.95703
1.95627
1.95545
1.95459
1.95367
1.95271
1.9517
1.95065
1.94955
1.94841
1.94722
1.946
1.94474
1.94344
1.94211
1.94074
1.93934
1.93791
1.93645
1.93496
1.93345
1.93192
1.93036
1.92878
1.92718
1.92557
1.92394
1.9223
1.92065
1.91898
1.91732
1.91564
1.91396
1.91228
1.91061
1.90893
1.90726
1.90559
1.90393
1.90228
1.90064
1.89901
1.8974
1.89581
1.89423
1.89267
1.89113
1.88962
1.88813
1.88666
1.88522
1.88381
1.88243
1.88108
1.87976
1.87847
1.87722
1.876
1.87482
1.87367
1.87256
1.8715
1.87047
1.86948
1.86853
1.86762
1.86675
1.86593
1.86515
1.86441
1.86372
1.86307
1.86247
1.86191
1.8614
1.86093
1.86051
1.86013
1.8598
1.85952
1.85929
1.8591
1.85895
1.85886
1.85881
1.85881
1.85885
1.85894
1.85908
1.85927
1.8595
1.85978
1.8601
1.86047
1.86089
1.86136
1.86186
1.86242
1.86302
1.86366
1.86435
1.86508
1.86586
1.86668
1.86754
1.86844
1.86939
1.87038
1.8714
1.87247
1.87357
1.87471
1.87589
1.87711
1.87836
1.87964
1.88096
1.88231
1.88368
1.88509
1.88653
1.88799
1.88948
1.89099
1.89253
1.89408
1.89566
1.89725
1.89886
1.90048
1.90212
1.90377
1.90542
1.90709
1.90876
1.91043
1.91211
1.91379
1.91546
1.91713
1.9188
1.92046
1.92211
1.92375
1.92538
1.92699
1.92858
1.93016
1.93172
1.93325
1.93476
1.93625
1.93771
1.93914
1.94054
1.9419
1.94323
1.94453
1.94579
1.94701
1.94819
1.94933
1.95043
1.95148
1.95249
1.95345
1.95437
1.95523
1.95605
1.95681
1.95752
1.95819
1.95879
1.95935
1.95984
1.96029
1.96068
1.96101
1.96128
1.9615
1.96166
1.96176
1.96181
1.96179
1.96172
1.96191
1.96199
1.962
1.96196
1.96186
1.9617
1.96148
1.96121
1.96088
1.96049
1.96005
1.95955
1.95899
1.95839
1.95773
1.95701
1.95625
1.95543
1.95456
1.95365
1.95269
1.95168
1.95062
1.94952
1.94838
1.9472
1.94598
1.94472
1.94342
1.94208
1.94072
1.93932
1.93789
1.93643
1.93494
1.93343
1.93189
1.93033
1.92875
1.92715
1.92554
1.92391
1.92227
1.92062
1.91896
1.91729
1.91562
1.91394
1.91226
1.91058
1.90891
1.90723
1.90557
1.90391
1.90226
1.90062
1.899
1.89739
1.89579
1.89422
1.89266
1.89112
1.88961
1.88812
1.88666
1.88522
1.88381
1.88243
1.88108
1.87976
1.87848
1.87722
1.87601
1.87483
1.87368
1.87258
1.87151
1.87048
1.86949
1.86855
1.86764
1.86678
1.86596
1.86518
1.86444
1.86375
1.86311
1.8625
1.86195
1.86143
1.86097
1.86055
1.86017
1.85984
1.85956
1.85933
1.85914
1.859
1.8589
1.85885
1.85885
1.85889
1.85899
1.85912
1.85931
1.85954
1.85982
1.86014
1.86051
1.86093
1.86139
1.8619
1.86245
1.86305
1.86369
1.86438
1.86511
1.86589
1.8667
1.86756
1.86846
1.86941
1.87039
1.87142
1.87248
1.87358
1.87472
1.8759
1.87711
1.87836
1.87964
1.88096
1.8823
1.88368
1.88509
1.88652
1.88798
1.88947
1.89098
1.89251
1.89407
1.89564
1.89723
1.89884
1.90046
1.9021
1.90375
1.9054
1.90707
1.90874
1.91041
1.91209
1.91376
1.91544
1.91711
1.91878
1.92043
1.92208
1.92372
1.92535
1.92696
1.92856
1.93013
1.93169
1.93323
1.93474
1.93622
1.93768
1.93911
1.94051
1.94188
1.94321
1.94451
1.94577
1.94699
1.94817
1.94931
1.95041
1.95146
1.95247
1.95343
1.95434
1.95521
1.95602
1.95679
1.9575
1.95816
1.95877
1.95933
1.95982
1.96027
1.96066
1.96099
1.96126
1.96148
1.96164
1.96174
1.96179
1.96177
1.9617
1.96195
1.96202
1.96204
1.96199
1.96189
1.96173
1.96151
1.96124
1.96091
1.96052
1.96008
1.95958
1.95902
1.95841
1.95775
1.95704
1.95627
1.95545
1.95459
1.95367
1.95271
1.95169
1.95064
1.94954
1.9484
1.94721
1.94599
1.94473
1.94343
1.94209
1.94072
1.93932
1.93789
1.93643
1.93494
1.93342
1.93188
1.93032
1.92874
1.92714
1.92553
1.9239
1.92226
1.9206
1.91894
1.91727
1.9156
1.91392
1.91224
1.91056
1.90888
1.90721
1.90554
1.90388
1.90223
1.90059
1.89897
1.89735
1.89576
1.89418
1.89262
1.89109
1.88957
1.88808
1.88662
1.88518
1.88377
1.88239
1.88104
1.87972
1.87844
1.87719
1.87597
1.87479
1.87365
1.87254
1.87148
1.87045
1.86946
1.86852
1.86761
1.86675
1.86593
1.86515
1.86441
1.86372
1.86308
1.86248
1.86192
1.86141
1.86094
1.86052
1.86015
1.85982
1.85954
1.8593
1.85911
1.85897
1.85888
1.85883
1.85883
1.85887
1.85896
1.8591
1.85929
1.85952
1.85979
1.86012
1.86049
1.8609
1.86137
1.86187
1.86243
1.86302
1.86366
1.86435
1.86508
1.86586
1.86667
1.86753
1.86843
1.86938
1.87036
1.87138
1.87245
1.87355
1.87469
1.87586
1.87708
1.87832
1.87961
1.88092
1.88227
1.88364
1.88505
1.88649
1.88795
1.88943
1.89094
1.89248
1.89403
1.89561
1.8972
1.89881
1.90043
1.90207
1.90372
1.90537
1.90704
1.90871
1.91038
1.91206
1.91374
1.91542
1.91709
1.91876
1.92042
1.92207
1.92371
1.92534
1.92695
1.92855
1.93013
1.93169
1.93322
1.93474
1.93622
1.93768
1.93911
1.94051
1.94188
1.94322
1.94451
1.94578
1.947
1.94818
1.94932
1.95042
1.95148
1.95249
1.95345
1.95437
1.95523
1.95605
1.95682
1.95753
1.95819
1.9588
1.95935
1.95985
1.9603
1.96069
1.96102
1.96129
1.96151
1.96167
1.96177
1.96182
1.9618
1.96173
1.96203
1.9621
1.96212
1.96208
1.96197
1.96181
1.9616
1.96132
1.96099
1.9606
1.96015
1.95965
1.9591
1.95849
1.95782
1.95711
1.95634
1.95552
1.95465
1.95373
1.95277
1.95175
1.95069
1.94959
1.94845
1.94726
1.94603
1.94477
1.94346
1.94213
1.94075
1.93935
1.93791
1.93645
1.93496
1.93344
1.9319
1.93033
1.92875
1.92715
1.92553
1.9239
1.92225
1.92059
1.91893
1.91725
1.91558
1.91389
1.91221
1.91053
1.90885
1.90717
1.9055
1.90384
1.90219
1.90055
1.89892
1.8973
1.89571
1.89413
1.89257
1.89103
1.88951
1.88802
1.88655
1.88512
1.8837
1.88232
1.88097
1.87965
1.87837
1.87711
1.8759
1.87472
1.87357
1.87247
1.8714
1.87037
1.86938
1.86843
1.86753
1.86667
1.86584
1.86507
1.86433
1.86364
1.86299
1.86239
1.86184
1.86133
1.86086
1.86044
1.86007
1.85974
1.85946
1.85922
1.85903
1.85889
1.85879
1.85875
1.85874
1.85879
1.85888
1.85902
1.8592
1.85943
1.85971
1.86003
1.8604
1.86082
1.86128
1.86179
1.86234
1.86294
1.86358
1.86427
1.865
1.86577
1.86659
1.86745
1.86835
1.8693
1.87028
1.8713
1.87237
1.87347
1.87461
1.87579
1.877
1.87825
1.87953
1.88085
1.8822
1.88358
1.88498
1.88642
1.88788
1.88937
1.89089
1.89242
1.89398
1.89555
1.89715
1.89876
1.90039
1.90203
1.90368
1.90534
1.907
1.90868
1.91036
1.91204
1.91372
1.9154
1.91707
1.91874
1.92041
1.92206
1.92371
1.92534
1.92696
1.92856
1.93014
1.9317
1.93324
1.93476
1.93625
1.93771
1.93914
1.94055
1.94192
1.94326
1.94456
1.94582
1.94705
1.94823
1.94938
1.95048
1.95154
1.95255
1.95351
1.95443
1.9553
1.95612
1.95689
1.9576
1.95827
1.95887
1.95943
1.95993
1.96038
1.96077
1.9611
1.96137
1.96159
1.96175
1.96186
1.9619
1.96188
1.96181
1.96217
1.96224
1.96225
1.96221
1.96211
1.96194
1.96173
1.96145
1.96112
1.96073
1.96028
1.95978
1.95922
1.95861
1.95794
1.95722
1.95645
1.95563
1.95476
1.95383
1.95287
1.95185
1.95079
1.94968
1.94853
1.94734
1.94611
1.94484
1.94353
1.94219
1.94082
1.93941
1.93797
1.9365
1.935
1.93348
1.93193
1.93036
1.92877
1.92717
1.92554
1.92391
1.92225
1.92059
1.91892
1.91724
1.91556
1.91387
1.91219
1.9105
1.90881
1.90713
1.90546
1.90379
1.90213
1.90049
1.89885
1.89724
1.89564
1.89405
1.89249
1.89095
1.88943
1.88793
1.88646
1.88502
1.8836
1.88222
1.88087
1.87954
1.87825
1.877
1.87578
1.8746
1.87345
1.87234
1.87127
1.87024
1.86925
1.8683
1.8674
1.86653
1.86571
1.86493
1.86419
1.8635
1.86286
1.86225
1.8617
1.86118
1.86072
1.8603
1.85992
1.85959
1.85931
1.85908
1.85889
1.85875
1.85865
1.8586
1.8586
1.85864
1.85873
1.85887
1.85906
1.85929
1.85957
1.85989
1.86026
1.86068
1.86114
1.86165
1.8622
1.8628
1.86344
1.86413
1.86486
1.86564
1.86646
1.86732
1.86822
1.86917
1.87015
1.87118
1.87224
1.87335
1.87449
1.87567
1.87689
1.87814
1.87942
1.88074
1.88209
1.88348
1.88489
1.88633
1.88779
1.88929
1.8908
1.89234
1.8939
1.89548
1.89708
1.8987
1.90033
1.90197
1.90363
1.90529
1.90696
1.90864
1.91033
1.91201
1.9137
1.91538
1.91706
1.91874
1.92041
1.92207
1.92372
1.92535
1.92697
1.92858
1.93017
1.93173
1.93328
1.9348
1.93629
1.93776
1.9392
1.94061
1.94198
1.94333
1.94463
1.9459
1.94713
1.94832
1.94947
1.95057
1.95163
1.95265
1.95362
1.95454
1.95541
1.95623
1.957
1.95772
1.95838
1.959
1.95955
1.96006
1.9605
1.96089
1.96123
1.9615
1.96172
1.96188
1.96199
1.96203
1.96201
1.96194
1.96235
1.96242
1.96243
1.96239
1.96229
1.96212
1.9619
1.96163
1.96129
1.9609
1.96045
1.95995
1.95939
1.95877
1.9581
1.95738
1.95661
1.95578
1.9549
1.95398
1.95301
1.95199
1.95092
1.94981
1.94865
1.94746
1.94622
1.94495
1.94363
1.94229
1.9409
1.93949
1.93804
1.93657
1.93506
1.93354
1.93198
1.93041
1.92881
1.9272
1.92557
1.92392
1.92227
1.9206
1.91892
1.91724
1.91555
1.91385
1.91216
1.91046
1.90877
1.90709
1.9054
1.90373
1.90207
1.90042
1.89878
1.89715
1.89555
1.89396
1.89239
1.89084
1.88931
1.88781
1.88634
1.88489
1.88347
1.88208
1.88072
1.8794
1.8781
1.87685
1.87562
1.87444
1.87329
1.87217
1.8711
1.87007
1.86908
1.86812
1.86722
1.86635
1.86552
1.86474
1.864
1.86331
1.86266
1.86206
1.8615
1.86099
1.86052
1.8601
1.85972
1.85939
1.85911
1.85887
1.85868
1.85854
1.85844
1.8584
1.85839
1.85844
1.85853
1.85867
1.85885
1.85909
1.85936
1.85969
1.86006
1.86048
1.86094
1.86145
1.86201
1.86261
1.86325
1.86394
1.86467
1.86545
1.86627
1.86714
1.86804
1.86899
1.86998
1.87101
1.87208
1.87318
1.87433
1.87551
1.87673
1.87799
1.87928
1.8806
1.88196
1.88334
1.88476
1.8862
1.88768
1.88917
1.8907
1.89224
1.89381
1.89539
1.897
1.89862
1.90026
1.90191
1.90357
1.90524
1.90692
1.9086
1.91029
1.91198
1.91368
1.91537
1.91705
1.91874
1.92041
1.92208
1.92373
1.92538
1.92701
1.92862
1.93021
1.93178
1.93334
1.93486
1.93636
1.93784
1.93928
1.9407
1.94208
1.94343
1.94474
1.94601
1.94725
1.94844
1.94959
1.9507
1.95177
1.95279
1.95376
1.95468
1.95556
1.95638
1.95716
1.95788
1.95855
1.95916
1.95972
1.96023
1.96068
1.96107
1.9614
1.96168
1.9619
1.96206
1.96217
1.96221
1.96219
1.96212
1.96257
1.96265
1.96266
1.96262
1.96251
1.96235
1.96213
1.96185
1.96151
1.96112
1.96067
1.96016
1.9596
1.95898
1.95831
1.95758
1.9568
1.95597
1.95509
1.95416
1.95319
1.95216
1.95109
1.94997
1.94881
1.94761
1.94637
1.94509
1.94377
1.94241
1.94102
1.9396
1.93815
1.93666
1.93515
1.93362
1.93205
1.93047
1.92887
1.92725
1.92561
1.92396
1.92229
1.92061
1.91893
1.91723
1.91553
1.91383
1.91213
1.91043
1.90873
1.90703
1.90534
1.90366
1.90199
1.90033
1.89868
1.89705
1.89544
1.89384
1.89226
1.89071
1.88918
1.88767
1.88619
1.88473
1.88331
1.88191
1.88055
1.87922
1.87792
1.87665
1.87542
1.87423
1.87308
1.87196
1.87088
1.86985
1.86885
1.8679
1.86698
1.86611
1.86528
1.8645
1.86376
1.86306
1.86241
1.8618
1.86124
1.86073
1.86026
1.85984
1.85946
1.85913
1.85885
1.85861
1.85842
1.85828
1.85818
1.85813
1.85813
1.85817
1.85826
1.8584
1.85859
1.85882
1.8591
1.85943
1.8598
1.86022
1.86069
1.8612
1.86175
1.86236
1.863
1.86369
1.86443
1.86521
1.86604
1.8669
1.86781
1.86876
1.86976
1.87079
1.87186
1.87298
1.87413
1.87532
1.87654
1.8778
1.8791
1.88043
1.88179
1.88318
1.8846
1.88605
1.88753
1.88904
1.89056
1.89212
1.89369
1.89528
1.8969
1.89853
1.90017
1.90183
1.9035
1.90518
1.90686
1.90856
1.91025
1.91195
1.91365
1.91535
1.91705
1.91874
1.92043
1.9221
1.92376
1.92542
1.92705
1.92867
1.93027
1.93186
1.93341
1.93495
1.93646
1.93794
1.93939
1.94081
1.9422
1.94356
1.94487
1.94615
1.9474
1.9486
1.94976
1.95087
1.95194
1.95297
1.95394
1.95487
1.95575
1.95658
1.95736
1.95809
1.95876
1.95938
1.95994
1.96045
1.9609
1.96129
1.96163
1.96191
1.96213
1.96229
1.96239
1.96244
1.96242
1.96235
1.96285
1.96293
1.96294
1.9629
1.96279
1.96263
1.96241
1.96213
1.96179
1.96139
1.96094
1.96042
1.95986
1.95924
1.95856
1.95783
1.95705
1.95621
1.95533
1.95439
1.95341
1.95237
1.9513
1.95017
1.949
1.9478
1.94655
1.94526
1.94393
1.94256
1.94117
1.93974
1.93827
1.93678
1.93526
1.93372
1.93215
1.93055
1.92894
1.92731
1.92566
1.924
1.92232
1.92063
1.91894
1.91723
1.91553
1.91381
1.9121
1.91039
1.90868
1.90697
1.90527
1.90358
1.9019
1.90023
1.89857
1.89693
1.89531
1.8937
1.89212
1.89055
1.88901
1.8875
1.88601
1.88454
1.88311
1.88171
1.88034
1.879
1.87769
1.87642
1.87518
1.87399
1.87283
1.8717
1.87062
1.86958
1.86858
1.86762
1.8667
1.86582
1.86499
1.8642
1.86346
1.86276
1.8621
1.86149
1.86093
1.86041
1.85994
1.85952
1.85914
1.85881
1.85852
1.85828
1.85809
1.85795
1.85785
1.8578
1.8578
1.85785
1.85794
1.85808
1.85826
1.8585
1.85878
1.85911
1.85948
1.8599
1.86037
1.86088
1.86144
1.86205
1.8627
1.86339
1.86413
1.86492
1.86575
1.86662
1.86753
1.86849
1.86949
1.87053
1.8716
1.87272
1.87388
1.87508
1.87631
1.87757
1.87888
1.88021
1.88158
1.88298
1.88441
1.88587
1.88736
1.88887
1.89041
1.89197
1.89355
1.89516
1.89678
1.89842
1.90007
1.90174
1.90342
1.90511
1.9068
1.90851
1.91021
1.91192
1.91363
1.91534
1.91705
1.91875
1.92045
1.92213
1.92381
1.92547
1.92711
1.92874
1.93036
1.93195
1.93351
1.93506
1.93658
1.93807
1.93953
1.94096
1.94236
1.94372
1.94504
1.94633
1.94758
1.94879
1.94996
1.95108
1.95215
1.95319
1.95417
1.9551
1.95599
1.95682
1.95761
1.95834
1.95901
1.95963
1.9602
1.96071
1.96116
1.96156
1.9619
1.96218
1.9624
1.96257
1.96267
1.96272
1.9627
1.96263
1.96318
1.96325
1.96327
1.96323
1.96312
1.96296
1.96273
1.96245
1.96211
1.96171
1.96125
1.96074
1.96016
1.95954
1.95886
1.95812
1.95733
1.95649
1.9556
1.95466
1.95367
1.95263
1.95154
1.95041
1.94923
1.94802
1.94676
1.94546
1.94412
1.94275
1.94134
1.9399
1.93843
1.93692
1.93539
1.93384
1.93226
1.93065
1.92903
1.92738
1.92572
1.92405
1.92236
1.92066
1.91895
1.91724
1.91552
1.91379
1.91207
1.91035
1.90862
1.90691
1.90519
1.90349
1.9018
1.90012
1.89845
1.8968
1.89516
1.89354
1.89195
1.89037
1.88882
1.8873
1.8858
1.88432
1.88288
1.88147
1.88009
1.87874
1.87742
1.87615
1.8749
1.8737
1.87253
1.8714
1.87031
1.86926
1.86825
1.86729
1.86636
1.86548
1.86464
1.86385
1.8631
1.8624
1.86174
1.86113
1.86056
1.86004
1.85957
1.85914
1.85876
1.85842
1.85814
1.8579
1.8577
1.85756
1.85746
1.85741
1.85741
1.85746
1.85755
1.85769
1.85788
1.85811
1.8584
1.85872
1.8591
1.85953
1.86
1.86051
1.86108
1.86168
1.86234
1.86304
1.86378
1.86457
1.86541
1.86628
1.8672
1.86816
1.86917
1.87021
1.8713
1.87243
1.87359
1.87479
1.87603
1.87731
1.87862
1.87996
1.88134
1.88275
1.88419
1.88566
1.88716
1.88868
1.89023
1.8918
1.89339
1.89501
1.89664
1.89829
1.89996
1.90163
1.90333
1.90503
1.90674
1.90845
1.91017
1.91189
1.91362
1.91534
1.91706
1.91877
1.92047
1.92217
1.92386
1.92553
1.92719
1.92883
1.93045
1.93206
1.93364
1.93519
1.93672
1.93822
1.93969
1.94113
1.94254
1.94391
1.94525
1.94654
1.9478
1.94902
1.95019
1.95132
1.95241
1.95345
1.95444
1.95538
1.95627
1.95711
1.9579
1.95863
1.95931
1.95994
1.96051
1.96102
1.96148
1.96188
1.96222
1.96251
1.96273
1.96289
1.963
1.96305
1.96303
1.96296
1.96356
1.96363
1.96365
1.96361
1.9635
1.96333
1.96311
1.96282
1.96248
1.96207
1.96161
1.96109
1.96052
1.95989
1.9592
1.95846
1.95766
1.95681
1.95592
1.95497
1.95397
1.95292
1.95182
1.95068
1.9495
1.94827
1.947
1.94569
1.94435
1.94296
1.94154
1.94009
1.9386
1.93709
1.93555
1.93398
1.93238
1.93077
1.92913
1.92747
1.9258
1.92411
1.92241
1.9207
1.91898
1.91725
1.91551
1.91378
1.91204
1.9103
1.90856
1.90683
1.90511
1.90339
1.90168
1.89999
1.89831
1.89664
1.89499
1.89336
1.89176
1.89017
1.88861
1.88707
1.88556
1.88407
1.88262
1.88119
1.8798
1.87844
1.87712
1.87583
1.87458
1.87336
1.87219
1.87105
1.86995
1.86889
1.86788
1.8669
1.86597
1.86509
1.86424
1.86344
1.86269
1.86198
1.86132
1.8607
1.86013
1.85961
1.85913
1.8587
1.85831
1.85798
1.85769
1.85745
1.85725
1.85711
1.85701
1.85696
1.85696
1.857
1.8571
1.85724
1.85743
1.85767
1.85795
1.85828
1.85866
1.85909
1.85956
1.86008
1.86065
1.86126
1.86192
1.86263
1.86338
1.86417
1.86501
1.86589
1.86682
1.86779
1.8688
1.86985
1.87095
1.87208
1.87326
1.87447
1.87572
1.877
1.87832
1.87968
1.88107
1.88249
1.88394
1.88542
1.88693
1.88846
1.89002
1.89161
1.89321
1.89484
1.89649
1.89815
1.89983
1.90152
1.90322
1.90494
1.90666
1.90839
1.91012
1.91186
1.9136
1.91533
1.91706
1.91879
1.92051
1.92222
1.92392
1.92561
1.92728
1.92893
1.93057
1.93218
1.93378
1.93534
1.93689
1.9384
1.93988
1.94133
1.94275
1.94413
1.94548
1.94679
1.94806
1.94928
1.95047
1.95161
1.9527
1.95375
1.95475
1.95569
1.95659
1.95744
1.95823
1.95898
1.95966
1.96029
1.96087
1.96139
1.96185
1.96225
1.96259
1.96288
1.9631
1.96327
1.96338
1.96342
1.96341
1.96333
1.96399
1.96406
1.96408
1.96403
1.96393
1.96376
1.96353
1.96324
1.96289
1.96249
1.96202
1.9615
1.96092
1.96028
1.95959
1.95884
1.95804
1.95718
1.95627
1.95532
1.95431
1.95325
1.95215
1.951
1.9498
1.94856
1.94728
1.94596
1.9446
1.9432
1.94177
1.94031
1.93881
1.93728
1.93572
1.93414
1.93253
1.9309
1.92925
1.92758
1.92589
1.92419
1.92247
1.92074
1.919
1.91726
1.91551
1.91376
1.912
1.91025
1.9085
1.90675
1.90501
1.90328
1.90156
1.89985
1.89815
1.89647
1.89481
1.89316
1.89154
1.88994
1.88836
1.88681
1.88528
1.88379
1.88232
1.88088
1.87948
1.87811
1.87677
1.87547
1.87421
1.87298
1.8718
1.87065
1.86954
1.86848
1.86745
1.86647
1.86553
1.86464
1.86379
1.86298
1.86222
1.86151
1.86084
1.86022
1.85964
1.85911
1.85863
1.8582
1.85781
1.85747
1.85718
1.85694
1.85674
1.85659
1.8565
1.85644
1.85644
1.85649
1.85658
1.85673
1.85692
1.85716
1.85744
1.85778
1.85816
1.85859
1.85907
1.85959
1.86016
1.86078
1.86145
1.86216
1.86291
1.86371
1.86456
1.86545
1.86639
1.86736
1.86838
1.86945
1.87055
1.87169
1.87288
1.8741
1.87536
1.87666
1.87799
1.87936
1.88076
1.88219
1.88365
1.88515
1.88667
1.88822
1.88979
1.89139
1.89301
1.89465
1.89631
1.89799
1.89968
1.90139
1.90311
1.90484
1.90658
1.90832
1.91007
1.91182
1.91358
1.91533
1.91707
1.91882
1.92055
1.92228
1.92399
1.9257
1.92738
1.92905
1.9307
1.93233
1.93394
1.93552
1.93708
1.9386
1.9401
1.94156
1.94299
1.94439
1.94575
1.94707
1.94835
1.94958
1.95078
1.95193
1.95303
1.95409
1.9551
1.95605
1.95696
1.95781
1.95862
1.95936
1.96006
1.96069
1.96127
1.9618
1.96226
1.96267
1.96301
1.9633
1.96353
1.9637
1.96381
1.96385
1.96384
1.96376
1.96447
1.96454
1.96456
1.96451
1.9644
1.96423
1.964
1.96371
1.96336
1.96295
1.96248
1.96195
1.96137
1.96072
1.96002
1.95927
1.95846
1.95759
1.95668
1.95571
1.95469
1.95362
1.95251
1.95135
1.95014
1.94889
1.94759
1.94626
1.94489
1.94348
1.94203
1.94055
1.93904
1.93749
1.93592
1.93432
1.9327
1.93105
1.92938
1.9277
1.92599
1.92427
1.92254
1.92079
1.91904
1.91727
1.91551
1.91374
1.91196
1.91019
1.90842
1.90666
1.9049
1.90315
1.90141
1.89969
1.89797
1.89628
1.8946
1.89294
1.8913
1.88968
1.88809
1.88652
1.88498
1.88347
1.88199
1.88054
1.87912
1.87774
1.87639
1.87507
1.8738
1.87256
1.87136
1.8702
1.86909
1.86801
1.86698
1.86599
1.86504
1.86414
1.86328
1.86246
1.8617
1.86097
1.8603
1.85967
1.85909
1.85856
1.85807
1.85763
1.85724
1.8569
1.85661
1.85636
1.85616
1.85602
1.85592
1.85586
1.85586
1.85591
1.856
1.85615
1.85634
1.85658
1.85687
1.85721
1.8576
1.85803
1.85851
1.85904
1.85962
1.86024
1.86091
1.86163
1.86239
1.8632
1.86406
1.86496
1.8659
1.86689
1.86792
1.86899
1.8701
1.87126
1.87245
1.87369
1.87496
1.87627
1.87761
1.879
1.88041
1.88186
1.88333
1.88484
1.88638
1.88794
1.88953
1.89115
1.89278
1.89444
1.89612
1.89781
1.89952
1.90125
1.90299
1.90473
1.90649
1.90825
1.91002
1.91179
1.91356
1.91532
1.91709
1.91885
1.9206
1.92235
1.92408
1.9258
1.9275
1.92919
1.93085
1.9325
1.93412
1.93572
1.93729
1.93883
1.94034
1.94182
1.94327
1.94468
1.94605
1.94738
1.94867
1.94992
1.95113
1.95229
1.9534
1.95447
1.95549
1.95645
1.95737
1.95823
1.95904
1.9598
1.9605
1.96114
1.96173
1.96225
1.96272
1.96313
1.96348
1.96378
1.96401
1.96418
1.96429
1.96433
1.96431
1.96424
1.965
1.96508
1.96509
1.96504
1.96493
1.96476
1.96453
1.96423
1.96388
1.96346
1.96299
1.96245
1.96186
1.96121
1.9605
1.95974
1.95892
1.95805
1.95712
1.95614
1.95511
1.95403
1.95291
1.95173
1.95051
1.94925
1.94794
1.94659
1.94521
1.94378
1.94232
1.94082
1.93929
1.93773
1.93614
1.93453
1.93289
1.93122
1.92953
1.92783
1.9261
1.92436
1.92261
1.92085
1.91907
1.91729
1.91551
1.91372
1.91192
1.91013
1.90835
1.90656
1.90479
1.90302
1.90126
1.89951
1.89778
1.89607
1.89437
1.89269
1.89103
1.8894
1.88779
1.8862
1.88465
1.88312
1.88162
1.88015
1.87872
1.87732
1.87596
1.87463
1.87334
1.87209
1.87088
1.86971
1.86858
1.86749
1.86645
1.86545
1.86449
1.86358
1.86271
1.86189
1.86111
1.86038
1.8597
1.85907
1.85848
1.85794
1.85745
1.85701
1.85661
1.85627
1.85597
1.85572
1.85552
1.85537
1.85527
1.85522
1.85522
1.85526
1.85536
1.85551
1.8557
1.85594
1.85624
1.85658
1.85697
1.85741
1.85789
1.85843
1.85901
1.85964
1.86032
1.86105
1.86182
1.86264
1.8635
1.86441
1.86536
1.86636
1.8674
1.86848
1.86961
1.87078
1.87198
1.87323
1.87452
1.87584
1.8772
1.8786
1.88003
1.88149
1.88298
1.88451
1.88606
1.88764
1.88925
1.89088
1.89254
1.89421
1.89591
1.89762
1.89935
1.90109
1.90285
1.90461
1.90639
1.90817
1.90996
1.91174
1.91353
1.91532
1.91711
1.91889
1.92066
1.92242
1.92417
1.92591
1.92763
1.92934
1.93102
1.93268
1.93432
1.93594
1.93753
1.93909
1.94061
1.94211
1.94357
1.94499
1.94638
1.94773
1.94903
1.9503
1.95152
1.95269
1.95381
1.95489
1.95592
1.9569
1.95782
1.9587
1.95951
1.96028
1.96099
1.96164
1.96223
1.96276
1.96324
1.96365
1.96401
1.9643
1.96453
1.9647
1.96482
1.96486
1.96485
1.96477
1.96558
1.96566
1.96568
1.96563
1.96552
1.96534
1.9651
1.96481
1.96445
1.96403
1.96355
1.96301
1.96241
1.96175
1.96103
1.96026
1.95943
1.95855
1.95761
1.95662
1.95558
1.95449
1.95335
1.95216
1.95092
1.94965
1.94832
1.94696
1.94556
1.94411
1.94263
1.94112
1.93957
1.938
1.93639
1.93475
1.93309
1.93141
1.9297
1.92797
1.92623
1.92447
1.9227
1.92091
1.91912
1.91731
1.91551
1.91369
1.91188
1.91007
1.90826
1.90646
1.90466
1.90287
1.90109
1.89932
1.89757
1.89583
1.89412
1.89242
1.89074
1.88909
1.88746
1.88585
1.88428
1.88273
1.88122
1.87973
1.87828
1.87687
1.87549
1.87415
1.87284
1.87158
1.87035
1.86917
1.86802
1.86692
1.86587
1.86485
1.86388
1.86296
1.86208
1.86125
1.86047
1.85973
1.85904
1.8584
1.8578
1.85726
1.85676
1.85631
1.85592
1.85557
1.85527
1.85501
1.85481
1.85466
1.85456
1.85451
1.85451
1.85455
1.85465
1.8548
1.855
1.85524
1.85554
1.85588
1.85628
1.85672
1.85721
1.85775
1.85834
1.85898
1.85967
1.8604
1.86118
1.86201
1.86288
1.8638
1.86477
1.86578
1.86683
1.86793
1.86906
1.87025
1.87147
1.87273
1.87403
1.87537
1.87675
1.87816
1.8796
1.88108
1.8826
1.88414
1.88571
1.88731
1.88894
1.89059
1.89226
1.89396
1.89567
1.89741
1.89916
1.90092
1.9027
1.90449
1.90628
1.90808
1.90989
1.9117
1.91351
1.91532
1.91713
1.91893
1.92072
1.9225
1.92428
1.92603
1.92778
1.9295
1.93121
1.93289
1.93455
1.93618
1.93779
1.93937
1.94091
1.94242
1.9439
1.94534
1.94675
1.94811
1.94943
1.95071
1.95194
1.95313
1.95427
1.95536
1.9564
1.95739
1.95832
1.95921
1.96003
1.96081
1.96152
1.96218
1.96278
1.96332
1.9638
1.96422
1.96458
1.96488
1.96511
1.96529
1.9654
1.96545
1.96543
1.96535
1.96622
1.96629
1.96631
1.96626
1.96615
1.96597
1.96573
1.96543
1.96507
1.96464
1.96415
1.96361
1.963
1.96233
1.96161
1.96082
1.95999
1.95909
1.95814
1.95714
1.95609
1.95498
1.95383
1.95262
1.95137
1.95008
1.94874
1.94736
1.94594
1.94448
1.94298
1.94145
1.93988
1.93828
1.93665
1.935
1.93332
1.93161
1.92988
1.92813
1.92637
1.92458
1.92279
1.92098
1.91916
1.91734
1.91551
1.91367
1.91184
1.91
1.90817
1.90634
1.90452
1.90271
1.9009
1.89912
1.89734
1.89558
1.89384
1.89212
1.89042
1.88875
1.8871
1.88547
1.88388
1.88231
1.88078
1.87927
1.87781
1.87637
1.87498
1.87362
1.87229
1.87101
1.86977
1.86857
1.86741
1.8663
1.86523
1.8642
1.86322
1.86229
1.8614
1.86056
1.85976
1.85902
1.85832
1.85767
1.85707
1.85651
1.85601
1.85556
1.85515
1.8548
1.8545
1.85424
1.85404
1.85389
1.85378
1.85373
1.85373
1.85378
1.85387
1.85402
1.85422
1.85447
1.85477
1.85512
1.85552
1.85597
1.85647
1.85702
1.85761
1.85826
1.85895
1.8597
1.86049
1.86132
1.86221
1.86314
1.86412
1.86514
1.86621
1.86732
1.86847
1.86967
1.8709
1.87218
1.8735
1.87486
1.87625
1.87768
1.87914
1.88064
1.88217
1.88374
1.88533
1.88695
1.8886
1.89027
1.89197
1.89368
1.89542
1.89718
1.89895
1.90074
1.90254
1.90435
1.90617
1.90799
1.90982
1.91165
1.91349
1.91532
1.91715
1.91897
1.92079
1.9226
1.92439
1.92617
1.92793
1.92968
1.93141
1.93311
1.93479
1.93645
1.93807
1.93967
1.94124
1.94277
1.94426
1.94572
1.94714
1.94852
1.94986
1.95116
1.9524
1.95361
1.95476
1.95586
1.95692
1.95792
1.95887
1.95976
1.9606
1.96138
1.96211
1.96277
1.96338
1.96393
1.96441
1.96484
1.9652
1.9655
1.96574
1.96592
1.96603
1.96608
1.96606
1.96599
1.96691
1.96698
1.967
1.96695
1.96683
1.96665
1.96641
1.96611
1.96574
1.96531
1.96481
1.96426
1.96364
1.96297
1.96223
1.96144
1.96059
1.95968
1.95872
1.9577
1.95664
1.95552
1.95435
1.95313
1.95186
1.95055
1.94919
1.94779
1.94635
1.94487
1.94335
1.9418
1.94021
1.93859
1.93694
1.93526
1.93356
1.93183
1.93008
1.92831
1.92652
1.92471
1.92289
1.92106
1.91921
1.91736
1.91551
1.91365
1.91179
1.90993
1.90807
1.90622
1.90437
1.90253
1.9007
1.89889
1.89709
1.89531
1.89354
1.8918
1.89008
1.88838
1.88671
1.88506
1.88344
1.88185
1.8803
1.87878
1.87729
1.87583
1.87442
1.87304
1.8717
1.8704
1.86914
1.86793
1.86675
1.86562
1.86454
1.8635
1.8625
1.86156
1.86066
1.8598
1.859
1.85824
1.85753
1.85687
1.85627
1.85571
1.8552
1.85474
1.85433
1.85397
1.85366
1.8534
1.8532
1.85304
1.85294
1.85288
1.85288
1.85293
1.85303
1.85318
1.85338
1.85364
1.85394
1.85429
1.8547
1.85515
1.85566
1.85621
1.85682
1.85747
1.85818
1.85893
1.85973
1.86058
1.86148
1.86242
1.86341
1.86445
1.86553
1.86665
1.86782
1.86904
1.87029
1.87159
1.87292
1.8743
1.87571
1.87716
1.87864
1.88016
1.88172
1.8833
1.88492
1.88656
1.88823
1.88992
1.89164
1.89339
1.89515
1.89693
1.89872
1.90054
1.90236
1.9042
1.90604
1.90789
1.90975
1.9116
1.91346
1.91532
1.91718
1.91902
1.92086
1.9227
1.92451
1.92632
1.92811
1.92988
1.93163
1.93336
1.93506
1.93674
1.93838
1.94
1.94159
1.94314
1.94466
1.94614
1.94758
1.94898
1.95033
1.95164
1.95291
1.95413
1.95529
1.95641
1.95748
1.9585
1.95946
1.96036
1.96121
1.962
1.96274
1.96341
1.96403
1.96458
1.96508
1.96551
1.96588
1.96618
1.96642
1.9666
1.96672
1.96677
1.96675
1.96667
1.96765
1.96772
1.96774
1.96769
1.96757
1.96739
1.96714
1.96683
1.96646
1.96602
1.96552
1.96496
1.96433
1.96365
1.9629
1.9621
1.96124
1.96032
1.95934
1.95831
1.95723
1.95609
1.95491
1.95367
1.95239
1.95105
1.94968
1.94826
1.9468
1.9453
1.94376
1.94218
1.94057
1.93893
1.93725
1.93555
1.93382
1.93207
1.93029
1.92849
1.92668
1.92484
1.923
1.92114
1.91927
1.91739
1.91551
1.91362
1.91173
1.90985
1.90796
1.90608
1.90421
1.90234
1.90049
1.89865
1.89682
1.89501
1.89322
1.89145
1.8897
1.88798
1.88628
1.88461
1.88297
1.88136
1.87978
1.87824
1.87673
1.87525
1.87381
1.87242
1.87106
1.86974
1.86846
1.86723
1.86604
1.86489
1.86379
1.86274
1.86173
1.86077
1.85985
1.85899
1.85817
1.8574
1.85668
1.85602
1.8554
1.85483
1.85431
1.85385
1.85343
1.85307
1.85275
1.85249
1.85228
1.85213
1.85202
1.85197
1.85196
1.85201
1.85212
1.85227
1.85247
1.85273
1.85304
1.8534
1.85381
1.85427
1.85478
1.85535
1.85596
1.85662
1.85734
1.8581
1.85891
1.85978
1.86069
1.86164
1.86265
1.8637
1.8648
1.86594
1.86712
1.86835
1.86963
1.87094
1.8723
1.87369
1.87513
1.8766
1.8781
1.87965
1.88122
1.88283
1.88447
1.88614
1.88783
1.88955
1.8913
1.89306
1.89485
1.89666
1.89848
1.90032
1.90217
1.90403
1.9059
1.90778
1.90966
1.91155
1.91344
1.91532
1.9172
1.91908
1.92095
1.9228
1.92465
1.92648
1.92829
1.93009
1.93186
1.93362
1.93535
1.93705
1.93872
1.94036
1.94197
1.94354
1.94508
1.94658
1.94804
1.94946
1.95084
1.95217
1.95345
1.95468
1.95587
1.95701
1.95809
1.95912
1.96009
1.96101
1.96187
1.96268
1.96342
1.9641
1.96473
1.96529
1.96579
1.96623
1.9666
1.96691
1.96716
1.96734
1.96746
1.96751
1.96749
1.96741
1.96844
1.96852
1.96854
1.96848
1.96837
1.96818
1.96793
1.96761
1.96723
1.96679
1.96628
1.96571
1.96508
1.96438
1.96362
1.96281
1.96193
1.961
1.96001
1.95896
1.95786
1.95671
1.95551
1.95425
1.95295
1.9516
1.9502
1.94876
1.94728
1.94575
1.94419
1.94259
1.94096
1.93929
1.93759
1.93586
1.9341
1.93232
1.93052
1.92869
1.92685
1.92499
1.92311
1.92123
1.91933
1.91742
1.91551
1.91359
1.91168
1.90976
1.90784
1.90593
1.90403
1.90214
1.90026
1.89839
1.89653
1.89469
1.89288
1.89108
1.8893
1.88755
1.88583
1.88413
1.88247
1.88083
1.87923
1.87766
1.87612
1.87462
1.87316
1.87174
1.87036
1.86903
1.86773
1.86648
1.86527
1.8641
1.86298
1.86191
1.86089
1.85991
1.85899
1.85811
1.85728
1.8565
1.85577
1.85509
1.85446
1.85388
1.85336