/*--------------------------------*- C++ -*----------------------------------*\
| =========                 |                                                 |
| \\      /  F ield         | OpenFOAM: The Open Source CFD Toolbox           |
|  \\    /   O peration     | Version:  2412                                  |
|   \\  /    A nd           | Website:  www.openfoam.com                      |
|    \\/     M anipulation  |                                                 |
\*---------------------------------------------------------------------------*/
FoamFile
{
    version     2.0;
    format      ascii;
    arch        "LSB;label=32;scalar=64";
    class       volScalarField;
    location    "1.8";
    object      alpha.water;
}
// * * * * * * * * * * * * * * * * * * * * * * * * * * * * * * * * * * * * * //

dimensions      [0 0 0 0 0 0 0];

internalField   nonuniform List<scalar> 
40000
(
2.10843e-171
1.97549e-169
4.48075e-168
1.69858e-167
2.49754e-167
2.63938e-167
2.50372e-167
2.28128e-167
2.03098e-167
1.77417e-167
1.52152e-167
1.28071e-167
1.05746e-167
8.55923e-168
6.78207e-168
5.26002e-168
3.98751e-168
2.95457e-168
2.1372e-168
1.50557e-168
1.03025e-168
6.84327e-169
4.39886e-169
2.72823e-169
1.62757e-169
9.31562e-170
5.10311e-170
2.67204e-170
1.33831e-170
6.41526e-171
2.94091e-171
1.28465e-171
5.3216e-172
2.07597e-172
7.57389e-173
2.56904e-173
8.07528e-174
2.35097e-174
6.3303e-175
1.57683e-175
3.65175e-176
4.59511e-176
4.47295e-174
5.12049e-172
5.76014e-170
6.37128e-168
6.93596e-166
7.43861e-164
7.86707e-162
8.21323e-160
8.47325e-158
8.64739e-156
8.73938e-154
8.75531e-152
8.0051e-150
6.50865e-148
4.79989e-146
1.13235e-144
3.82424e-144
1.80684e-142
1.26765e-140
7.89549e-139
4.84682e-137
2.64075e-135
1.24134e-133
4.96025e-132
1.65359e-130
4.48892e-129
9.60991e-128
1.55365e-126
1.79084e-125
1.38286e-124
7.06032e-124
2.63774e-123
8.01669e-123
8.11257e-123
2.74828e-123
3.7533e-124
2.37642e-125
8.85829e-127
2.00393e-128
2.64183e-130
2.35897e-132
1.58054e-134
8.31647e-137
3.41363e-139
1.09305e-141
5.00141e-144
1.20543e-144
1.45771e-146
3.54315e-149
7.16731e-152
1.22652e-154
1.78197e-157
2.16121e-160
2.1166e-163
1.523e-166
5.38376e-168
5.50988e-166
5.75042e-164
6.05562e-162
6.41458e-160
6.7814e-158
7.17219e-156
8.49183e-154
1.2488e-151
2.00235e-149
3.30108e-147
4.27771e-145
1.90994e-144
5.09919e-143
8.58465e-141
1.36447e-138
1.89776e-136
2.26229e-134
2.26099e-132
1.84791e-130
1.19956e-128
5.96857e-127
2.1809e-125
5.46359e-124
8.35577e-123
6.3197e-122
2.14001e-121
1.49503e-121
3.75917e-122
8.04696e-123
1.38634e-123
1.65733e-124
1.30572e-125
6.69396e-127
1.93904e-128
0
-9.54356e-128
-5.2618e-128
-9.39919e-129
-9.56042e-130
-6.67022e-131
-3.50022e-132
-1.45858e-133
-5.00041e-135
-1.44529e-136
-3.58399e-138
-7.71994e-140
-1.45614e-141
-2.41363e-143
-3.50619e-145
-4.40158e-147
-4.58632e-149
-4.47782e-151
-4.30912e-153
-4.08454e-155
-3.81089e-157
-3.49721e-159
-3.15423e-161
-2.79379e-163
-2.42806e-165
-2.0688e-167
-1.72659e-169
-1.41015e-171
-1.11009e-173
5.57469e-175
2.39164e-174
8.20691e-174
2.60655e-173
7.66913e-173
2.10085e-172
5.37614e-172
1.29617e-171
2.9629e-171
6.45595e-171
1.34497e-170
2.68192e-170
5.11396e-170
9.32292e-170
1.62639e-169
2.72199e-169
4.38359e-169
6.8125e-169
1.02463e-168
1.49522e-168
2.12141e-168
2.93098e-168
3.95215e-168
5.20875e-168
6.7105e-168
8.45847e-168
1.04421e-167
1.26387e-167
1.50063e-167
1.74962e-167
2.00483e-167
2.25881e-167
2.49708e-167
2.66381e-167
2.55526e-167
1.74692e-167
4.5407e-168
1.84581e-169
1.70539e-171
9.24094e-168
7.21987e-166
1.31598e-164
4.49667e-164
6.50793e-164
6.92089e-164
6.62456e-164
6.09083e-164
5.47518e-164
4.83267e-164
4.19171e-164
3.57245e-164
2.99039e-164
2.45684e-164
1.97953e-164
1.56297e-164
1.20842e-164
9.14989e-165
6.77619e-165
4.89774e-165
3.44751e-165
2.35996e-165
1.56707e-165
1.00652e-165
6.23408e-166
3.71301e-166
2.12167e-166
1.16169e-166
6.09828e-167
3.07245e-167
1.48526e-167
6.87224e-168
3.02996e-168
1.26504e-168
4.96696e-169
1.82246e-169
6.22461e-170
1.9761e-170
5.82856e-171
1.59869e-171
6.62265e-172
2.23964e-170
1.89301e-168
1.57775e-166
1.29247e-164
1.0416e-162
8.26598e-161
6.46566e-159
4.98976e-157
3.80294e-155
2.86518e-153
2.13586e-151
1.57657e-149
1.14868e-147
7.57091e-146
1.23493e-144
6.07624e-144
5.08579e-142
4.20377e-140
3.13705e-138
2.09635e-136
1.24255e-134
6.46062e-133
2.9087e-131
1.11635e-129
3.58248e-128
9.37712e-127
1.93457e-125
2.972e-124
3.04533e-123
1.83442e-122
7.10132e-122
2.35174e-121
5.60959e-121
4.43729e-122
1.62988e-122
8.11257e-123
2.5105e-123
3.24273e-124
1.86909e-125
7.92479e-127
2.0029e-128
2.64069e-130
2.35817e-132
1.58016e-134
8.31524e-137
3.41345e-139
1.09295e-141
5.00286e-144
1.48715e-144
1.45755e-145
3.28486e-148
5.64548e-151
8.24882e-154
1.00739e-156
9.92537e-160
7.18106e-163
2.19329e-164
2.27588e-162
2.41296e-160
2.58411e-158
2.78785e-156
2.99577e-154
3.19705e-152
3.77002e-150
5.56264e-148
8.35862e-146
1.373e-144
2.00842e-144
5.09534e-143
8.59235e-141
1.36557e-138
1.89909e-136
2.26367e-134
2.26214e-132
1.84867e-130
1.19994e-128
5.96993e-127
2.18121e-125
5.46403e-124
7.30841e-123
5.65899e-122
2.14001e-121
5.31034e-121
6.25599e-120
1.11619e-119
2.93595e-120
6.20006e-121
1.23171e-121
1.72207e-122
1.0876e-123
2.26625e-125
3.30726e-140
-2.22529e-124
-1.79387e-124
-3.63228e-125
-4.01913e-126
-3.00783e-127
-1.68416e-128
-7.48102e-130
-2.73891e-131
-8.49043e-133
-2.27389e-134
-5.345e-136
-1.11695e-137
-2.09741e-139
-3.5714e-141
-5.55689e-143
-7.95028e-145
-1.07213e-146
-1.42563e-148
-1.86803e-150
-2.4104e-152
-3.0606e-154
-3.82131e-156
-4.68777e-158
-5.64568e-160
-6.66956e-162
-7.72207e-164
-8.75467e-166
-9.70825e-168
-9.91158e-170
1.96272e-170
6.50703e-170
1.89813e-169
5.15365e-169
1.30821e-168
3.12341e-168
7.06408e-168
1.52278e-167
3.14255e-167
6.22281e-167
1.18263e-166
2.15475e-166
3.76205e-166
6.30201e-166
1.01529e-165
1.57771e-165
2.37187e-165
3.45942e-165
4.90735e-165
6.78097e-165
9.14577e-165
1.20652e-164
1.55888e-164
1.97239e-164
2.44569e-164
2.97461e-164
3.55175e-164
4.16653e-164
4.8051e-164
5.45079e-164
6.08136e-164
6.64959e-164
6.99622e-164
6.61218e-164
4.54464e-164
1.29134e-164
6.57486e-166
7.68348e-168
4.05716e-165
3.17573e-163
5.76542e-162
1.85801e-161
2.65049e-161
2.82684e-161
2.72243e-161
2.52157e-161
2.28598e-161
2.03716e-161
1.78603e-161
1.54041e-161
1.30648e-161
1.08901e-161
8.91454e-162
7.16113e-162
5.64154e-162
4.35979e-162
3.30156e-162
2.44476e-162
1.76656e-162
1.24394e-162
8.51549e-163
5.65127e-163
3.62473e-163
2.24048e-163
1.33136e-163
7.5957e-164
4.16259e-164
2.19414e-164
1.1127e-164
5.41949e-165
2.52527e-165
1.11919e-165
4.6852e-166
1.84048e-166
6.7559e-167
2.31329e-167
7.38783e-168
2.20618e-168
1.15645e-168
4.6854e-167
3.91294e-165
3.21874e-163
2.60172e-161
2.06842e-159
1.61901e-157
1.24891e-155
9.50501e-154
7.14483e-152
5.31052e-150
3.90618e-148
2.80515e-146
9.28524e-145
2.90332e-144
2.437e-142
2.40325e-140
2.17149e-138
1.7849e-136
1.32417e-134
8.79005e-133
5.17087e-131
2.66599e-129
1.18915e-127
4.51777e-126
1.43393e-124
3.709e-123
7.55445e-122
1.14413e-120
1.15196e-119
6.77911e-119
2.554e-118
8.2377e-118
1.90973e-117
2.94714e-118
8.47795e-119
5.06329e-119
1.95626e-119
2.67004e-120
1.67486e-121
6.18095e-123
1.3851e-124
1.8099e-126
1.6037e-128
1.0676e-130
5.58819e-133
2.28424e-135
7.26859e-138
1.84904e-140
4.08281e-143
1.63365e-144
4.51878e-145
1.11044e-147
1.63359e-150
2.01074e-153
1.99433e-156
1.4506e-159
3.64456e-161
3.86555e-159
4.1996e-157
4.61395e-155
5.12067e-153
5.65145e-151
6.1315e-149
7.09363e-147
6.30219e-145
1.54745e-144
1.01697e-143
1.62968e-141
3.17974e-139
5.669e-137
9.02583e-135
1.25774e-132
1.50335e-130
1.50784e-128
1.23793e-126
8.08047e-125
4.04695e-123
1.48975e-121
3.76103e-120
5.78714e-119
4.36225e-118
1.39933e-117
3.04045e-117
2.27994e-116
3.70423e-116
9.84793e-117
2.13738e-117
4.38159e-118
6.31187e-119
4.25258e-120
9.81738e-122
1.35465e-136
-1.2885e-121
-2.33988e-121
-5.43411e-122
-6.46644e-123
-5.08871e-124
-2.96272e-125
-1.35912e-126
-5.11431e-128
-1.62346e-129
-4.4386e-131
-1.0623e-132
-2.25536e-134
-4.29607e-136
-7.41602e-138
-1.17085e-139
-1.70532e-141
-2.3144e-143
-3.09612e-145
-4.07996e-147
-5.2923e-149
-6.75257e-151
-8.46847e-153
-1.04308e-154
-1.26083e-156
-1.49442e-158
-1.73539e-160
-1.97263e-162
-2.19272e-164
-2.30279e-166
2.21569e-167
7.16932e-167
1.94422e-166
4.92592e-166
1.17171e-165
2.63367e-165
5.63292e-165
1.15298e-164
2.26706e-164
4.28927e-164
7.80571e-164
1.36449e-163
2.29013e-163
3.69572e-163
5.74856e-163
8.64409e-163
1.26038e-162
1.78685e-162
2.46901e-162
3.32961e-162
4.39123e-162
5.67573e-162
7.19695e-162
8.95063e-162
1.09249e-161
1.30986e-161
1.5438e-161
1.78982e-161
2.04239e-161
2.29465e-161
2.53713e-161
2.74928e-161
2.86566e-161
2.68962e-161
1.86728e-161
5.62401e-162
2.86825e-163
3.35382e-165
6.89648e-163
5.44736e-161
9.87753e-160
3.01928e-159
4.24317e-159
4.52067e-159
4.37062e-159
4.07118e-159
3.71678e-159
3.3395e-159
2.95528e-159
2.57568e-159
2.20997e-159
1.86575e-159
1.54881e-159
1.26326e-159
1.01179e-159
7.96128e-160
6.14817e-160
4.65037e-160
3.43812e-160
2.48146e-160
1.74447e-160
1.19117e-160
7.87584e-161
5.02752e-161
3.09069e-161
1.82716e-161
1.03929e-161
5.69666e-162
3.01096e-162
1.53264e-162
7.48724e-163
3.49065e-163
1.54228e-163
6.41463e-164
2.50012e-164
9.11635e-165
3.11044e-165
9.97424e-166
6.75166e-166
3.34509e-164
2.88319e-162
2.44453e-160
2.03569e-158
1.66651e-156
1.34239e-154
1.06492e-152
8.32811e-151
6.42749e-149
4.89071e-147
3.06894e-145
1.49487e-144
4.69038e-143
5.49382e-141
5.95915e-139
5.94001e-137
5.40586e-135
4.4611e-133
3.31353e-131
2.19699e-129
1.28827e-127
6.60928e-126
2.92906e-124
1.10416e-122
3.47319e-121
8.89309e-120
1.79091e-118
2.6777e-117
2.65405e-116
1.53002e-115
5.62134e-115
1.76527e-114
3.98693e-114
9.09234e-115
2.74694e-115
1.60788e-115
6.10541e-116
8.20006e-117
5.07102e-118
1.84856e-119
4.09928e-121
5.30945e-123
4.67032e-125
3.09069e-127
1.61015e-129
6.55768e-132
2.08101e-134
5.28268e-137
1.08876e-139
1.90717e-142
2.03222e-144
7.2884e-145
2.06426e-147
2.56812e-150
2.56745e-153
1.87775e-156
3.84781e-158
4.1675e-156
4.63554e-154
5.22011e-152
5.96786e-150
6.7855e-148
7.13258e-146
1.29564e-144
2.41497e-144
1.7595e-142
2.19449e-140
4.61036e-138
9.01251e-136
1.60735e-133
2.56134e-131
3.57466e-129
4.28265e-127
4.30937e-125
3.55321e-123
2.33209e-121
1.17598e-119
4.36499e-118
1.11295e-116
1.73251e-115
1.32346e-114
4.30913e-114
9.52443e-114
5.04087e-113
7.47862e-113
2.01143e-113
4.49666e-114
9.49526e-115
1.40445e-115
1.00165e-116
2.514e-118
6.21233e-121
-8.66979e-135
-1.7171e-118
-4.8179e-119
-6.25114e-120
-5.20268e-121
-3.15818e-122
-1.49771e-123
-5.7908e-125
-1.87933e-126
-5.22897e-128
-1.26775e-129
-2.71341e-131
-5.18301e-133
-8.91934e-135
-1.39466e-136
-1.99737e-138
-2.64028e-140
-3.40652e-142
-4.32454e-144
-5.39881e-146
-6.62397e-148
-7.98202e-150
-9.44006e-152
-1.09491e-153
-1.24448e-155
-1.38499e-157
-1.50796e-159
-1.60475e-161
-1.63422e-163
8.14841e-165
2.68224e-164
6.84875e-164
1.63808e-163
3.68975e-163
7.88052e-163
1.60704e-162
3.14636e-162
5.93398e-162
1.07935e-161
1.89201e-161
3.19102e-161
5.176e-161
8.08704e-161
1.22015e-160
1.78303e-160
2.53141e-160
3.50123e-160
4.72823e-160
6.24228e-160
8.0728e-160
1.0248e-159
1.27823e-159
1.56574e-159
1.8847e-159
2.23119e-159
2.59955e-159
2.98266e-159
3.37173e-159
3.75628e-159
4.12158e-159
4.4346e-159
4.59406e-159
4.30249e-159
3.02906e-159
9.6413e-160
4.92199e-161
5.70699e-163
6.91409e-161
5.34991e-159
9.33495e-158
2.69466e-157
3.7192e-157
3.95418e-157
3.83344e-157
3.58775e-157
3.29529e-157
2.98222e-157
2.66104e-157
2.34088e-157
2.0294e-157
1.73293e-157
1.45664e-157
1.20435e-157
9.78963e-158
7.82796e-158
6.15195e-158
4.74195e-158
3.57788e-158
2.63963e-158
1.89996e-158
1.33053e-158
9.03717e-159
5.93559e-159
3.76003e-159
2.2938e-159
1.34836e-159
7.65095e-160
4.19459e-160
2.2198e-160
1.13027e-160
5.50688e-161
2.54903e-161
1.11316e-161
4.56444e-162
1.75447e-162
6.32523e-163
2.16569e-163
3.06414e-163
2.14813e-161
1.89268e-159
1.63779e-157
1.39206e-155
1.16341e-153
9.56998e-152
7.75475e-150
6.19142e-148
4.74877e-146
1.15232e-144
5.37073e-144
6.81486e-142
8.73926e-140
1.0372e-137
1.13342e-135
1.13411e-133
1.03305e-131
8.51187e-130
6.29967e-128
4.15492e-126
2.42009e-124
1.23178e-122
5.41029e-121
2.01951e-119
6.28503e-118
1.59093e-116
3.16458e-115
4.66807e-114
4.55377e-113
2.57277e-112
9.22668e-112
2.8237e-111
6.22243e-111
1.84989e-111
5.62908e-112
3.23298e-112
1.20781e-112
1.59809e-113
9.75425e-115
3.51625e-116
7.72442e-118
9.92728e-120
8.67751e-122
5.71417e-124
2.9657e-126
1.20453e-128
3.81537e-131
9.67459e-134
1.99287e-136
3.43961e-139
5.03747e-142
2.58185e-144
8.55417e-145
2.4419e-147
2.46938e-150
1.81702e-153
3.02953e-155
3.34272e-153
3.7966e-151
4.36638e-149
5.12266e-147
4.34147e-145
1.50593e-144
1.52546e-143
2.26205e-141
3.8827e-139
6.20882e-137
8.39579e-135
1.63883e-132
2.92223e-130
4.65705e-128
6.50405e-126
7.80357e-124
7.87067e-122
6.51148e-120
4.2931e-118
2.1775e-116
8.14153e-115
2.09434e-113
3.2949e-112
2.54806e-111
8.41137e-111
2.12157e-110
8.27432e-110
1.13406e-109
3.08753e-110
7.1001e-111
1.54083e-111
2.33542e-112
1.751e-113
4.69289e-115
1.44437e-117
-1.77557e-131
-7.72098e-116
-2.93398e-116
-4.25464e-117
-3.79175e-118
-2.42121e-119
-1.19616e-120
-4.78756e-122
-1.60073e-123
-4.56988e-125
-1.1325e-126
-2.46793e-128
-4.77949e-130
-8.29951e-132
-1.30235e-133
-1.85975e-135
-2.43273e-137
-3.07234e-139
-3.81432e-141
-4.65288e-143
-5.57365e-145
-6.5524e-147
-7.55463e-149
-8.5363e-151
-9.44589e-153
-1.0228e-154
-1.08283e-156
-1.11986e-158
-1.12355e-160
7.92292e-163
4.91884e-162
1.19572e-161
2.72392e-161
5.85678e-161
1.19706e-160
2.3422e-160
4.41096e-160
8.02027e-160
1.40917e-159
2.39006e-159
3.90604e-159
6.14827e-159
9.33577e-159
1.37112e-158
1.95363e-158
2.70886e-158
3.66528e-158
4.85017e-158
6.28335e-158
7.98487e-158
9.97479e-158
1.22594e-157
1.48144e-157
1.76116e-157
2.06133e-157
2.37693e-157
2.70184e-157
3.02871e-157
3.3489e-157
3.65005e-157
3.90462e-157
4.02814e-157
3.77571e-157
2.70525e-157
9.14474e-158
4.86537e-159
5.76956e-161
4.75526e-159
3.52131e-157
5.71907e-156
1.55156e-155
2.10041e-155
2.2255e-155
2.162e-155
2.03208e-155
1.87689e-155
1.70992e-155
1.53753e-155
1.36431e-155
1.19423e-155
1.03068e-155
8.76504e-156
7.33954e-156
6.04886e-156
4.91003e-156
3.92233e-156
3.07708e-156
2.3661e-156
1.78171e-156
1.31098e-156
9.39967e-157
6.54676e-157
4.41577e-157
2.87669e-157
1.80721e-157
1.09549e-157
6.42009e-158
3.64179e-158
1.99808e-158
1.05707e-158
5.36308e-159
2.59043e-159
1.18254e-159
5.07693e-160
2.04696e-160
7.75873e-161
2.93817e-161
1.68899e-160
1.44241e-158
1.27643e-156
1.10798e-154
9.44133e-153
7.90626e-151
6.51433e-149
5.2754e-147
3.41946e-145
1.52535e-144
5.6279e-143
7.89772e-141
1.08816e-138
1.40074e-136
1.66371e-134
1.81482e-132
1.809e-130
1.63873e-128
1.34094e-126
9.84436e-125
6.43429e-123
3.71091e-121
1.86895e-119
8.11789e-118
2.99506e-116
9.2087e-115
2.30175e-113
4.51857e-112
6.5721e-111
6.30774e-110
3.49242e-109
1.22288e-108
3.64938e-108
7.85288e-108
2.81401e-108
8.51174e-109
4.80131e-109
1.76637e-109
2.30466e-110
1.38981e-111
4.9594e-113
1.08037e-114
1.3791e-116
1.19913e-118
7.86503e-121
4.0706e-123
1.65033e-125
5.22251e-128
1.32396e-130
2.72813e-133
4.71218e-136
6.87165e-139
8.51987e-142
2.88986e-144
8.39722e-145
1.90903e-147
1.41669e-150
1.91639e-152
2.15111e-150
2.48907e-148
2.85609e-146
1.07144e-144
2.14527e-144
1.38832e-142
1.95409e-140
3.13848e-138
5.70637e-136
1.00259e-133
1.58507e-131
2.23113e-129
3.97189e-127
6.32591e-125
8.83324e-123
1.06039e-120
1.07101e-118
8.88193e-117
5.87685e-115
2.99531e-113
1.127e-111
2.92204e-110
4.64139e-109
3.63025e-108
1.2138e-107
4.12651e-107
1.08494e-106
1.39848e-106
3.85529e-107
9.10622e-108
2.0282e-108
3.14689e-109
2.46644e-110
6.96561e-112
2.47736e-114
-3.63637e-128
-1.74778e-113
-1.29709e-113
-2.18277e-114
-2.11454e-115
-1.43377e-116
-7.43457e-118
-3.1015e-119
-1.07571e-120
-3.17401e-122
-8.10431e-124
-1.81442e-125
-3.59963e-127
-6.38361e-129
-1.01951e-130
-1.47587e-132
-1.9479e-134
-2.46124e-136
-3.05433e-138
-3.72103e-140
-4.4481e-142
-5.21436e-144
-5.99057e-146
-6.74036e-148
-7.4222e-150
-7.99258e-152
-8.41011e-154
-8.64001e-156
-8.65026e-158
-6.22753e-160
5.42159e-160
1.27467e-159
2.77805e-159
5.72446e-159
1.12364e-158
2.11615e-158
3.84434e-158
6.75634e-158
1.14945e-157
1.89066e-157
3.00074e-157
4.59313e-157
6.79186e-157
9.7285e-157
1.35396e-156
1.83664e-156
2.43493e-156
3.16182e-156
4.0248e-156
5.03212e-156
6.1926e-156
7.50692e-156
8.95742e-156
1.05256e-155
1.21892e-155
1.39204e-155
1.56853e-155
1.74458e-155
1.91561e-155
2.0752e-155
2.20883e-155
2.27202e-155
2.13568e-155
1.56112e-155
5.6292e-156
3.23292e-157
4.01263e-159
2.39103e-157
1.67606e-155
2.47485e-154
6.29236e-154
8.34414e-154
8.80376e-154
8.56697e-154
8.08531e-154
7.5085e-154
6.88507e-154
6.2372e-154
5.58124e-154
4.93135e-154
4.30016e-154
3.69846e-154
3.13534e-154
2.61874e-154
2.1569e-154
1.75049e-154
1.39685e-154
1.09394e-154
8.40217e-155
6.31539e-155
4.63271e-155
3.3062e-155
2.28847e-155
1.53213e-155
9.90511e-156
6.18743e-156
3.74239e-156
2.19456e-156
1.24701e-156
6.84654e-157
3.61236e-157
1.81807e-157
8.66279e-158
3.88824e-158
1.64179e-158
6.5412e-159
3.61371e-159
1.07796e-157
9.5971e-156
8.4393e-154
7.27975e-152
6.16562e-150
5.12937e-148
4.10088e-146
1.11141e-144
4.60797e-144
5.70527e-142
7.81811e-140
1.10402e-137
1.52038e-135
1.9489e-133
2.30134e-131
2.49247e-129
2.46403e-127
2.21169e-125
1.79182e-123
1.30155e-121
8.4123e-120
4.79551e-118
2.3863e-116
1.02377e-114
3.72973e-113
1.13205e-111
2.79257e-110
5.40825e-109
7.75441e-108
7.32179e-107
3.97285e-106
1.35844e-105
3.95492e-105
8.31751e-105
3.42712e-105
1.02456e-105
5.68082e-106
2.05972e-106
2.65237e-107
1.58172e-108
5.59236e-110
1.20919e-111
1.53458e-113
1.32852e-115
8.68736e-118
4.48776e-120
1.81783e-122
5.75226e-125
1.45916e-127
3.01021e-130
5.20743e-133
7.60875e-136
9.19405e-139
7.97067e-142
2.46432e-144
6.83102e-145
9.27849e-148
1.01452e-149
1.15811e-147
1.25387e-145
1.39083e-144
7.17269e-144
9.76364e-142
1.4364e-139
2.10999e-137
3.47422e-135
6.51225e-133
1.1966e-130
2.03208e-128
3.0291e-126
4.35136e-124
6.91873e-122
9.65131e-120
1.15821e-117
1.1704e-115
9.72073e-114
6.44888e-112
3.29982e-110
1.24828e-108
3.25915e-107
5.22213e-106
4.12748e-105
1.39685e-104
5.54386e-104
1.18015e-103
1.45187e-103
4.05257e-104
9.82066e-105
2.24283e-105
3.55949e-106
2.90326e-107
8.5635e-109
3.38197e-111
8.84836e-113
0
-4.17543e-111
-8.70985e-112
-9.35003e-113
-6.79911e-114
-3.72543e-115
-1.62875e-116
-5.88911e-118
-1.80474e-119
-4.7721e-121
-1.10372e-122
-2.25706e-124
-4.1171e-126
-6.74851e-128
-1.00031e-129
-1.34823e-131
-1.72962e-133
-2.17722e-135
-2.68818e-137
-3.25404e-139
-3.85981e-141
-4.48369e-143
-5.09744e-145
-5.66787e-147
-6.15916e-149
-6.53618e-151
-6.76831e-153
-6.83249e-155
-6.54111e-157
3.57645e-158
9.34788e-158
1.95332e-157
3.86338e-157
7.29291e-157
1.32362e-156
2.32199e-156
3.94793e-156
6.50858e-156
1.03895e-155
1.6025e-155
2.38698e-155
3.43971e-155
4.8087e-155
6.54194e-155
8.68788e-155
1.12933e-154
1.43999e-154
1.80222e-154
2.21811e-154
2.69036e-154
3.21824e-154
3.79328e-154
4.40746e-154
5.05171e-154
5.71533e-154
6.38564e-154
7.04863e-154
7.68778e-154
8.2801e-154
8.773e-154
9.00504e-154
8.50024e-154
6.3487e-154
2.44904e-154
1.55601e-155
2.04241e-157
9.12392e-156
6.03344e-154
7.94966e-153
1.89036e-152
2.45508e-152
2.57669e-152
2.51005e-152
2.37851e-152
2.22092e-152
2.04976e-152
1.87072e-152
1.68803e-152
1.50538e-152
1.32621e-152
1.15348e-152
9.8984e-153
8.37757e-153
7.00008e-153
5.77036e-153
4.68256e-153
3.73402e-153
2.9246e-153
2.24508e-153
1.68468e-153
1.23185e-153
8.74995e-154
6.0206e-154
4.00591e-154
2.57908e-154
1.61009e-154
9.76073e-155
5.74377e-155
3.27213e-155
1.79502e-155
9.41156e-156
4.68003e-156
2.19582e-156
9.70975e-157
4.13105e-157
9.02749e-157
6.72896e-155
5.94885e-153
5.15332e-151
4.37516e-149
3.63839e-147
2.5524e-145
1.44516e-144
3.76656e-143
5.15982e-141
7.06084e-139
9.63632e-137
1.35736e-134
1.85839e-132
2.36305e-130
2.76551e-128
2.96621e-126
2.90206e-124
2.57645e-122
2.06353e-120
1.4812e-118
9.45697e-117
5.3239e-115
2.61564e-113
1.10773e-111
3.9831e-110
1.19306e-108
2.9039e-107
5.54761e-106
7.84142e-105
7.28464e-104
3.87433e-103
1.29393e-102
3.67657e-102
7.56456e-102
3.48137e-102
1.02525e-102
5.5918e-103
1.99956e-103
2.54331e-104
1.50104e-105
5.2627e-107
1.1304e-108
1.42746e-110
1.23147e-112
8.03526e-115
4.14664e-117
1.67958e-119
5.31888e-122
1.35116e-124
2.79277e-127
4.84282e-130
7.09041e-133
7.45969e-136
6.46442e-139
4.47845e-142
1.9081e-144
3.89618e-145
4.59703e-147
3.97718e-145
1.53082e-144
3.41257e-143
5.30692e-141
8.28432e-139
1.26668e-136
1.92767e-134
3.23402e-132
6.17701e-130
1.16511e-127
2.0562e-125
3.25766e-123
4.465e-121
6.35544e-119
8.85108e-117
1.06094e-114
1.07176e-112
8.90741e-111
5.91999e-109
3.03862e-107
1.15472e-105
3.03352e-104
4.89925e-103
3.91007e-102
1.33843e-101
5.87492e-101
1.09308e-100
1.29533e-100
3.66049e-101
9.09358e-102
2.12786e-102
3.4517e-103
2.91923e-104
8.93444e-106
3.82808e-108
1.02025e-109
0
-9.05594e-109
-2.73057e-109
-3.34247e-110
-2.63814e-111
-1.53824e-112
-7.08323e-114
-2.68067e-115
-8.56241e-117
-2.35255e-118
-5.64e-120
-1.19307e-121
-2.24713e-123
-3.7968e-125
-5.79142e-127
-8.01892e-129
-1.0529e-130
-1.35514e-132
-1.70914e-134
-2.11155e-136
-2.55417e-138
-3.02337e-140
-3.49998e-142
-3.95998e-144
-4.37595e-146
-4.71936e-148
-4.96351e-150
-5.08667e-152
-5.06468e-154
-2.54249e-156
5.00835e-156
1.01161e-155
1.92102e-155
3.48841e-155
6.10291e-155
1.03396e-154
1.70076e-154
2.71682e-154
4.20828e-154
6.30732e-154
9.1422e-154
1.28394e-153
1.75208e-153
2.3304e-153
3.03059e-153
3.86354e-153
4.83856e-153
5.95535e-153
7.21673e-153
8.62875e-153
1.01868e-152
1.18621e-152
1.36297e-152
1.54631e-152
1.73322e-152
1.92029e-152
2.10374e-152
2.27931e-152
2.44099e-152
2.57523e-152
2.64027e-152
2.50603e-152
1.91297e-152
7.90945e-153
5.66711e-154
7.88851e-156
2.70763e-154
1.68927e-152
1.95169e-151
4.33665e-151
5.52826e-151
5.75726e-151
5.60251e-151
5.32826e-151
5.00277e-151
4.6478e-151
4.2739e-151
3.88922e-151
3.50106e-151
3.1163e-151
2.74113e-151
2.38123e-151
2.04229e-151
1.73127e-151
1.44955e-151
1.19619e-151
9.71256e-152
7.75739e-152
6.08208e-152
4.66908e-152
3.49858e-152
2.55095e-152
1.80476e-152
1.2366e-152
8.21058e-153
5.29382e-153
3.31936e-153
2.02365e-153
1.19658e-153
6.827e-154
3.73038e-154
1.93682e-154
9.50512e-155
4.40894e-155
2.40494e-155
4.42222e-154
3.87273e-152
3.37984e-150
2.89016e-148
2.39312e-146
9.13389e-145
2.8748e-144
3.04159e-142
4.18209e-140
5.71372e-138
7.76382e-136
1.05205e-133
1.47265e-131
1.99947e-129
2.5177e-127
2.91605e-125
3.0936e-123
2.99225e-121
2.62515e-119
2.07693e-117
1.47219e-115
9.27974e-114
5.15656e-112
2.50029e-110
1.04493e-108
3.70756e-107
1.09577e-105
2.63141e-104
4.95898e-103
6.91074e-102
6.31775e-101
3.29433e-100
1.07492e-99
2.98197e-99
6.00861e-99
3.02995e-99
8.76987e-100
4.70819e-100
1.66154e-100
2.08889e-101
1.22102e-102
4.24827e-104
9.07177e-106
1.14078e-107
9.81492e-110
6.39534e-112
3.29959e-114
1.33748e-116
4.24208e-119
1.07998e-121
2.23821e-124
3.89254e-127
5.07742e-130
5.34195e-133
4.64434e-136
3.20849e-139
1.62302e-142
1.86065e-144
8.36657e-145
2.01611e-144
1.41924e-142
2.32431e-140
3.79652e-138
6.14046e-136
9.73688e-134
1.53151e-131
2.60959e-129
5.04754e-127
9.68424e-125
1.75045e-122
2.87284e-120
4.1636e-118
5.13043e-116
6.99888e-114
8.37482e-112
8.45089e-110
7.0227e-108
4.6722e-106
2.40377e-104
9.16951e-103
2.42201e-101
3.93992e-100
3.17294e-99
1.09786e-98
5.19281e-98
8.78879e-98
1.00908e-97
2.88652e-98
7.34705e-99
1.76027e-99
2.9165e-100
2.55009e-101
8.05777e-103
3.69425e-105
1.00293e-106
0
-7.20632e-107
-6.64263e-107
-9.74583e-108
-8.48861e-109
-5.31201e-110
-2.59032e-111
-1.03017e-112
-3.44067e-114
-9.85003e-116
-2.45395e-117
-5.38282e-119
-1.04938e-120
-1.83219e-122
-2.88366e-124
-4.11394e-126
-5.55297e-128
-7.33903e-130
-9.49534e-132
-1.20227e-133
-1.48915e-135
-1.80347e-137
-2.13439e-139
-2.46702e-141
-2.78305e-143
-3.06204e-145
-3.28337e-147
-3.42852e-149
-3.48299e-151
-3.3377e-153
1.7605e-154
4.00475e-154
7.3038e-154
1.27551e-153
2.15033e-153
3.51708e-153
5.5941e-153
8.65363e-153
1.29992e-152
1.89217e-152
2.6677e-152
3.65018e-152
4.86138e-152
6.32117e-152
8.04963e-152
1.00645e-151
1.23803e-151
1.49859e-151
1.78806e-151
2.10749e-151
2.45542e-151
2.82457e-151
3.20918e-151
3.6036e-151
4.00149e-151
4.39591e-151
4.77941e-151
5.14369e-151
5.4777e-151
5.75728e-151
5.90913e-151
5.65475e-151
4.40148e-151
1.95186e-151
1.60541e-152
2.36814e-154
6.34078e-153
3.73931e-151
3.72184e-150
7.7482e-150
9.78199e-150
1.00358e-149
9.69077e-150
9.23586e-150
8.71899e-150
8.15548e-150
7.55771e-150
6.93732e-150
6.30509e-150
5.67157e-150
5.04639e-150
4.4387e-150
3.85849e-150
3.31885e-150
2.82278e-150
2.36903e-150
1.95878e-150
1.59557e-150
1.27791e-150
1.00389e-150
7.71149e-151
5.77499e-151
4.20397e-151
2.9689e-151
2.03488e-151
1.35631e-151
8.80389e-152
5.56472e-152
3.41742e-152
2.02911e-152
1.1563e-152
6.2739e-153
3.22421e-153
1.59498e-153
3.29376e-153
2.30786e-151
2.01526e-149
1.71931e-147
1.32787e-145
1.3835e-144
1.63174e-143
2.23215e-141
3.06725e-139
4.18194e-137
5.66436e-135
7.62915e-133
1.02462e-130
1.42211e-128
1.9121e-126
2.38208e-124
2.72817e-122
2.86065e-120
2.7336e-118
2.36848e-116
1.85005e-114
1.29438e-112
8.05162e-111
4.41469e-109
2.11197e-107
8.70817e-106
3.04839e-104
8.8889e-103
2.10602e-101
3.91531e-100
5.38019e-99
4.84118e-98
2.47567e-97
7.89452e-97
2.13891e-96
4.22504e-96
2.30244e-96
6.53892e-97
3.4577e-97
1.20498e-97
1.49832e-98
8.68001e-100
2.99908e-101
6.37142e-103
7.98442e-105
6.85616e-107
4.46467e-109
2.30472e-111
9.35617e-114
2.97435e-116
7.59447e-119
1.57951e-121
2.58245e-124
3.24219e-127
3.42524e-130
2.98912e-133
2.0711e-136
1.0343e-139
1.62593e-142
3.58469e-144
4.91162e-142
8.37133e-140
1.4252e-137
2.41268e-135
4.04143e-133
6.63864e-131
1.07778e-128
1.8619e-126
3.63283e-124
7.05104e-122
1.29486e-119
2.17349e-117
3.25694e-115
4.23075e-113
4.86653e-111
5.80597e-109
5.8486e-107
4.85601e-105
3.23165e-103
1.66532e-101
6.37232e-100
1.69118e-98
2.76912e-97
2.24886e-96
7.86067e-96
3.94646e-95
6.22952e-95
6.95306e-95
2.01348e-95
5.24861e-96
1.28678e-96
2.17615e-97
1.96237e-98
6.37685e-100
3.09941e-102
8.57721e-104
1.65962e-105
0
-1.18218e-104
-2.31344e-105
-2.28088e-106
-1.54934e-107
-8.05403e-109
-3.38131e-110
-1.18493e-111
-3.54449e-113
-9.19852e-115
-2.09678e-116
-4.23936e-118
-7.66342e-120
-1.24683e-121
-1.83621e-123
-2.55533e-125
-3.47776e-127
-4.62836e-129
-6.02188e-131
-7.65713e-133
-9.51144e-135
-1.1536e-136
-1.36538e-138
-1.57606e-140
-1.77304e-142
-1.94261e-144
-2.07129e-146
-2.1475e-148
-2.15975e-150
-1.43895e-152
1.22073e-152
2.16833e-152
3.63958e-152
5.90889e-152
9.32342e-152
1.43271e-151
2.1442e-151
3.12064e-151
4.40779e-151
6.04044e-151
8.04838e-151
1.04575e-150
1.32897e-150
1.65694e-150
2.03156e-150
2.45435e-150
2.92148e-150
3.43179e-150
3.98671e-150
4.58311e-150
5.20727e-150
5.84912e-150
6.49943e-150
7.14836e-150
7.78522e-150
8.39889e-150
8.97768e-150
9.50915e-150
9.97305e-150
1.03186e-149
1.00281e-149
7.88571e-150
3.74004e-150
3.59474e-151
5.60574e-153
1.17865e-151
6.59021e-150
5.55242e-149
1.09736e-148
1.40722e-148
1.39607e-148
1.31181e-148
1.24659e-148
1.18251e-148
1.11386e-148
1.04057e-148
9.63764e-149
8.84665e-149
8.04472e-149
7.24318e-149
6.45305e-149
5.68744e-149
4.96528e-149
4.29114e-149
3.66353e-149
3.08536e-149
2.56389e-149
2.09829e-149
1.68746e-149
1.32956e-149
1.02338e-149
7.67276e-150
5.59135e-150
3.96118e-150
2.73303e-150
1.83876e-150
1.20628e-150
7.7011e-151
4.76286e-151
2.83345e-151
1.60866e-151
8.68348e-152
5.8336e-152
1.29178e-150
1.12033e-148
9.61379e-147
5.52694e-145
1.758e-144
1.07882e-142
1.49658e-140
2.05614e-138
2.79872e-136
3.77894e-134
5.06794e-132
6.75706e-130
8.98221e-128
1.23404e-125
1.64145e-123
2.02176e-121
2.28821e-119
2.37e-117
2.23621e-115
1.9125e-113
1.47418e-111
1.0176e-109
6.24435e-108
3.37721e-106
1.59364e-104
6.48158e-103
2.23822e-101
6.43866e-100
1.50503e-98
2.76043e-97
3.74079e-96
3.31377e-95
1.66238e-94
5.18226e-94
1.37171e-93
2.65874e-93
1.54937e-93
4.42132e-94
2.24717e-94
7.7381e-95
9.5224e-96
5.47082e-97
1.87842e-98
3.97299e-100
4.9652e-102
4.25841e-104
2.77342e-106
1.43353e-108
5.83271e-111
1.85991e-113
4.76638e-116
9.94871e-119
1.48521e-121
1.87399e-124
1.98913e-127
1.74326e-130
1.21214e-133
9.43133e-137
1.03495e-139
1.19605e-141
2.5109e-139
4.4465e-137
7.85591e-135
1.37875e-132
2.39173e-130
4.06722e-128
6.80981e-126
1.19167e-123
2.33894e-121
4.57535e-119
8.49204e-117
1.4468e-114
2.21489e-112
2.97036e-110
3.39339e-108
3.58694e-106
3.60386e-104
2.98759e-102
1.98737e-100
1.02505e-98
3.93181e-97
1.04775e-95
1.72574e-94
1.41246e-93
4.98457e-93
2.63135e-92
3.93742e-92
4.2846e-92
1.25595e-92
3.35175e-93
8.4039e-94
1.44981e-94
1.34556e-95
4.48252e-97
2.29421e-99
6.46318e-101
1.27861e-102
0
-1.1453e-102
-4.38784e-103
-5.1197e-104
-3.83699e-105
-2.14479e-106
-9.55843e-108
-3.52869e-109
-1.1064e-110
-2.99879e-112
-7.11958e-114
-1.49592e-115
-2.80487e-117
-4.72566e-119
-7.19595e-121
-1.03497e-122
-1.45384e-124
-1.99462e-126
-2.67235e-128
-3.49548e-130
-4.46215e-132
-5.55666e-134
-6.74677e-136
-7.98254e-138
-9.19762e-140
-1.03134e-141
-1.12462e-143
-1.19165e-145
-1.22585e-147
-1.20617e-149
1.85151e-151
5.07045e-151
8.18923e-151
1.27916e-150
1.94496e-150
2.884e-150
4.17028e-150
5.8728e-150
8.04007e-150
1.06997e-149
1.38729e-149
1.75764e-149
2.18226e-149
2.66307e-149
3.2011e-149
3.79726e-149
4.44373e-149
5.1377e-149
5.88093e-149
6.66853e-149
7.48074e-149
8.3044e-149
9.12825e-149
9.94082e-149
1.07298e-148
1.14828e-148
1.21892e-148
1.28543e-148
1.35208e-148
1.43855e-148
1.44649e-148
1.11939e-148
5.60336e-149
6.40519e-150
1.05216e-151
1.73487e-150
9.23454e-149
6.48159e-148
1.26475e-147
1.73464e-147
1.6056e-147
1.40109e-147
1.30842e-147
1.24385e-147
1.18011e-147
1.11187e-147
1.03959e-147
9.64273e-148
8.86951e-148
8.08566e-148
7.30087e-148
6.52797e-148
5.78754e-148
5.08476e-148
4.41803e-148
3.79155e-148
3.21559e-148
2.69034e-148
2.21616e-148
1.79229e-148
1.41926e-148
1.09726e-148
8.26332e-149
6.0613e-149
4.33665e-149
3.02925e-149
2.06567e-149
1.37274e-149
8.85412e-150
5.50632e-150
3.27714e-150
1.92673e-150
7.53159e-150
5.79584e-148
4.86278e-146
1.17321e-144
5.18903e-144