/*--------------------------------*- C++ -*----------------------------------*\
| =========                 |                                                 |
| \\      /  F ield         | OpenFOAM: The Open Source CFD Toolbox           |
|  \\    /   O peration     | Version:  2412                                  |
|   \\  /    A nd           | Website:  www.openfoam.com                      |
|    \\/     M anipulation  |                                                 |
\*---------------------------------------------------------------------------*/
FoamFile
{
    version     2.0;
    format      ascii;
    arch        "LSB;label=32;scalar=64";
    class       surfaceScalarField;
    location    "1.8";
    object      alphaPhi0.water;
}
// * * * * * * * * * * * * * * * * * * * * * * * * * * * * * * * * * * * * * //

dimensions      [0 3 -1 0 0 0 0];

oriented        oriented;

internalField   nonuniform List<scalar> 
79600
(
-1.49191e-179
1.31691e-181
-7.64911e-178
1.88048e-179
-4.63171e-177
4.56918e-178
-9.35636e-177
1.73162e-177
-1.25542e-176
2.52327e-177
-1.44239e-176
2.65125e-177
-1.54273e-176
2.50776e-177
-1.57651e-176
2.28064e-177
-1.55418e-176
2.02638e-177
-1.48429e-176
1.76573e-177
-1.37643e-176
1.5096e-177
-1.24103e-176
1.26598e-177
-1.08876e-176
1.04082e-177
-9.29127e-177
8.3834e-178
-7.71847e-177
6.60612e-178
-6.23723e-177
5.09191e-178
-4.90557e-177
3.83352e-178
-3.75237e-177
2.81881e-178
-2.78583e-177
2.02181e-178
-2.00288e-177
1.41105e-178
-1.39386e-177
9.5571e-179
-9.36327e-178
6.27697e-179
-6.0544e-178
3.98526e-179
-3.75732e-178
2.43847e-179
-2.2326e-178
1.43332e-179
-1.26724e-178
8.07204e-180
-6.86287e-179
4.34437e-180
-3.54908e-179
2.23126e-180
-1.75372e-179
1.09425e-180
-8.27447e-180
5.12618e-181
-3.71458e-180
2.2918e-181
-1.5791e-180
9.7411e-182
-6.31289e-181
3.9166e-182
-2.35712e-181
1.47892e-182
-8.17191e-182
5.20704e-183
-2.62209e-182
1.6988e-183
-7.7827e-183
5.11707e-184
-2.13388e-183
1.42168e-184
-5.40592e-184
3.63622e-185
-1.27177e-184
8.55841e-186
-1.62373e-184
1.86153e-186
-1.60183e-182
2.18472e-186
-1.85625e-180
1.96734e-184
-2.11134e-178
2.06334e-182
-2.3586e-176
2.10168e-180
-2.59022e-174
2.0745e-178
-2.79916e-172
1.97822e-176
-2.97957e-170
1.8133e-174
-3.12721e-168
1.58403e-172
-3.23961e-166
1.29813e-170
-3.31605e-164
9.656e-169
-3.35735e-162
5.95983e-167
-3.36544e-160
1.97269e-165
-3.07522e-158
-2.67567e-159
-2.4967e-156
-5.46236e-157
-1.88262e-154
-5.80852e-155
-1.17101e-152
-6.2379e-153
-1.27922e-151
-1.04597e-151
-9.49249e-151
-2.4148e-152
-6.89982e-149
-1.97328e-150
-4.84003e-147
-1.52688e-148
-2.9966e-145
-1.02847e-146
-1.67384e-143
-2.14762e-144
-8.0715e-142
-2.16679e-142
-3.29308e-140
-1.49454e-140
-1.11622e-138
-7.86222e-139
-3.06951e-137
-3.2348e-137
-6.62739e-136
-1.03762e-135
-1.06809e-134
-2.54639e-134
-1.18222e-133
-4.61601e-133
-8.35743e-133
-5.79222e-132
-4.04044e-132
-4.68394e-131
-1.51342e-131
-2.45948e-130
-5.10711e-131
-9.39345e-130
-4.85667e-131
-2.98366e-129
-3.07188e-131
-3.10085e-129
-1.02365e-131
-1.08317e-129
-1.47212e-132
-1.58477e-130
-9.31966e-134
-1.10471e-131
-3.39695e-135
-4.55484e-133
-7.4716e-137
-1.17295e-134
-9.52704e-139
-1.85992e-136
-8.18226e-141
-1.9566e-138
-5.2509e-143
-1.49637e-140
-2.63804e-145
-8.84723e-143
-1.03102e-147
-4.12661e-145
-3.12899e-150
-1.51033e-147
-1.0385e-152
-4.47202e-150
-2.24836e-155
-2.37033e-151
-4.98991e-158
-6.4038e-153
-9.38846e-161
-1.5883e-155
-1.48593e-163
-3.2331e-158
-1.98345e-166
-5.55682e-161
-2.19282e-169
-8.11938e-164
-1.93924e-172
-9.91437e-167
-1.24551e-175
-9.76616e-170
-3.87321e-177
-7.06432e-173
-3.42197e-175
-2.15728e-174
-3.00576e-173
-2.23838e-172
-2.56963e-171
-2.37335e-170
-2.09085e-169
-2.54222e-168
-1.543e-167
-2.7436e-166
-9.25713e-166
-2.94957e-164
-2.59444e-164
-3.1495e-162
5.77672e-164
-3.7163e-160
2.08134e-161
-5.48873e-158
5.31363e-159
-8.72427e-156
1.20819e-156
-1.39229e-153
3.56428e-154
-1.64557e-151
4.66503e-152
-2.63106e-151
9.42227e-150
-3.04593e-149
1.71579e-147
-5.41355e-147
2.68621e-145
-8.51883e-145
3.5549e-143
-1.15995e-142
3.89951e-141
-1.34054e-140
3.46426e-139
-1.28764e-138
2.4234e-137
-1.00389e-136
1.28893e-135
-6.17811e-135
4.99168e-134
-2.90158e-133
1.31039e-132
-9.9621e-132
2.05398e-131
-2.33386e-130
1.54552e-130
-3.3293e-129
5.49886e-130
-2.39626e-128
1.00552e-129
-7.87784e-128
6.91731e-130
-5.30903e-128
1.55998e-130
-1.24241e-128
3.15131e-131
-2.54664e-129
5.63081e-132
-4.25671e-130
7.44876e-133
-4.9407e-131
6.36794e-134
-3.72112e-132
3.61033e-135
-1.85892e-133
2.61031e-136
-7.73564e-135
9.42407e-137
-3.80239e-136
-2.52212e-136
1.36761e-134
-1.42103e-136
1.03872e-134
-2.58936e-137
1.96957e-135
-2.68199e-138
2.0269e-136
-1.90225e-139
1.39981e-137
-1.01311e-140
7.16763e-139
-4.2779e-142
2.88056e-140
-1.48378e-143
9.41918e-142
-4.33233e-145
2.56666e-143
-1.08365e-146
5.9206e-145
-2.35104e-148
1.16653e-146
-4.46018e-150
1.96642e-148
-7.42533e-152
2.80898e-150
-1.08187e-153
3.28463e-152
-1.36037e-155
2.79302e-154
-1.41788e-157
7.14769e-157
-1.38288e-159
-1.45678e-162
-1.32763e-161
-3.15231e-164
-1.25384e-163
-4.59616e-166
-1.16408e-165
-5.75733e-168
-1.06166e-167
-6.59884e-170
-9.50435e-170
-7.10593e-172
-8.34537e-172
-7.28662e-174
-7.1812e-174
-7.1689e-176
-6.0507e-176
-6.79723e-178
-4.98755e-178
-6.22767e-180
-4.01824e-180
-5.52247e-182
-3.11642e-182
-4.67714e-184
1.53994e-183
2.50748e-185
6.49252e-183
1.14085e-184
2.18663e-182
4.12789e-184
6.80726e-182
1.37545e-183
1.96059e-181
4.22696e-183
5.2503e-181
1.20466e-182
1.31161e-180
3.19587e-182
3.0826e-180
7.96238e-182
6.85895e-180
1.87547e-181
1.45252e-179
4.19983e-181
2.93632e-179
8.97074e-181
5.67212e-179
1.83005e-180
1.04594e-178
3.56296e-180
1.84059e-178
6.61988e-180
3.0934e-178
1.17501e-179
4.97745e-178
1.99785e-179
7.68944e-178
3.26404e-179
1.14361e-177
5.13945e-179
1.64182e-177
7.82241e-179
2.28047e-177
1.15389e-178
3.0702e-177
1.65323e-178
4.0114e-177
2.30441e-178
5.09579e-177
3.13212e-178
6.30023e-177
4.15765e-178
7.57756e-177
5.39086e-178
8.86796e-177
6.8341e-178
1.00997e-176
8.47968e-178
1.11933e-176
1.03092e-177
1.20615e-176
1.22874e-177
1.26255e-176
1.43725e-177
1.2816e-176
1.65123e-177
1.25751e-176
1.86448e-177
1.18355e-176
2.06606e-177
1.04127e-176
2.21321e-177
7.84668e-177
2.14175e-177
3.8783e-177
1.48609e-177
6.18308e-178
3.89737e-178
1.01671e-179
1.49668e-179
9.39311e-182
-7.36725e-176
1.52016e-177
-3.24501e-174
1.7309e-175
-1.78152e-173
3.31074e-174
-3.53143e-173
1.11696e-173
-4.7463e-173
1.58919e-173
-5.47851e-173
1.67248e-173
-5.89106e-173
1.59231e-173
-6.06006e-173
1.45932e-173
-6.02142e-173
1.30818e-173
-5.80408e-173
1.15113e-173
-5.4401e-173
9.94883e-174
-4.96495e-173
8.44372e-174
-4.41519e-173
7.03418e-174
-3.82666e-173
5.7478e-174
-3.2326e-173
4.60297e-174
-2.66141e-173
3.60967e-174
-2.13693e-173
2.76979e-174
-1.67194e-173
2.07975e-174
-1.27243e-173
1.52606e-174
-9.40206e-174
1.09187e-174
-6.73744e-174
7.60037e-175
-4.67138e-174
5.1395e-175
-3.1255e-174
3.36737e-175
-2.01213e-174
2.1314e-175
-1.2431e-174
1.29918e-175
-7.35396e-175
7.60395e-176
-4.16109e-175
4.26306e-176
-2.25344e-175
2.28621e-176
-1.16933e-175
1.17329e-176
-5.81277e-176
5.7673e-177
-2.76158e-176
2.71404e-177
-1.24837e-176
1.21953e-177
-5.3364e-177
5.20786e-178
-2.14231e-177
2.09987e-178
-8.0264e-178
7.93683e-179
-2.79567e-178
2.79343e-179
-9.03947e-179
9.11579e-180
-2.71217e-179
2.75271e-180
-7.55803e-180
7.68427e-181
-3.17717e-180
1.98343e-181
-1.08902e-178
7.6814e-182
-9.31839e-177
2.41002e-180
-7.85325e-175
1.87289e-178
-6.49749e-173
1.41974e-176
-5.28245e-171
1.04385e-174
-4.22408e-169
7.42526e-173
-3.32545e-167
5.08931e-171
-2.57996e-165
3.33829e-169
-1.97444e-163
2.0703e-167
-1.49197e-161
1.18543e-165
-1.11418e-159
5.92953e-164
-8.22933e-158
2.15315e-162
-5.99613e-156
-1.82788e-158
-4.10738e-154
-2.31321e-155
-2.43521e-152
-3.42311e-153
-1.61717e-151
-3.63158e-152
-2.20904e-150
-2.8323e-152
-1.9893e-148
-3.17587e-150
-1.63207e-146
-3.11603e-148
-1.20938e-144
-2.68489e-146
-8.02672e-143
-2.02894e-144
-4.72646e-141
-1.33804e-142
-2.44233e-139
-7.63982e-141
-1.09333e-137
-3.73603e-139
-4.17528e-136
-1.54275e-137
-1.33461e-134
-5.28157e-136
-3.48519e-133
-1.46332e-134
-7.19154e-132
-3.17646e-133
-1.10945e-130
-5.16688e-132
-1.15388e-129
-5.92758e-131
-7.32797e-129
-4.48815e-130
-3.13414e-128
-2.21879e-129
-1.12337e-127
-7.98947e-129
-2.99386e-127
-2.25093e-128
-2.77885e-127
-4.06566e-128
-1.91773e-127
-9.53177e-128
-8.55812e-128
-1.10358e-127
-1.33032e-128
-7.34096e-128
-8.48653e-130
-1.25952e-128
-3.07923e-131
-8.25893e-130
-6.73137e-133
-3.04525e-131
-8.52138e-135
-6.73204e-133
-7.26474e-137
-8.56287e-135
-4.63131e-139
-7.3211e-137
-2.31375e-141
-4.67738e-139
-9.00027e-144
-2.34138e-141
-2.71595e-146
-9.1245e-144
-6.52755e-149
-2.75812e-146
-1.31954e-151
-6.6695e-149
-3.34497e-154
-1.89988e-151
-5.60346e-157
-6.32072e-152
-8.887e-160
-1.47664e-154
-1.19071e-162
-2.54596e-157
-1.32258e-165
-3.74133e-160
-1.17356e-168
-4.60283e-163
-7.55427e-172
-4.56303e-166
-2.02141e-173
-3.31754e-169
-1.80103e-171
-8.33254e-171
-1.59521e-169
-8.83652e-169
-1.37174e-167
-9.60061e-167
-1.11665e-165
-1.05506e-164
-8.09369e-164
-1.17147e-162
-4.46627e-162
-1.29374e-160
-3.43089e-161
-1.40481e-158
4.58618e-160
-1.63411e-156
1.40612e-157
-2.43162e-154
3.64987e-155
-3.57617e-152
8.12615e-153
-1.33928e-151
1.74972e-150
-2.1269e-150
4.09987e-148
-4.29579e-148
8.51743e-146
-8.85053e-146
1.54655e-143
-1.59712e-143
2.41745e-141
-2.4836e-141
3.19846e-139
-3.27092e-139
3.51176e-137
-3.57568e-137
3.12575e-135
-3.16846e-135
2.19241e-133
-2.2113e-133
1.1695e-131
-1.17235e-131
4.53937e-130
-4.51236e-130
1.19031e-128
-1.16733e-128
1.84557e-127
-1.75666e-127
1.30114e-126
-1.14104e-126
3.8466e-126
-2.64775e-126
6.081e-126
-2.50528e-126
4.78476e-126
-1.07798e-126
1.18275e-126
-4.32134e-127
2.36178e-127
-1.08419e-127
4.69918e-128
-2.36084e-128
6.94395e-129
-4.17516e-129
6.36327e-130
-5.11021e-130
5.85658e-131
-4.08934e-131
3.34988e-132
-3.43777e-132
1.18171e-132
-4.13906e-132
-8.0339e-133
1.90962e-131
-6.62371e-133
3.27681e-131
-1.36928e-133
7.1496e-132
-1.54421e-134
7.94151e-133
-1.17589e-135
5.79075e-134
-6.68847e-137
3.09765e-135
-3.01337e-138
1.29277e-136
-1.11724e-139
4.37357e-138
-3.50206e-141
1.23027e-139
-9.46988e-143
2.92698e-141
-2.24428e-144
5.95289e-143
-4.72172e-146
1.03956e-144
-8.91415e-148
1.55258e-146
-1.52395e-149
1.94353e-148
-2.37745e-151
1.9112e-150
-3.4059e-153
1.11095e-152
-4.59304e-155
-3.44966e-158
-6.09957e-157
-1.82847e-159
-7.97184e-159
-4.15933e-161
-1.02468e-160
-7.59931e-163
-1.29444e-162
-1.24232e-164
-1.60588e-164
-1.88926e-166
-1.95501e-166
-2.72168e-168
-2.33366e-168
-3.75069e-170
-2.72908e-170
-4.97253e-172
-3.12396e-172
-6.36381e-174
-3.4972e-174
-7.87844e-176
-3.82457e-176
-9.44523e-178
-3.84586e-178
-1.03381e-179
7.49136e-179
2.1791e-180
2.43992e-178
7.64283e-180
6.9829e-178
2.34593e-179
1.85764e-177
6.67067e-179
4.61386e-177
1.76592e-178
1.07634e-176
4.38059e-178
2.37512e-176
1.02589e-177
4.98806e-176
2.283e-177
1.00132e-175
4.85036e-177
1.92566e-175
9.86308e-177
3.54831e-175
1.92052e-176
6.25734e-175
3.57767e-176
1.05546e-174
6.37431e-176
1.70481e-174
1.08776e-175
2.64281e-174
1.78232e-175
3.943e-174
2.81268e-175
5.67786e-174
4.28833e-175
7.91187e-174
6.33517e-175
1.06929e-173
9.09185e-175
1.40341e-173
1.26964e-174
1.79186e-173
1.72886e-174
2.2294e-173
2.30053e-174
2.70535e-173
2.99564e-174
3.19972e-173
3.81689e-174
3.68888e-173
4.76255e-174
4.14573e-173
5.82491e-174
4.54089e-173
6.98936e-174
4.84462e-173
8.23429e-174
5.02872e-173
9.53122e-174
5.0688e-173
1.08462e-173
4.94349e-173
1.21367e-173
4.6236e-173
1.33199e-173
4.03505e-173
1.41084e-173
3.01627e-173
1.3515e-173
1.50967e-173
9.50057e-174
2.64557e-174
2.75246e-174
5.41325e-176
1.33875e-175
1.05583e-177
-3.39129e-173
1.10068e-174
-1.48923e-171
1.24253e-172
-7.68155e-171
2.34485e-171
-1.49417e-170
7.40793e-171
-2.00592e-170
1.03385e-170
-2.32177e-170
1.08801e-170
-2.50816e-170
1.04056e-170
-2.59631e-170
9.59872e-171
-2.59993e-170
8.67352e-171
-2.52938e-170
7.70339e-171
-2.3962e-170
6.72794e-171
-2.2135e-170
5.77725e-171
-1.99527e-170
4.87542e-171
-1.75556e-170
4.04096e-171
-1.50779e-170
3.28702e-171
-1.2641e-170
2.62191e-171
-1.03535e-170
2.04943e-171
-8.27909e-171
1.57015e-171
-6.45209e-171
1.17774e-171
-4.892e-171
8.62996e-172
-3.60458e-171
6.16449e-172
-2.57552e-171
4.2863e-172
-1.77986e-171
2.89394e-172
-1.18618e-171
1.89175e-172
-7.60271e-172
1.19351e-172
-4.67566e-172
7.24548e-173
-2.7558e-172
4.22174e-173
-1.55751e-172
2.35756e-173
-8.45294e-173
1.26218e-173
-4.40674e-173
6.48599e-174
-2.20313e-173
3.1993e-174
-1.05221e-173
1.51188e-174
-4.7731e-174
6.81645e-175
-2.04236e-174
2.91436e-175
-8.18969e-175
1.17303e-175
-3.06469e-175
4.41423e-176
-1.06844e-175
1.54584e-176
-3.46983e-176
5.02644e-177
-1.05237e-176
1.51643e-177
-5.5958e-177
4.25241e-178
-2.29705e-175
2.07882e-178
-1.94131e-173
7.79187e-177
-1.61411e-171
5.96291e-175
-1.3172e-169
4.44328e-173
-1.05599e-167
3.20754e-171
-8.32521e-166
2.23674e-169
-6.46092e-164
1.49964e-167
-4.94108e-162
9.59016e-166
-3.72786e-160
5.76502e-164
-2.77775e-158
3.16206e-162
-2.04633e-156
1.46776e-160
-1.49109e-154
4.23737e-159
-1.03573e-152
-1.74845e-154
-2.14205e-151
-1.9122e-152
-9.10702e-151
-7.80178e-153
-9.61004e-149
-1.18027e-150
-9.39758e-147
-1.50728e-148
-8.42239e-145
-1.67082e-146
-6.86744e-143
-1.62563e-144
-5.0546e-141
-1.39171e-142
-3.32949e-139
-1.04599e-140
-1.94399e-137
-6.86365e-139
-9.9512e-136
-3.89995e-137
-4.409e-134
-1.89785e-135
-1.66495e-132
-7.79748e-134
-5.25794e-131
-2.65539e-132
-1.35532e-129
-7.31587e-131
-2.75775e-128
-1.57848e-129
-4.18828e-127
-2.55039e-128
-4.26963e-126
-2.90307e-127
-2.63786e-125
-2.17708e-126
-1.09282e-124
-1.0639e-125
-3.80365e-124
-3.78503e-125
-9.80951e-124
-1.05526e-124
-9.00266e-124
-1.89011e-124
-6.01353e-124
-3.30291e-124
-2.62389e-124
-3.58042e-124
-4.00724e-125
-2.29898e-124
-2.52251e-126
-3.86208e-125
-9.06404e-128
-2.50044e-126
-1.96327e-129
-9.1245e-128
-2.46279e-131
-1.99712e-129
-2.08392e-133
-2.5193e-131
-1.3205e-135
-2.13991e-133
-6.5659e-138
-1.36034e-135
-2.545e-140
-6.78507e-138
-7.66057e-143
-2.6381e-140
-1.83807e-145
-7.9652e-143
-3.56591e-148
-1.91729e-145
-5.81471e-151
-3.73415e-148
-1.42937e-153
-7.16413e-151
-1.73458e-156
-1.79143e-151
-2.33905e-159
-4.97388e-154
-2.62326e-162
-7.36319e-157
-2.34861e-165
-9.13977e-160
-1.52438e-168
-9.12932e-163
-3.36844e-170
-6.67192e-166
-3.0837e-168
-1.36645e-167
-2.81924e-166
-1.47954e-165
-2.51414e-164
-1.64567e-163
-2.14274e-162
-1.85372e-161
-1.64969e-160
-2.12046e-159
-1.01303e-158
-2.41403e-157
-2.73046e-157
-2.66302e-155
6.37115e-157
-3.03712e-153
2.90335e-154
-2.23658e-151
5.82925e-152
-1.33954e-151
1.72343e-149
-2.08502e-149
4.5943e-147
-5.28916e-147
1.08673e-144
-1.22033e-144
2.27313e-142
-2.50698e-142
4.15183e-140
-4.51591e-140
6.52623e-138
-7.01966e-138
8.68429e-136
-9.25337e-136
9.59408e-134
-1.01381e-133
8.5986e-132
-9.01579e-132
6.07849e-130
-6.32402e-130
3.2717e-128
-3.375e-128
1.28309e-126
-1.30995e-126
3.40486e-125
-3.4243e-125
5.33717e-124
-5.21835e-124
3.81561e-123
-3.44454e-123
1.14944e-122
-8.18733e-123
1.85203e-122
-8.11905e-123
1.50525e-122
-4.92514e-123
3.77364e-123
-1.98817e-123
7.72501e-124
-5.03077e-124
1.58393e-124
-1.10761e-124
2.40478e-125
-1.98078e-125
2.25018e-126
-2.44749e-126
2.01399e-127
-1.97417e-127
1.19986e-128
-1.59759e-128
4.31418e-129
-1.42867e-128
-4.58877e-130
-1.43532e-128
-8.53088e-130
3.85638e-128
-2.02459e-130
1.01855e-128
-2.45769e-131
1.23625e-129
-1.96962e-132
9.55692e-131
-1.16591e-133
5.34486e-132
-5.42914e-135
2.31323e-133
-2.07051e-136
8.07125e-135
-6.65095e-138
2.33183e-136
-1.83732e-139
5.67834e-138
-4.43655e-141
1.17871e-139
-9.48953e-143
2.09685e-141
-1.81851e-144
3.18999e-143
-3.15373e-146
4.08789e-145
-4.99535e-148
4.20852e-147
-7.28948e-150
2.92089e-149
-9.89864e-152
-1.83084e-155
-1.32321e-153
-4.95818e-156
-1.74011e-155
-1.26527e-157
-2.24965e-157
-2.42133e-159
-2.85714e-159
-4.06527e-161
-3.56208e-161
-6.29485e-163
-4.35613e-163
-9.1909e-165
-5.2213e-165
-1.28e-166
-6.12888e-167
-1.71165e-168
-7.03949e-169
-2.20632e-170
-7.90454e-171
-2.74808e-172
-8.6686e-173
-3.31195e-174
-8.97012e-175
-3.73802e-176
8.49317e-176
3.83652e-177
2.70077e-175
1.31569e-176
7.18836e-175
3.76044e-176
1.78509e-174
9.99223e-176
4.1561e-174
2.48191e-175
9.13082e-174
5.80272e-175
1.90607e-173
1.28645e-174
3.80222e-173
2.72086e-174
7.27482e-173
5.51239e-174
1.33719e-172
1.07183e-173
2.36022e-172
1.99988e-173
3.99471e-172
3.57666e-173
6.47969e-172
6.1295e-173
1.00864e-171
1.00819e-172
1.51024e-171
1.59572e-172
2.18126e-171
2.43786e-172
3.04767e-171
3.60636e-172
4.12989e-171
5.18056e-172
5.4395e-171
7.24453e-172
6.97125e-171
9.87645e-172
8.70862e-171
1.31544e-171
1.06227e-170
1.71544e-171
1.26601e-170
2.19278e-171
1.47301e-170
2.74688e-171
1.6732e-170
3.37456e-171
1.85566e-170
4.0694e-171
2.00882e-170
4.82078e-171
2.12125e-170
5.61406e-171
2.18258e-170
6.43127e-171
2.18369e-170
7.25064e-171
2.11633e-170
8.0445e-171
1.96826e-170
8.75744e-171
1.70895e-170
9.20532e-171
1.27528e-170
8.78424e-171
6.48865e-171
6.26852e-171
1.2147e-171
1.9383e-171
2.51518e-173
9.51997e-173
7.54976e-175
-5.76239e-171
2.60052e-172
-2.51433e-169
2.94172e-170
-1.22515e-168
5.51102e-169
-2.33989e-168
1.64362e-168
-3.12955e-168
2.25263e-168
-3.62869e-168
2.36366e-168
-3.93572e-168
2.26701e-168
-4.09726e-168
2.10196e-168
-4.13233e-168
1.91215e-168
-4.05436e-168
1.71194e-168
-3.87851e-168
1.509e-168
-3.62236e-168
1.30928e-168
-3.3055e-168
1.11768e-168
-2.94811e-168
9.382e-169
-2.56996e-168
7.73853e-169
-2.18987e-168
6.2669e-169
-1.82573e-168
4.97983e-169
-1.48848e-168
3.88426e-169
-1.18468e-168
2.97087e-169
-9.18881e-169
2.22341e-169
-6.93878e-169
1.62478e-169
-5.09083e-169
1.15781e-169
-3.61939e-169
8.02645e-170
-2.48633e-169
5.39751e-170
-1.64564e-169
3.50965e-170
-1.04695e-169
2.1999e-170
-6.39377e-170
1.32576e-170
-3.75045e-170
7.66949e-171
-2.11653e-170
4.26046e-171
-1.14997e-170
2.27586e-171
-6.00826e-171
1.16957e-171
-3.00834e-171
5.77373e-172
-1.43548e-171
2.72786e-172
-6.48257e-172
1.22618e-172
-2.75214e-172
5.20584e-173
-1.09348e-172
2.07273e-173
-4.05943e-173
7.70101e-174
-1.40837e-173
2.66421e-174
-4.58656e-174
8.57836e-175
-3.1492e-174
2.58008e-175
-1.58072e-172
1.62651e-175
-1.37865e-170
7.44293e-174
-1.18139e-168
5.86698e-172
-9.9314e-167
4.49524e-170
-8.19773e-165
3.3331e-168
-6.65021e-163
2.38406e-166
-5.3068e-161
1.63635e-164
-4.16972e-159
1.06813e-162
-3.22958e-157
6.52194e-161
-2.46927e-155
3.59863e-159
-1.86125e-153
1.64383e-157
-1.07089e-151
4.90696e-156
-1.77542e-151
-4.64192e-154
-1.86353e-149
-1.39911e-151
-2.16462e-147
-2.70095e-149
-2.32527e-145
-4.07314e-147
-2.29557e-143
-5.19168e-145
-2.0693e-141
-5.74611e-143
-1.69162e-139
-5.57628e-141
-1.24486e-137
-4.7547e-139
-8.17913e-136
-3.55381e-137
-4.75387e-134
-2.31576e-135
-2.41824e-132
-1.305e-133
-1.06313e-130
-6.29089e-132
-3.97831e-129
-2.55767e-130
-1.24352e-127
-8.61028e-129
-3.16912e-126
-2.34265e-127
-6.36818e-125
-4.98558e-126
-9.53463e-124
-7.93233e-125
-9.54175e-123
-8.86771e-124
-5.74398e-122
-6.50312e-123
-2.30815e-121
-3.09314e-122
-7.81166e-121
-1.07017e-121
-1.95424e-120
-2.91448e-121
-1.77393e-120
-5.12707e-121
-1.15701e-120
-7.1788e-121
-4.95157e-121
-7.22015e-121
-7.42927e-122
-4.44371e-121
-4.61121e-123
-7.29505e-122
-1.63768e-124
-4.65385e-123
-3.51291e-126
-1.67892e-124
-4.37175e-128
-3.64133e-126
-3.67575e-130
-4.56074e-128
-2.31775e-132
-3.85308e-130
-1.14827e-134
-2.43995e-132
-4.43986e-137
-1.21398e-134
-1.33451e-139
-4.71441e-137
-3.20035e-142
-1.42337e-139
-6.21053e-145
-3.42967e-142
-1.00543e-147
-6.68949e-145
-1.37125e-150
-1.0892e-147
-2.65662e-153
-1.79583e-150
-2.84403e-156
-2.53382e-151
-3.22139e-159
-9.22773e-154
-2.91641e-162
-1.16009e-156
-1.91112e-165
-1.1698e-159
-3.46257e-167
-8.59822e-163
-3.25972e-165
-1.43243e-164
-3.08072e-163
-1.57978e-162
-2.85562e-161
-1.79411e-160
-2.56293e-159
-2.06402e-158
-2.11627e-157
-2.43108e-156
-1.44928e-155
-2.86421e-154
-6.06473e-154
-3.01426e-152
4.64181e-154
-1.83498e-151
2.26915e-151
-9.04634e-151
8.54851e-149
-1.62914e-148
2.66112e-146
-3.6149e-146
7.24389e-144
-9.22562e-144
1.73669e-141
-2.11934e-141
3.66819e-139
-4.34142e-139
6.75215e-137
-7.8079e-137
1.06861e-134
-1.21316e-134
1.43121e-132
-1.60033e-132
1.59162e-130
-1.75667e-130
1.43657e-128
-1.56717e-128
1.02348e-126
-1.10428e-126
5.55738e-125
-5.92921e-125
2.20138e-123
-2.31935e-123
5.90897e-122
-6.12345e-122
9.38636e-121
-9.45495e-121
6.81756e-120
-6.36914e-120
2.09006e-119
-1.56384e-119
3.41319e-119
-1.66324e-119
2.86048e-119
-1.28487e-119
7.26309e-120
-5.26143e-120
1.52377e-120
-1.35637e-120
3.21658e-121
-3.06176e-121
5.01201e-122
-5.61703e-122
4.78415e-123
-7.09484e-123
4.15506e-124
-5.8304e-124
2.47579e-125
-4.57537e-125
2.4724e-126
-2.4374e-125
2.03367e-127
-9.00598e-126
-5.91471e-127
2.37531e-125
-1.69743e-127
8.50807e-126
-2.24858e-128
1.15582e-126
-1.90736e-129
9.58296e-128
-1.17805e-130
5.64783e-129
-5.67485e-132
2.5517e-130
-2.22518e-133
9.23885e-132
-7.31216e-135
2.7579e-133
-2.05686e-136
6.91595e-135
-5.03399e-138
1.47436e-136
-1.08603e-139
2.68784e-138
-2.08795e-141
4.18546e-140
-3.61132e-143
5.49727e-142
-5.66741e-145
5.85631e-144
-8.13499e-147
4.43216e-146
-1.07632e-148
6.99683e-149
-1.38805e-150
-6.07732e-153
-1.75899e-152
-1.65374e-154
-2.18917e-154
-3.14794e-156
-2.67418e-156
-5.16619e-158
-3.20415e-158
-7.76261e-160
-3.76306e-160
-1.09547e-161
-4.32869e-162
-1.47087e-163
-4.87325e-164
-1.89282e-165
-5.36508e-166
-2.34481e-167
-5.77112e-168
-2.80368e-169
-6.05982e-170
-3.24082e-171
-6.08118e-172
-3.55226e-173
2.98405e-173
1.89174e-174
9.6542e-173
6.60702e-174
2.41957e-172
1.77969e-173
5.67258e-172
4.46789e-173
1.25073e-171
1.05162e-172
2.61116e-171
2.3377e-172
5.19742e-171
4.94408e-172
9.91761e-171
1.00068e-171
1.82019e-170
1.94537e-171
3.21674e-170
3.63786e-171
5.46937e-170
6.54024e-171
8.93209e-170
1.12885e-170
1.40035e-169
1.87011e-170
2.11067e-169
2.97874e-170
3.06581e-169
4.57395e-170
4.30379e-169
6.79206e-170
5.85602e-169
9.78465e-170
7.7432e-169
1.37143e-169
9.96956e-169
1.87456e-169
1.25114e-168
2.50209e-169
1.53305e-168
3.26812e-169
1.83725e-168
4.18615e-169
2.15464e-168
5.26383e-169
2.47029e-168
6.49501e-169
2.76874e-168
7.86936e-169
3.03387e-168
9.37053e-169
3.24907e-168
1.09741e-168
3.39857e-168
1.26488e-168
3.46801e-168
1.43561e-168
3.44529e-168
1.60516e-168
3.31927e-168
1.7679e-168
3.07185e-168
1.9121e-168
2.65815e-168
1.99991e-168
1.98637e-168
1.90829e-168
1.02962e-168
1.38572e-168
2.0493e-169
4.55073e-169
4.28581e-171
2.25127e-170
1.78163e-172
-5.57972e-169
3.32827e-170
-2.33313e-167
3.66825e-168
-1.07053e-166
6.58373e-167
-2.00384e-166
1.84821e-166
-2.67049e-166
2.48241e-166
-3.10153e-166
2.59619e-166
-3.37716e-166
2.49527e-166
-3.53488e-166
2.32381e-166
-3.58919e-166
2.1264e-166
-3.54935e-166
1.91735e-166
-3.42604e-166
1.70401e-166
-3.23225e-166
1.49223e-166
-2.98271e-166
1.28709e-166
-2.69325e-166
1.09278e-166
-2.37965e-166
9.1269e-167
-2.05769e-166
7.49253e-167
-1.74325e-166
6.04238e-167
-1.44627e-166
4.78956e-167
-1.17301e-166
3.72799e-167
-9.28521e-167
2.84324e-167
-7.16724e-167
2.12043e-167
-5.38409e-167
1.54452e-167
-3.92596e-167
1.09627e-167
-2.77059e-167
7.56041e-168
-1.88689e-167
5.0499e-168
-1.23707e-167
3.25668e-168
-7.79643e-168
2.02225e-168
-4.72657e-168
1.2071e-168
-2.76151e-168
6.92915e-169
-1.55645e-168
3.83124e-169
-8.45516e-169
2.04195e-169
-4.4129e-169
1.04782e-169
-2.20076e-169
5.15876e-170
-1.04129e-169
2.42277e-170
-4.64204e-170
1.07729e-170
-1.94055e-170
4.50203e-171
-7.59478e-171
1.75905e-171
-2.78439e-171
6.41197e-172
-9.68265e-172
2.18026e-172
-1.38969e-171
6.99693e-173
-9.87082e-170
9.21221e-173
-8.80095e-168
5.95911e-171
-7.69747e-166
4.79607e-169
-6.60487e-164
3.74483e-167
-5.56589e-162
2.82868e-165
-4.61099e-160
2.06034e-163
-3.75848e-158
1.43917e-161
-3.01592e-156
9.54772e-160
-2.38115e-154
5.91006e-158
-1.78286e-152
3.42258e-156
-2.22309e-151
1.86022e-154
-2.01994e-150
3.99215e-153
-2.71857e-148
-1.11408e-150
-3.44689e-146
-3.5733e-148
-4.04557e-144
-6.76075e-146
-4.37216e-142
-1.01104e-143
-4.327e-140
-1.2807e-141
-3.89875e-138
-1.4084e-139
-3.17802e-136
-1.35697e-137
-2.32726e-134
-1.14757e-135
-1.51905e-132
-8.49865e-134
-8.75861e-131
-5.48222e-132
-4.41451e-129
-3.05577e-130
-1.921e-127
-1.45595e-128
-7.10911e-126
-5.84682e-127
-2.19583e-124
-1.94292e-125
-5.52572e-123
-5.21443e-124
-1.09551e-121
-1.09372e-122
-1.61604e-120
-1.7128e-121
-1.58727e-119
-1.88031e-120
-9.31294e-119
-1.34878e-119
-3.63247e-118
-6.24818e-119
-1.19642e-117
-2.10402e-118
-2.90587e-117
-5.6017e-118
-2.6094e-117
-9.68379e-118
-1.66419e-117
-1.15056e-117
-6.99335e-118
-1.08494e-117
-1.03204e-118
-6.42301e-118
-6.32276e-120
-1.03209e-118
-2.22169e-121
-6.49503e-120
-4.72418e-123
-2.3188e-121
-5.8381e-125
-4.98821e-123
-4.88199e-127
-6.2089e-125
-3.06592e-129
-5.22176e-127
-1.51471e-131
-3.29657e-129
-5.84687e-134
-1.63737e-131
-1.75618e-136
-6.35537e-134
-4.21219e-139
-1.9199e-136
-8.18118e-142
-4.63322e-139
-1.32641e-144
-9.05875e-142
-1.80742e-147
-1.47944e-144
-2.07998e-150
-2.03269e-147
-3.29269e-153
-2.8093e-150
-2.98326e-156
-2.72821e-151
-2.72776e-159
-1.09418e-153
-1.80382e-162
-1.11929e-156
-2.66953e-164
-8.28435e-160
-2.57339e-162
-1.11944e-161
-2.50076e-160
-1.25575e-159
-2.39101e-158
-1.45301e-157
-2.24299e-156
-1.69875e-155
-1.95911e-154
-2.04747e-153
-8.88491e-153
-1.61651e-151
-8.09256e-153
-8.56449e-152
1.07949e-151
-6.66084e-150
2.36286e-148
-1.23877e-147
9.82231e-146
-2.6893e-145
3.17065e-143
-5.87742e-143
8.79108e-141
-1.23988e-140
2.13164e-138
-2.82827e-138
4.53756e-136
-5.76532e-136
8.40248e-134
-1.03329e-133
1.33663e-131
-1.60203e-131
1.79895e-129
-2.1114e-129
2.01075e-127
-2.3185e-127
1.82504e-125
-2.07187e-125
1.30855e-123
-1.46444e-123
7.15788e-122
-7.89966e-122
2.85991e-120
-3.10998e-120
7.75448e-119
-8.281e-119
1.24659e-117
-1.2936e-117
9.18616e-117
-8.87662e-117
2.86222e-116
-2.245e-116
4.73387e-116
-2.63042e-116
4.08395e-116
-2.33728e-116
1.04995e-116
-9.70493e-117
2.25532e-117
-2.54752e-117
4.89617e-118
-5.89076e-118
7.82474e-119
-1.10782e-118
7.61893e-120
-1.42993e-119
6.43514e-121
-1.19721e-120
3.95154e-122
-9.13131e-122
1.68779e-123
-3.5571e-122
4.10727e-124
-3.73297e-123
-2.55302e-124
6.81109e-123
-9.92946e-125
4.76899e-123
-1.47101e-125
7.52575e-124
-1.33689e-126
6.78994e-125
-8.69038e-128
4.25445e-126
-4.36322e-129
2.02023e-127
-1.77184e-130
7.63615e-129
-6.00092e-132
2.36911e-130
-1.73265e-133
6.15485e-132
-4.33587e-135
1.35606e-133
-9.52681e-137
2.55031e-135
-1.85748e-138
4.0928e-137
-3.24259e-140
5.54342e-139
-5.10786e-142
6.12221e-141
-7.31185e-144
4.93194e-143
-9.57465e-146
1.36515e-145
-1.20881e-147
-5.87193e-150
-1.49823e-149
-1.71009e-151
-1.8221e-151
-3.26318e-153
-2.17323e-153
-5.29252e-155
-2.54044e-155
-7.81319e-157
-2.9087e-157
-1.07987e-158
-3.25962e-159
-1.4171e-160
-3.57265e-161
-1.77966e-162
-3.82673e-163
-2.14892e-164
-4.00242e-165
-2.50204e-166
-4.08409e-167
-2.81395e-168
-4.03761e-169
-3.04158e-170
2.80186e-171
2.29255e-172
1.70955e-170
1.51109e-171
4.07873e-170
3.87713e-171
9.10708e-170
9.2747e-171
1.9166e-169
2.08459e-170
3.82881e-169
4.43588e-170
7.31174e-169
9.00375e-170
1.34194e-168
1.7533e-169
2.37427e-168
3.28669e-169
4.05279e-168
5.93777e-169
6.66702e-168
1.03301e-168
1.05497e-167
1.72785e-168
1.60492e-167
2.7779e-168
2.35081e-167
4.30032e-168
3.32376e-167
6.42797e-168
4.5493e-167
9.30699e-168
6.04553e-167
1.30948e-167
7.82021e-167
1.7955e-167
9.86637e-167
2.40478e-167
1.21507e-166
3.14965e-167
1.46311e-166
4.04243e-167
1.72565e-166
5.09528e-167
1.99442e-166
6.31306e-167
2.25617e-166
7.68439e-167
2.49802e-166
9.19501e-167
2.707e-166
1.08249e-166
2.8702e-166
1.25468e-166
2.97561e-166
1.4327e-166
3.01261e-166
1.61254e-166
2.97252e-166
1.78967e-166
2.84716e-166
1.95833e-166
2.6227e-166
2.10665e-166
2.26342e-166
2.19581e-166
1.69633e-166
2.09992e-166
8.9742e-167
1.55559e-166
1.90465e-167
5.44532e-167
4.17707e-169
2.82104e-168
2.29647e-170
-3.64606e-167
2.78143e-168
-1.41551e-165
2.92138e-166
-6.09368e-165
4.86415e-165
-1.11745e-164
1.28027e-164
-1.48301e-164
1.68414e-164
-1.7251e-164
1.75394e-164
-1.88581e-164
1.68858e-164
-1.98451e-164
1.57897e-164
-2.02813e-164
1.45281e-164
-2.02086e-164
1.31867e-164
-1.96747e-164
1.18097e-164
-1.87407e-164
1.0432e-164
-1.74785e-164
9.08526e-165
-1.5967e-164
7.79652e-165
-1.42882e-164
6.58822e-165
-1.2527e-164
5.47783e-165
-1.07739e-164
4.47924e-165
-9.08616e-165
3.60451e-165
-7.50083e-165
2.85198e-165
-6.05141e-165
2.21392e-165
-4.76802e-165
1.68277e-165
-3.6618e-165
1.25113e-165
-2.73406e-165
9.07841e-166
-1.97873e-165
6.41058e-166
-1.38407e-165
4.39099e-166
-9.33283e-166
2.90817e-166
-6.05787e-166
1.85718e-166
-3.78766e-166
1.14162e-166
-2.28587e-166
6.75789e-167
-1.33321e-166
3.85917e-167
-7.5096e-167
2.1281e-167
-4.07287e-167
1.13211e-167
-2.1154e-167
5.79092e-168
-1.04458e-167
2.83181e-168
-4.86851e-168
1.31378e-168
-2.13121e-168
5.7385e-169
-8.75024e-169
2.34716e-169
-3.3732e-169
8.97224e-170
-1.29756e-169
3.20661e-170
-7.56728e-169
1.13776e-170
-6.54842e-167
6.08338e-170
-5.86477e-165
4.79101e-168
-5.14593e-163
3.86997e-166
-4.42714e-161
3.02833e-164
-3.73848e-159
2.29051e-162
-3.10257e-157
1.66895e-160
-2.53439e-155
1.16515e-158
-2.03467e-153
7.75911e-157
-1.19733e-151
6.1084e-155
-2.01786e-151
2.94429e-153
-2.29044e-149
2.08874e-151
-3.169e-147
5.85082e-150
-4.30662e-145
-2.40038e-147
-5.47448e-143
-7.21162e-145
-6.42183e-141
-1.3384e-142
-6.91908e-139
-1.97707e-140
-6.81284e-137
-2.47769e-138
-6.09708e-135
-2.69602e-136
-4.92955e-133
-2.56921e-134
-3.57637e-131
-2.14801e-132
-2.31049e-129
-1.57184e-130
-1.31749e-127
-1.00143e-128
-6.56271e-126
-5.51054e-127
-2.82075e-124
-2.591e-125
-1.03056e-122
-1.02643e-123
-3.14113e-121
-3.36356e-122
-7.79667e-120
-8.89821e-121
-1.52389e-118
-1.83857e-119
-2.21374e-117
-2.8334e-118
-2.13357e-116
-3.05455e-117
-1.22035e-115
-2.14378e-116
-4.62279e-115
-9.67753e-116
-1.48282e-114
-3.17398e-115
-3.49897e-114
-8.26654e-115
-3.10872e-114
-1.40503e-114
-1.941e-114
-1.47582e-114
-8.01673e-115
-1.31631e-114
-1.16482e-115
-7.52214e-115
-7.05031e-117
-1.18493e-115
-2.45322e-118
-7.36325e-117
-5.17568e-120
-2.60375e-118