/*--------------------------------*- C++ -*----------------------------------*\
| =========                 |                                                 |
| \\      /  F ield         | OpenFOAM: The Open Source CFD Toolbox           |
|  \\    /   O peration     | Version:  2412                                  |
|   \\  /    A nd           | Website:  www.openfoam.com                      |
|    \\/     M anipulation  |                                                 |
\*---------------------------------------------------------------------------*/
FoamFile
{
    version     2.0;
    format      ascii;
    arch        "LSB;label=32;scalar=64";
    class       volScalarField;
    location    "1.8";
    object      p;
}
// * * * * * * * * * * * * * * * * * * * * * * * * * * * * * * * * * * * * * //

dimensions      [1 -1 -2 0 0 0 0];

internalField   nonuniform List<scalar> 
40000
(
0
-0.000325186
0.000273647
0.00170229
0.00389455
0.00682005
0.010464
0.0148177
0.0198758
0.0256342
0.0320899
0.0392408
0.0470848
0.0556202
0.0648453
0.0747581
0.0853569
0.0966392
0.108603
0.121245
0.134563
0.148553
0.163211
0.178534
0.194517
0.211155
0.228441
0.246368
0.264931
0.284119
0.303926
0.324341
0.345354
0.366954
0.389128
0.411863
0.435145
0.458959
0.483289
0.508116
0.533422
0.559188
0.585391
0.612009
0.639019
0.666395
0.69411
0.722138
0.750449
0.779014
0.807802
0.83678
0.865917
0.895178
0.924526
0.953927
0.983343
1.01274
1.04207
1.0713
1.1004
1.12931
1.15802
1.18647
1.21464
1.24248
1.26996
1.29705
1.32371
1.34991
1.37563
1.40082
1.42547
1.44955
1.47303
1.49589
1.51811
1.53967
1.56056
1.58075
1.60024
1.61901
1.63706
1.65437
1.67095
1.68678
1.70186
1.71619
1.72976
1.74258
1.75465
1.76596
1.77653
1.78634
1.79541
1.80374
1.81132
1.81816
1.82427
1.82965
1.83429
1.8382
1.84139
1.84384
1.84557
1.84657
1.84684
1.84639
1.84522
1.84332
1.8407
1.83735
1.8333
1.82853
1.82305
1.81686
1.80998
1.80241
1.79416
1.78523
1.77565
1.76541
1.75454
1.74305
1.73095
1.71826
1.705
1.69118
1.67685
1.662
1.64668
1.6309
1.61469
1.59808
1.58109
1.56376
1.54612
1.52818
1.50999
1.49157
1.47295
1.45417
1.43524
1.41621
1.39709
1.37793
1.35875
1.33957
1.32042
1.30133
1.28232
1.26342
1.24465
1.22603
1.20758
1.18933
1.17129
1.15348
1.13592
1.11864
1.10164
1.08493
1.06854
1.05247
1.03674
1.02136
1.00633
0.99168
0.977411
0.963534
0.950056
0.936985
0.924328
0.912089
0.900277
0.888894
0.877946
0.867439
0.857375
0.847759
0.838594
0.829882
0.821625
0.813829
0.806494
0.799623
0.793219
0.787285
0.781822
0.776833
0.77232
0.768284
0.764726
0.761645
0.759042
0.756916
0.755269
0.754099
0.75341
0.7532
-3.92506
-3.92498
-3.92424
-3.92276
-3.92054
-3.91761
-3.91396
-3.9096
-3.90454
-3.89878
-3.89232
-3.88517
-3.87732
-3.86879
-3.85956
-3.84965
-3.83905
-3.82777
-3.81581
-3.80316
-3.78985
-3.77585
-3.7612
-3.74587
-3.72989
-3.71325
-3.69596
-3.67803
-3.65947
-3.64027
-3.62047
-3.60005
-3.57903
-3.55743
-3.53525
-3.51251
-3.48922
-3.46539
-3.44106
-3.41622
-3.3909
-3.36513
-3.33891
-3.31228
-3.28526
-3.25787
-3.23014
-3.20209
-3.17377
-3.14518
-3.11637
-3.08737
-3.05821
-3.02893
-2.99956
-2.97013
-2.9407
-2.91128
-2.88192
-2.85266
-2.82354
-2.7946
-2.76587
-2.73739
-2.7092
-2.68134
-2.65383
-2.62672
-2.60004
-2.57382
-2.54808
-2.52287
-2.4982
-2.4741
-2.45061
-2.42773
-2.4055
-2.38393
-2.36303
-2.34283
-2.32333
-2.30456
-2.2865
-2.26918
-2.25261
-2.23678
-2.22169
-2.20737
-2.19379
-2.18097
-2.1689
-2.15759
-2.14703
-2.13721
-2.12815
-2.11982
-2.11224
-2.1054
-2.09929
-2.09392
-2.08928
-2.08537
-2.08219
-2.07974
-2.07801
-2.07701
-2.07674
-2.07719
-2.07837
-2.08027
-2.0829
-2.08624
-2.0903
-2.09507
-2.10056
-2.10675
-2.11363
-2.12121
-2.12946
-2.1384
-2.14799
-2.15823
-2.16912
-2.18062
-2.19274
-2.20544
-2.21871
-2.23254
-2.24689
-2.26175
-2.27709
-2.29289
-2.30911
-2.32574
-2.34274
-2.36009
-2.37776
-2.39571
-2.41392
-2.43236
-2.45099
-2.4698
-2.48874
-2.50779
-2.52692
-2.5461
-2.5653
-2.58449
-2.60365
-2.62276
-2.64178
-2.66069
-2.67947
-2.69811
-2.71656
-2.73483
-2.75287
-2.77069
-2.78825
-2.80554
-2.82255
-2.83926
-2.85566
-2.87173
-2.88747
-2.90285
-2.91788
-2.93253
-2.9468
-2.96068
-2.97416
-2.98724
-2.99989
-3.01213
-3.02395
-3.03533
-3.04628
-3.05679
-3.06686
-3.07647
-3.08564
-3.09435
-3.10261
-3.1104
-3.11774
-3.12461
-3.13101
-3.13695
-3.14241
-3.1474
-3.15191
-3.15595
-3.15951
-3.16259
-3.16519
-3.16731
-3.16896
-3.17012
-3.1708
-3.17101
-7.85061
-7.85036
-7.84951
-7.84796
-7.84571
-7.84275
-7.83908
-7.83472
-7.82965
-7.82389
-7.81743
-7.81027
-7.80242
-7.79389
-7.78466
-7.77474
-7.76414
-7.75286
-7.74089
-7.72824
-7.71492
-7.70093
-7.68626
-7.67093
-7.65494
-7.63829
-7.621
-7.60306
-7.58448
-7.56528
-7.54546
-7.52503
-7.50399
-7.48237
-7.46018
-7.43741
-7.4141
-7.39026
-7.36589
-7.34103
-7.31568
-7.28987
-7.26362
-7.23696
-7.20989
-7.18246
-7.15469
-7.1266
-7.09822
-7.06959
-7.04073
-7.01168
-6.98246
-6.95312
-6.92369
-6.89421
-6.86471
-6.83524
-6.80582
-6.7765
-6.74732
-6.71832
-6.68953
-6.66099
-6.63274
-6.60482
-6.57726
-6.55009
-6.52336
-6.49708
-6.4713
-6.44604
-6.42133
-6.3972
-6.37367
-6.35076
-6.3285
-6.3069
-6.28599
-6.26576
-6.24625
-6.22746
-6.20939
-6.19206
-6.17548
-6.15964
-6.14456
-6.13022
-6.11665
-6.10383
-6.09176
-6.08045
-6.06989
-6.06008
-6.05102
-6.0427
-6.03512
-6.02829
-6.02218
-6.01682
-6.01218
-6.00827
-6.0051
-6.00265
-6.00093
-5.99993
-5.99967
-6.00012
-6.00131
-6.00321
-6.00584
-6.00919
-6.01325
-6.01803
-6.02352
-6.02972
-6.03661
-6.0442
-6.05247
-6.06142
-6.07103
-6.0813
-6.0922
-6.10374
-6.11588
-6.12861
-6.14192
-6.15577
-6.17016
-6.18506
-6.20044
-6.21627
-6.23254
-6.24921
-6.26626
-6.28365
-6.30136
-6.31936
-6.33762
-6.3561
-6.37479
-6.39364
-6.41262
-6.43171
-6.45089
-6.47011
-6.48935
-6.50858
-6.52778
-6.54692
-6.56598
-6.58493
-6.60375
-6.62241
-6.6409
-6.65919
-6.67726
-6.6951
-6.71269
-6.73
-6.74703
-6.76376
-6.78018
-6.79627
-6.81202
-6.82742
-6.84246
-6.85712
-6.8714
-6.88529
-6.89878
-6.91186
-6.92453
-6.93678
-6.9486
-6.95999
-6.97095
-6.98146
-6.99153
-7.00115
-7.01032
-7.01904
-7.0273
-7.0351
-7.04244
-7.04931
-7.05572
-7.06165
-7.06712
-7.07211
-7.07662
-7.08066
-7.08422
-7.0873
-7.0899
-7.09203
-7.09367
-7.09483
-7.09551
-7.09573
-11.7767
-11.7764
-11.7755
-11.7739
-11.7716
-11.7686
-11.765
-11.7606
-11.7555
-11.7497
-11.7433
-11.7361
-11.7283
-11.7197
-11.7105
-11.7006
-11.69
-11.6787
-11.6667
-11.654
-11.6407
-11.6267
-11.612
-11.5967
-11.5807
-11.564
-11.5467
-11.5288
-11.5102
-11.4909
-11.4711
-11.4506
-11.4296
-11.4079
-11.3857
-11.3629
-11.3395
-11.3157
-11.2912
-11.2663
-11.2409
-11.2151
-11.1888
-11.162
-11.1349
-11.1074
-11.0796
-11.0514
-11.0229
-10.9942
-10.9653
-10.9361
-10.9068
-10.8774
-10.8479
-10.8183
-10.7887
-10.7591
-10.7296
-10.7002
-10.6709
-10.6418
-10.6129
-10.5843
-10.556
-10.5279
-10.5003
-10.473
-10.4462
-10.4199
-10.394
-10.3687
-10.3439
-10.3197
-10.2961
-10.2732
-10.2509
-10.2292
-10.2083
-10.188
-10.1685
-10.1496
-10.1316
-10.1142
-10.0976
-10.0818
-10.0667
-10.0523
-10.0388
-10.0259
-10.0139
-10.0026
-9.99202
-9.98222
-9.97316
-9.96485
-9.95728
-9.95045
-9.94435
-9.93899
-9.93436
-9.93047
-9.9273
-9.92486
-9.92314
-9.92215
-9.92189
-9.92235
-9.92354
-9.92545
-9.92809
-9.93144
-9.93551
-9.9403
-9.9458
-9.95201
-9.95892
-9.96653
-9.97482
-9.9838
-9.99344
-10.0037
-10.0147
-10.0263
-10.0384
-10.0512
-10.0646
-10.0785
-10.0929
-10.1079
-10.1233
-10.1392
-10.1556
-10.1723
-10.1894
-10.2069
-10.2247
-10.2428
-10.2611
-10.2797
-10.2984
-10.3173
-10.3364
-10.3556
-10.3748
-10.3941
-10.4134
-10.4327
-10.452
-10.4712
-10.4903
-10.5093
-10.5282
-10.5469
-10.5654
-10.5838
-10.6019
-10.6198
-10.6374
-10.6548
-10.6718
-10.6886
-10.705
-10.7212
-10.7369
-10.7524
-10.7674
-10.7821
-10.7964
-10.8103
-10.8238
-10.8369
-10.8496
-10.8619
-10.8737
-10.8851
-10.8961
-10.9066
-10.9167
-10.9263
-10.9355
-10.9442
-10.9525
-10.9603
-10.9676
-10.9745
-10.9809
-10.9869
-10.9923
-10.9973
-11.0018
-11.0059
-11.0094
-11.0125
-11.0151
-11.0172
-11.0189
-11.02
-11.0207
-11.021
-15.7035
-15.7032
-15.7022
-15.7006
-15.6983
-15.6952
-15.6916
-15.6872
-15.6821
-15.6763
-15.6698
-15.6627
-15.6548
-15.6462
-15.637
-15.6271
-15.6165
-15.6052
-15.5932
-15.5805
-15.5672
-15.5532
-15.5385
-15.5231
-15.5071
-15.4904
-15.4731
-15.4551
-15.4365
-15.4172
-15.3973
-15.3769
-15.3558
-15.3341
-15.3118
-15.2889
-15.2655
-15.2416
-15.2171
-15.1921
-15.1667
-15.1407
-15.1143
-15.0875
-15.0603
-15.0327
-15.0047
-14.9765
-14.9479
-14.9191
-14.89
-14.8607
-14.8313
-14.8018
-14.7721
-14.7424
-14.7127
-14.683
-14.6533
-14.6238
-14.5943
-14.5651
-14.5361
-14.5073
-14.4788
-14.4507
-14.4229
-14.3956
-14.3686
-14.3422
-14.3162
-14.2908
-14.2659
-14.2416
-14.218
-14.1949
-14.1726
-14.1509
-14.1298
-14.1095
-14.09
-14.0711
-14.053
-14.0356
-14.019
-14.0032
-13.9881
-13.9737
-13.9602
-13.9473
-13.9353
-13.924
-13.9134
-13.9036
-13.8946
-13.8863
-13.8787
-13.8719
-13.8658
-13.8605
-13.8558
-13.852
-13.8488
-13.8464
-13.8446
-13.8437
-13.8434
-13.8439
-13.8451
-13.847
-13.8496
-13.853
-13.8571
-13.8619
-13.8674
-13.8736
-13.8806
-13.8882
-13.8965
-13.9055
-13.9152
-13.9256
-13.9366
-13.9482
-13.9604
-13.9733
-13.9867
-14.0007
-14.0152
-14.0302
-14.0458
-14.0618
-14.0782
-14.095
-14.1123
-14.1298
-14.1477
-14.1659
-14.1843
-14.203
-14.2219
-14.2409
-14.2601
-14.2793
-14.2987
-14.3181
-14.3375
-14.3569
-14.3762
-14.3955
-14.4147
-14.4338
-14.4528
-14.4716
-14.4902
-14.5086
-14.5268
-14.5447
-14.5624
-14.5798
-14.5969
-14.6137
-14.6302
-14.6464
-14.6622
-14.6777
-14.6928
-14.7075
-14.7218
-14.7357
-14.7493
-14.7624
-14.7751
-14.7874
-14.7993
-14.8107
-14.8217
-14.8322
-14.8423
-14.8519
-14.8611
-14.8699
-14.8781
-14.886
-14.8933
-14.9002
-14.9066
-14.9125
-14.918
-14.923
-14.9275
-14.9316
-14.9352
-14.9382
-14.9408
-14.943
-14.9446
-14.9458
-14.9465
-14.9467
-19.6309
-19.6306
-19.6296
-19.6279
-19.6256
-19.6226
-19.6189
-19.6145
-19.6094
-19.6036
-19.5971
-19.5899
-19.5821
-19.5735
-19.5643
-19.5543
-19.5437
-19.5324
-19.5204
-19.5077
-19.4944
-19.4803
-19.4656
-19.4502
-19.4342
-19.4175
-19.4001
-19.3821
-19.3634
-19.3442
-19.3242
-19.3037
-19.2825
-19.2608
-19.2385
-19.2155
-19.1921
-19.168
-19.1435
-19.1184
-19.0929
-19.0668
-19.0403
-19.0134
-18.986
-18.9583
-18.9302
-18.9018
-18.8731
-18.8441
-18.8149
-18.7855
-18.7559
-18.7262
-18.6964
-18.6665
-18.6366
-18.6067
-18.5769
-18.5472
-18.5176
-18.4882
-18.459
-18.43
-18.4014
-18.3731
-18.3452
-18.3176
-18.2906
-18.2639
-18.2379
-18.2123
-18.1873
-18.1629
-18.1392
-18.116
-18.0936
-18.0718
-18.0508
-18.0304
-18.0108
-17.9919
-17.9737
-17.9563
-17.9397
-17.9238
-17.9087
-17.8944
-17.8808
-17.868
-17.8559
-17.8446
-17.8341
-17.8243
-17.8153
-17.807
-17.7994
-17.7926
-17.7866
-17.7812
-17.7766
-17.7727
-17.7696
-17.7672
-17.7655
-17.7645
-17.7642
-17.7647
-17.7659
-17.7678
-17.7705
-17.7739
-17.778
-17.7828
-17.7883
-17.7946
-17.8015
-17.8092
-17.8176
-17.8266
-17.8363
-17.8467
-17.8578
-17.8695
-17.8818
-17.8948
-17.9083
-17.9223
-17.937
-17.9521
-17.9678
-17.9839
-18.0004
-18.0174
-18.0347
-18.0524
-18.0705
-18.0888
-18.1073
-18.1261
-18.1451
-18.1643
-18.1836
-18.203
-18.2225
-18.242
-18.2615
-18.281
-18.3005
-18.3199
-18.3393
-18.3585
-18.3775
-18.3964
-18.4151
-18.4336
-18.4519
-18.4699
-18.4877
-18.5051
-18.5223
-18.5392
-18.5558
-18.572
-18.5878
-18.6034
-18.6185
-18.6333
-18.6476
-18.6616
-18.6752
-18.6883
-18.7011
-18.7134
-18.7253
-18.7367
-18.7477
-18.7583
-18.7684
-18.778
-18.7873
-18.796
-18.8043
-18.8121
-18.8195
-18.8264
-18.8328
-18.8387
-18.8442
-18.8492
-18.8537
-18.8578
-18.8614
-18.8644
-18.8671
-18.8692
-18.8708
-18.872
-18.8727
-18.8729
-23.5591
-23.5587
-23.5577
-23.556
-23.5537
-23.5506
-23.5469
-23.5425
-23.5374
-23.5316
-23.5251
-23.5179
-23.51
-23.5015
-23.4922
-23.4823
-23.4716
-23.4603
-23.4483
-23.4356
-23.4222
-23.4082
-23.3934
-23.378
-23.362
-23.3452
-23.3278
-23.3098
-23.2911
-23.2717
-23.2518
-23.2312
-23.21
-23.1881
-23.1657
-23.1427
-23.1192
-23.095
-23.0704
-23.0452
-23.0195
-22.9934
-22.9667
-22.9397
-22.9122
-22.8843
-22.8561
-22.8275
-22.7986
-22.7695
-22.7401
-22.7105
-22.6807
-22.6507
-22.6207
-22.5906
-22.5605
-22.5304
-22.5004
-22.4705
-22.4407
-22.411
-22.3816
-22.3525
-22.3236
-22.2951
-22.267
-22.2393
-22.212
-22.1852
-22.159
-22.1333
-22.1082
-22.0836
-22.0597
-22.0365
-22.014
-21.9921
-21.971
-21.9505
-21.9308
-21.9119
-21.8937
-21.8763
-21.8596
-21.8438
-21.8286
-21.8143
-21.8007
-21.7879
-21.7759
-21.7646
-21.754
-21.7443
-21.7352
-21.727
-21.7194
-21.7126
-21.7066
-21.7013
-21.6967
-21.6928
-21.6897
-21.6872
-21.6856
-21.6846
-21.6843
-21.6848
-21.686
-21.688
-21.6906
-21.694
-21.6981
-21.703
-21.7085
-21.7148
-21.7218
-21.7295
-21.7379
-21.747
-21.7568
-21.7673
-21.7784
-21.7902
-21.8026
-21.8157
-21.8293
-21.8435
-21.8582
-21.8735
-21.8893
-21.9056
-21.9223
-21.9394
-21.9569
-21.9747
-21.9929
-22.0114
-22.0301
-22.0491
-22.0683
-22.0876
-22.1071
-22.1266
-22.1463
-22.1659
-22.1856
-22.2053
-22.2249
-22.2445
-22.2639
-22.2832
-22.3024
-22.3214
-22.3402
-22.3588
-22.3772
-22.3953
-22.4132
-22.4308
-22.4481
-22.465
-22.4816
-22.4979
-22.5139
-22.5294
-22.5446
-22.5594
-22.5738
-22.5879
-22.6015
-22.6147
-22.6274
-22.6398
-22.6517
-22.6632
-22.6742
-22.6848
-22.6949
-22.7046
-22.7138
-22.7226
-22.7309
-22.7387
-22.7461
-22.753
-22.7594
-22.7654
-22.7709
-22.7759
-22.7804
-22.7845
-22.7881
-22.7912
-22.7938
-22.7959
-22.7975
-22.7987
-22.7994
-22.7996
-27.4879
-27.4875
-27.4865
-27.4848
-27.4824
-27.4794
-27.4757
-27.4712
-27.4661
-27.4603
-27.4538
-27.4466
-27.4387
-27.4301
-27.4209
-27.4109
-27.4003
-27.3889
-27.3769
-27.3642
-27.3508
-27.3367
-27.322
-27.3065
-27.2904
-27.2736
-27.2562
-27.2381
-27.2194
-27.2
-27.1799
-27.1593
-27.138
-27.1161
-27.0936
-27.0705
-27.0468
-27.0226
-26.9978
-26.9725
-26.9467
-26.9204
-26.8936
-26.8664
-26.8387
-26.8107
-26.7822
-26.7535
-26.7244
-26.695
-26.6654
-26.6356
-26.6056
-26.5754
-26.5451
-26.5148
-26.4844
-26.4541
-26.4238
-26.3936
-26.3635
-26.3337
-26.304
-26.2746
-26.2455
-26.2168
-26.1884
-26.1605
-26.133
-26.106
-26.0796
-26.0537
-26.0284
-26.0037
-25.9797
-25.9563
-25.9337
-25.9117
-25.8905
-25.8699
-25.8502
-25.8312
-25.813
-25.7955
-25.7788
-25.7629
-25.7478
-25.7334
-25.7199
-25.7071
-25.695
-25.6838
-25.6733
-25.6635
-25.6545
-25.6462
-25.6387
-25.632
-25.6259
-25.6206
-25.616
-25.6122
-25.609
-25.6066
-25.6049
-25.604
-25.6038
-25.6042
-25.6055
-25.6074
-25.6101
-25.6135
-25.6176
-25.6225
-25.6281
-25.6344
-25.6414
-25.6492
-25.6576
-25.6668
-25.6767
-25.6872
-25.6984
-25.7103
-25.7228
-25.736
-25.7497
-25.7641
-25.779
-25.7944
-25.8104
-25.8268
-25.8437
-25.861
-25.8787
-25.8967
-25.9151
-25.9338
-25.9527
-25.9719
-25.9912
-26.0108
-26.0304
-26.0502
-26.07
-26.0899
-26.1097
-26.1296
-26.1494
-26.1691
-26.1887
-26.2082
-26.2275
-26.2466
-26.2656
-26.2843
-26.3028
-26.3211
-26.339
-26.3567
-26.3741
-26.3911
-26.4079
-26.4242
-26.4402
-26.4559
-26.4711
-26.486
-26.5005
-26.5146
-26.5282
-26.5415
-26.5543
-26.5667
-26.5786
-26.5901
-26.6012
-26.6118
-26.622
-26.6317
-26.6409
-26.6497
-26.658
-26.6659
-26.6733
-26.6802
-26.6866
-26.6926
-26.6981
-26.7031
-26.7076
-26.7117
-26.7153
-26.7183
-26.721
-26.7231
-26.7247
-26.7259
-26.7266
-26.7268
-31.4174
-31.417
-31.416
-31.4143
-31.4119
-31.4089
-31.4051
-31.4007
-31.3956
-31.3897
-31.3832
-31.376
-31.3681
-31.3595
-31.3503
-31.3403
-31.3296
-31.3183
-31.3062
-31.2935
-31.2801
-31.266
-31.2512
-31.2357
-31.2196
-31.2027
-31.1853
-31.1671
-31.1483
-31.1288
-31.1087
-31.088
-31.0666
-31.0446
-31.022
-30.9988
-30.9751
-30.9507
-30.9258
-30.9003
-30.8744
-30.8479
-30.8209
-30.7935
-30.7657
-30.7374
-30.7088
-30.6798
-30.6504
-30.6208
-30.591
-30.5609
-30.5306
-30.5002
-30.4696
-30.439
-30.4083
-30.3777
-30.3471
-30.3166
-30.2863
-30.2561
-30.2261
-30.1965
-30.1671
-30.1381
-30.1094
-30.0813
-30.0535
-30.0263
-29.9996
-29.9735
-29.948
-29.9232
-29.899
-29.8755
-29.8527
-29.8306
-29.8092
-29.7886
-29.7688
-29.7497
-29.7315
-29.714
-29.6973
-29.6813
-29.6662
-29.6518
-29.6383
-29.6255
-29.6135
-29.6022
-29.5917
-29.582
-29.573
-29.5648
-29.5573
-29.5505
-29.5445
-29.5392
-29.5347
-29.5308
-29.5277
-29.5253
-29.5236
-29.5227
-29.5225
-29.523
-29.5242
-29.5261
-29.5288
-29.5322
-29.5364
-29.5413
-29.5469
-29.5532
-29.5603
-29.5681
-29.5766
-29.5859
-29.5958
-29.6065
-29.6178
-29.6298
-29.6424
-29.6557
-29.6696
-29.6841
-29.6992
-29.7148
-29.731
-29.7476
-29.7647
-29.7822
-29.8001
-29.8184
-29.837
-29.8559
-29.8751
-29.8945
-29.914
-29.9338
-29.9537
-29.9737
-29.9937
-30.0138
-30.0339
-30.0539
-30.0739
-30.0938
-30.1136
-30.1333
-30.1528
-30.1721
-30.1912
-30.2101
-30.2287
-30.2471
-30.2652
-30.283
-30.3005
-30.3176
-30.3344
-30.3509
-30.367
-30.3827
-30.3981
-30.413
-30.4275
-30.4417
-30.4554
-30.4687
-30.4815
-30.494
-30.506
-30.5175
-30.5286
-30.5393
-30.5495
-30.5592
-30.5685
-30.5773
-30.5856
-30.5935
-30.6009
-30.6078
-30.6143
-30.6202
-30.6257
-30.6308
-30.6353
-30.6394
-30.6429
-30.646
-30.6487
-30.6508
-30.6524
-30.6536
-30.6543
-30.6545
-35.3476
-35.3472
-35.3462
-35.3445
-35.3421
-35.3391
-35.3353
-35.3309
-35.3257
-35.3199
-35.3134
-35.3062
-35.2982
-35.2896
-35.2804
-35.2704
-35.2597
-35.2483
-35.2362
-35.2235
-35.21
-35.1959
-35.1811
-35.1656
-35.1494
-35.1325
-35.115
-35.0968
-35.0779
-35.0584
-35.0382
-35.0174
-34.9959
-34.9738
-34.9511
-34.9278
-34.9039
-34.8794
-34.8543
-34.8287
-34.8026
-34.7759
-34.7487
-34.7211
-34.693
-34.6645
-34.6356
-34.6064
-34.5768
-34.5469
-34.5168
-34.4864
-34.4558
-34.425
-34.3942
-34.3632
-34.3322
-34.3013
-34.2703
-34.2395
-34.2088
-34.1783
-34.148
-34.118
-34.0883
-34.059
-34.03
-34.0015
-33.9735
-33.9461
-33.9191
-33.8928
-33.8671
-33.842
-33.8176
-33.7939
-33.771
-33.7487
-33.7273
-33.7066
-33.6867
-33.6675
-33.6492
-33.6317
-33.6149
-33.599
-33.5838
-33.5695
-33.5559
-33.5432
-33.5312
-33.5199
-33.5095
-33.4998
-33.4908
-33.4826
-33.4752
-33.4684
-33.4624
-33.4572
-33.4526
-33.4488
-33.4457
-33.4433
-33.4416
-33.4407
-33.4405
-33.441
-33.4422
-33.4442
-33.4468
-33.4503
-33.4544
-33.4593
-33.465
-33.4714
-33.4785
-33.4864
-33.495
-33.5043
-33.5143
-33.5251
-33.5365
-33.5486
-33.5614
-33.5749
-33.589
-33.6037
-33.6189
-33.6348
-33.6511
-33.668
-33.6853
-33.703
-33.7212
-33.7397
-33.7586
-33.7778
-33.7972
-33.8168
-33.8367
-33.8567
-33.8769
-33.8971
-33.9174
-33.9377
-33.958
-33.9783
-33.9985
-34.0186
-34.0387
-34.0585
-34.0782
-34.0977
-34.117
-34.1361
-34.1549
-34.1734
-34.1916
-34.2096
-34.2272
-34.2444
-34.2614
-34.2779
-34.2941
-34.3099
-34.3254
-34.3404
-34.355
-34.3692
-34.383
-34.3963
-34.4093
-34.4217
-34.4338
-34.4454
-34.4565
-34.4672
-34.4774
-34.4872
-34.4965
-34.5053
-34.5137
-34.5216
-34.529
-34.5359
-34.5424
-34.5484
-34.5539
-34.5589
-34.5635
-34.5676
-34.5711
-34.5742
-34.5769
-34.579
-34.5807
-34.5818
-34.5825
-34.5828
-39.2785
-39.2782
-39.2771
-39.2754
-39.273
-39.27
-39.2662
-39.2617
-39.2566
-39.2508
-39.2442
-39.237
-39.2291
-39.2205
-39.2112
-39.2012
-39.1905
-39.1791
-39.167
-39.1542
-39.1407
-39.1266
-39.1117
-39.0962
-39.0799
-39.063
-39.0454
-39.0271
-39.0082
-38.9886
-38.9683
-38.9474
-38.9258
-38.9036
-38.8808
-38.8573
-38.8333
-38.8086
-38.7834
-38.7576
-38.7312
-38.7044
-38.677
-38.6491
-38.6208
-38.5921
-38.5629
-38.5334
-38.5035
-38.4733
-38.4428
-38.4121
-38.3811
-38.35
-38.3188
-38.2875
-38.2561
-38.2248
-38.1935
-38.1623
-38.1312
-38.1003
-38.0696
-38.0392
-38.0092
-37.9795
-37.9502
-37.9214
-37.893
-37.8653
-37.838
-37.8114
-37.7854
-37.7602
-37.7356
-37.7117
-37.6885
-37.6662
-37.6446
-37.6238
-37.6037
-37.5845
-37.5662
-37.5486
-37.5318
-37.5159
-37.5007
-37.4864
-37.4728
-37.4601
-37.4481
-37.4369
-37.4265
-37.4168
-37.4079
-37.3997
-37.3923
-37.3856
-37.3796
-37.3744
-37.3699
-37.3661
-37.363
-37.3606
-37.3589
-37.358
-37.3578
-37.3583
-37.3595
-37.3615
-37.3642
-37.3676
-37.3718
-37.3767
-37.3824
-37.3888
-37.396
-37.4039
-37.4126
-37.422
-37.4321
-37.443
-37.4546
-37.4668
-37.4798
-37.4934
-37.5077
-37.5226
-37.5381
-37.5542
-37.5708
-37.5879
-37.6055
-37.6235
-37.6419
-37.6608
-37.6799
-37.6994
-37.7191
-37.7391
-37.7592
-37.7795
-37.8
-37.8205
-37.841
-37.8616
-37.8822
-37.9028
-37.9232
-37.9436
-37.9639
-37.9839
-38.0039
-38.0236
-38.0431
-38.0623
-38.0813
-38.1
-38.1184
-38.1365
-38.1542
-38.1716
-38.1887
-38.2054
-38.2217
-38.2376
-38.2531
-38.2682
-38.2829
-38.2972
-38.311
-38.3245
-38.3374
-38.35
-38.3621
-38.3737
-38.3849
-38.3956
-38.4059
-38.4157
-38.425
-38.4338
-38.4422
-38.4501
-38.4576
-38.4645
-38.471
-38.477
-38.4826
-38.4876
-38.4922
-38.4962
-38.4998
-38.5029
-38.5056
-38.5077
-38.5094
-38.5105
-38.5112
-38.5115
-43.2102
-43.2098
-43.2088
-43.207
-43.2046
-43.2016
-43.1978
-43.1933
-43.1882
-43.1823
-43.1758
-43.1686
-43.1606
-43.152
-43.1427
-43.1327
-43.122
-43.1106
-43.0985
-43.0856
-43.0721
-43.0579
-43.043
-43.0275
-43.0112
-42.9942
-42.9765
-42.9582
-42.9392
-42.9195
-42.8991
-42.8781
-42.8564
-42.8341
-42.8111
-42.7875
-42.7633
-42.7385
-42.713
-42.687
-42.6605
-42.6334
-42.6058
-42.5776
-42.549
-42.52
-42.4905
-42.4607
-42.4305
-42.3999
-42.3691
-42.338
-42.3067
-42.2752
-42.2435
-42.2118
-42.18
-42.1483
-42.1165
-42.0849
-42.0534
-42.0221
-41.991
-41.9602
-41.9297
-41.8996
-41.8699
-41.8407
-41.812
-41.7839
-41.7564
-41.7294
-41.7032
-41.6776
-41.6528
-41.6287
-41.6054
-41.5828
-41.5611
-41.5402
-41.5201
-41.5008
-41.4823
-41.4647
-41.4479
-41.4319
-41.4168
-41.4025
-41.3889
-41.3762
-41.3643
-41.3531
-41.3427
-41.3331
-41.3242
-41.3161
-41.3087
-41.3021
-41.2961
-41.2909
-41.2864
-41.2826
-41.2795
-41.2772
-41.2755
-41.2746
-41.2743
-41.2748
-41.2761
-41.278
-41.2807
-41.2842
-41.2884
-41.2933
-41.299
-41.3055
-41.3127
-41.3207
-41.3295
-41.339
-41.3492
-41.3602
-41.3719
-41.3844
-41.3975
-41.4114
-41.4258
-41.441
-41.4567
-41.473
-41.4899
-41.5073
-41.5252
-41.5435
-41.5623
-41.5815
-41.6009
-41.6207
-41.6408
-41.6611
-41.6816
-41.7022
-41.723
-41.7438
-41.7647
-41.7856
-41.8065
-41.8273
-41.8481
-41.8687
-41.8892
-41.9096
-41.9297
-41.9497
-41.9694
-41.9888
-42.008
-42.0269
-42.0455
-42.0637
-42.0816
-42.0992
-42.1164
-42.1332
-42.1496
-42.1656
-42.1813
-42.1965
-42.2113
-42.2256
-42.2395
-42.253
-42.2661
-42.2787
-42.2908
-42.3025
-42.3137
-42.3245
-42.3348
-42.3446
-42.354
-42.3629
-42.3713
-42.3792
-42.3867
-42.3936
-42.4001
-42.4062
-42.4117
-42.4168
-42.4213
-42.4254
-42.429
-42.4321
-42.4348
-42.4369
-42.4386
-42.4398
-42.4405
-42.4407
-47.1425
-47.1421
-47.1411
-47.1394
-47.137
-47.1339
-47.1301
-47.1257
-47.1205
-47.1146
-47.1081
-47.1009
-47.0929
-47.0843
-47.075
-47.0649
-47.0542
-47.0428
-47.0306
-47.0178
-47.0043
-46.99
-46.9751
-46.9595
-46.9431
-46.9261
-46.9084
-46.89
-46.8709
-46.8511
-46.8306
-46.8095
-46.7877
-46.7652
-46.7421
-46.7183
-46.6939
-46.6689
-46.6433
-46.6171
-46.5903
-46.5629
-46.535
-46.5066
-46.4777
-46.4484
-46.4186
-46.3884
-46.3578
-46.3269
-46.2956
-46.2641
-46.2324
-46.2004
-46.1684
-46.1362
-46.1039
-46.0717
-46.0395
-46.0074
-45.9754
-45.9436
-45.912
-45.8808
-45.8498
-45.8193
-45.7892
-45.7596
-45.7305
-45.702
-45.6741
-45.6468
-45.6203
-45.5944
-45.5693
-45.545
-45.5215
-45.4987
-45.4768
-45.4558
-45.4356
-45.4162
-45.3977
-45.38
-45.3632
-45.3472
-45.3321
-45.3178
-45.3043
-45.2916
-45.2797
-45.2686
-45.2583
-45.2487
-45.2399
-45.2318
-45.2245
-45.2178
-45.2119
-45.2067
-45.2023
-45.1985
-45.1954
-45.1931
-45.1914
-45.1905
-45.1902
-45.1907
-45.1919
-45.1939
-45.1966
-45.2
-45.2042
-45.2092
-45.2149
-45.2214
-45.2287
-45.2368
-45.2456
-45.2552
-45.2656
-45.2767
-45.2886
-45.3012
-45.3146
-45.3286
-45.3434
-45.3588
-45.3748
-45.3914
-45.4086
-45.4263
-45.4445
-45.4632
-45.4823
-45.5018
-45.5217
-45.5418
-45.5623
-45.5829
-45.6038
-45.6248
-45.6459
-45.6671
-45.6883
-45.7096
-45.7308
-45.7519
-45.773
-45.794
-45.8148
-45.8354
-45.8558
-45.876
-45.8959
-45.9156
-45.935
-45.9541
-45.9729
-45.9913
-46.0094
-46.0271
-46.0444
-46.0614
-46.0779
-46.0941
-46.1098
-46.1252
-46.14
-46.1545
-46.1685
-46.1821
-46.1952
-46.2078
-46.22
-46.2318
-46.243
-46.2538
-46.2642
-46.2741
-46.2834
-46.2924
-46.3008
-46.3088
-46.3162
-46.3232
-46.3298
-46.3358
-46.3414
-46.3464
-46.351
-46.3551
-46.3587
-46.3618
-46.3645
-46.3666
-46.3683
-46.3695
-46.3702
-46.3704
-51.0755
-51.0752
-51.0741
-51.0724
-51.07
-51.0669
-51.0632
-51.0587
-51.0535
-51.0477
-51.0411
-51.0339
-51.0259
-51.0173
-51.0079
-50.9979
-50.9871
-50.9757
-50.9635
-50.9507
-50.9371
-50.9228
-50.9079
-50.8922
-50.8758
-50.8587
-50.8409
-50.8224
-50.8032
-50.7834
-50.7628
-50.7415
-50.7196
-50.697
-50.6737
-50.6498
-50.6252
-50.6
-50.5741
-50.5477
-50.5206
-50.493
-50.4648
-50.4361
-50.4069
-50.3772
-50.347
-50.3164
-50.2855
-50.2541
-50.2225
-50.1905
-50.1583
-50.1259
-50.0933
-50.0606
-50.0279
-49.9951
-49.9624
-49.9297
-49.8972
-49.8649
-49.8328
-49.801
-49.7696
-49.7386
-49.708
-49.6779
-49.6484
-49.6195
-49.5912
-49.5636
-49.5366
-49.5105
-49.4851
-49.4605
-49.4368
-49.4138
-49.3918
-49.3706
-49.3502
-49.3308
-49.3122
-49.2945
-49.2776
-49.2617
-49.2466
-49.2323
-49.2188
-49.2062
-49.1944
-49.1833
-49.173
-49.1635
-49.1548
-49.1468
-49.1395
-49.1329
-49.127
-49.1219
-49.1174
-49.1137
-49.1106
-49.1082
-49.1066
-49.1056
-49.1054
-49.1059
-49.1071
-49.109
-49.1117
-49.1152
-49.1194
-49.1244
-49.1301
-49.1367
-49.144
-49.1521
-49.161
-49.1708
-49.1813
-49.1925
-49.2046
-49.2174
-49.231
-49.2453
-49.2603
-49.2759
-49.2923
-49.3092
-49.3267
-49.3448
-49.3634
-49.3825
-49.402
-49.4219
-49.4421
-49.4627
-49.4835
-49.5046
-49.5259
-49.5473
-49.5688
-49.5904
-49.612
-49.6336
-49.6552
-49.6767
-49.6981
-49.7194
-49.7405
-49.7614
-49.7821
-49.8026
-49.8228
-49.8427
-49.8623
-49.8817
-49.9006
-49.9193
-49.9375
-49.9554
-49.9729
-49.99
-50.0067
-50.023
-50.0389
-50.0543
-50.0693
-50.0838
-50.0979
-50.1116
-50.1247
-50.1375
-50.1497
-50.1615
-50.1728
-50.1837
-50.1941
-50.204
-50.2134
-50.2224
-50.2308
-50.2388
-50.2463
-50.2533
-50.2599
-50.2659
-50.2715
-50.2766
-50.2812
-50.2853
-50.2889
-50.2921
-50.2947
-50.2969
-50.2985
-50.2997
-50.3004
-50.3007
-55.0093
-55.0089
-55.0079
-55.0062
-55.0038
-55.0007
-54.9969
-54.9924
-54.9873
-54.9814
-54.9749
-54.9676
-54.9597
-54.951
-54.9416
-54.9316
-54.9208
-54.9094
-54.8972
-54.8843
-54.8707
-54.8564
-54.8414
-54.8256
-54.8092
-54.792
-54.7742
-54.7556
-54.7363
-54.7164
-54.6957
-54.6743
-54.6522
-54.6294
-54.606
-54.5819
-54.5571
-54.5317
-54.5056
-54.4789
-54.4516
-54.4236
-54.3952
-54.3661
-54.3366
-54.3065
-54.2759
-54.2449
-54.2135
-54.1817
-54.1496
-54.1171
-54.0844
-54.0515
-54.0184
-53.9852
-53.9519
-53.9185
-53.8852
-53.852
-53.8189
-53.786
-53.7533
-53.721
-53.689
-53.6574
-53.6263
-53.5958
-53.5657
-53.5363
-53.5076
-53.4796
-53.4523
-53.4258
-53.4001
-53.3753
-53.3512
-53.3281
-53.3059
-53.2845
-53.2641
-53.2445
-53.2259
-53.2081
-53.1913
-53.1753
-53.1602
-53.146
-53.1326
-53.12
-53.1082
-53.0973
-53.0871
-53.0776
-53.069
-53.061
-53.0538
-53.0473
-53.0414
-53.0363
-53.0319
-53.0282
-53.0251
-53.0228
-53.0211
-53.0201
-53.0199
-53.0203
-53.0215
-53.0235
-53.0261
-53.0296
-53.0338
-53.0388
-53.0445
-53.0511
-53.0585
-53.0667
-53.0757
-53.0855
-53.0962
-53.1076
-53.1199
-53.1329
-53.1467
-53.1612
-53.1765
-53.1925
-53.2092
-53.2264
-53.2443
-53.2628
-53.2818
-53.3013
-53.3212
-53.3416
-53.3623
-53.3833
-53.4046
-53.4261
-53.4478
-53.4696
-53.4916
-53.5136
-53.5356
-53.5577
-53.5796
-53.6015
-53.6233
-53.6449
-53.6664
-53.6876
-53.7087
-53.7294
-53.7499
-53.7701
-53.79
-53.8095
-53.8287
-53.8476
-53.8661
-53.8841
-53.9018
-53.9191
-53.9359
-53.9523
-53.9683
-53.9839
-53.999
-54.0136
-54.0278
-54.0415
-54.0548
-54.0676
-54.0799
-54.0918
-54.1031
-54.114
-54.1245
-54.1344
-54.1439
-54.1529
-54.1614
-54.1694
-54.1769
-54.1839
-54.1905
-54.1966
-54.2022
-54.2073
-54.2119
-54.216
-54.2196
-54.2228
-54.2254
-54.2276
-54.2293
-54.2305
-54.2312
-54.2314
-58.9438
-58.9434
-58.9424
-58.9407
-58.9383
-58.9352
-58.9314
-58.9269
-58.9217
-58.9159
-58.9093
-58.9021
-58.8941
-58.8854
-58.8761
-58.866
-58.8552
-58.8437
-58.8315
-58.8186
-58.805
-58.7907
-58.7756
-58.7598
-58.7433
-58.7261
-58.7082
-58.6895
-58.6702
-58.6501
-58.6293
-58.6078
-58.5855
-58.5626
-58.539
-58.5147
-58.4897
-58.464
-58.4377
-58.4107
-58.3831
-58.3549
-58.3261
-58.2967
-58.2667
-58.2363
-58.2053
-58.1739
-58.142
-58.1097
-58.077
-58.0441
-58.0108
-57.9773
-57.9436
-57.9098
-57.8759
-57.8419
-57.808
-57.7741
-57.7404
-57.7069
-57.6736
-57.6406
-57.608
-57.5759
-57.5442
-57.513
-57.4825
-57.4526
-57.4234
-57.3949
-57.3672
-57.3404
-57.3143
-57.2892
-57.2649
-57.2415
-57.2191
-57.1976
-57.177
-57.1574
-57.1387
-57.1209
-57.1041
-57.0881
-57.0731
-57.0589
-57.0455
-57.033
-57.0214
-57.0105
-57.0004
-56.991
-56.9824
-56.9745
-56.9674
-56.9609
-56.9552
-56.9501
-56.9457
-56.942
-56.9389
-56.9366
-56.9349
-56.9339
-56.9337
-56.9341
-56.9352
-56.9371
-56.9398
-56.9432
-56.9474
-56.9524
-56.9582
-56.9648
-56.9722
-56.9805
-56.9896
-56.9995
-57.0103
-57.0219
-57.0344
-57.0476
-57.0617
-57.0765
-57.0921
-57.1084
-57.1254
-57.1431
-57.1614
-57.1803
-57.1998
-57.2197
-57.2401
-57.2609
-57.2821
-57.3036
-57.3254
-57.3474
-57.3696
-57.3919
-57.4144
-57.4369
-57.4593
-57.4818
-57.5042
-57.5265
-57.5487
-57.5707
-57.5925
-57.6141
-57.6355
-57.6566
-57.6773
-57.6978
-57.718
-57.7378
-57.7572
-57.7763
-57.795
-57.8133
-57.8311
-57.8486
-57.8656
-57.8821
-57.8982
-57.9139
-57.9291
-57.9439
-57.9582
-57.972
-57.9853
-57.9982
-58.0106
-58.0225
-58.0339
-58.0449
-58.0553
-58.0653
-58.0748
-58.0839
-58.0924
-58.1004
-58.108
-58.1151
-58.1216
-58.1277
-58.1333
-58.1384
-58.1431
-58.1472
-58.1509
-58.154
-58.1567
-58.1589
-58.1605
-58.1617
-58.1624
-58.1627
-62.879
-62.8786
-62.8776
-62.8758
-62.8734
-62.8704
-62.8666
-62.8621
-62.8569
-62.8511
-62.8445
-62.8372
-62.8293
-62.8206
-62.8112
-62.8012
-62.7904
-62.7789
-62.7667
-62.7537
-62.7401
-62.7257
-62.7106
-62.6948
-62.6782
-62.6609
-62.6429
-62.6242
-62.6047
-62.5845
-62.5636
-62.542
-62.5196
-62.4965
-62.4727
-62.4482
-62.423
-62.3971
-62.3705
-62.3432
-62.3153
-62.2868
-62.2576
-62.2278
-62.1975
-62.1666
-62.1352
-62.1032
-62.0709
-62.0381
-62.0049
-61.9713
-61.9375
-61.9033
-61.869
-61.8345
-61.7999
-61.7653
-61.7307
-61.6961
-61.6617
-61.6275
-61.5935
-61.5599
-61.5266
-61.4938
-61.4615
-61.4298
-61.3986
-61.3682
-61.3385
-61.3095
-61.2814
-61.2541
-61.2277
-61.2022
-61.1777
-61.1541
-61.1314
-61.1098
-61.0891
-61.0693
-61.0506