/*--------------------------------*- C++ -*----------------------------------*\
| =========                 |                                                 |
| \\      /  F ield         | OpenFOAM: The Open Source CFD Toolbox           |
|  \\    /   O peration     | Version:  2412                                  |
|   \\  /    A nd           | Website:  www.openfoam.com                      |
|    \\/     M anipulation  |                                                 |
\*---------------------------------------------------------------------------*/
FoamFile
{
    version     2.0;
    format      ascii;
    arch        "LSB;label=32;scalar=64";
    class       volScalarField;
    location    "1.8";
    object      p_rgh;
}
// * * * * * * * * * * * * * * * * * * * * * * * * * * * * * * * * * * * * * //

dimensions      [1 -1 -2 0 0 0 0];

internalField   nonuniform List<scalar> 
40000
(
1.962
1.96167
1.96227
1.9637
1.96589
1.96882
1.97246
1.97682
1.98188
1.98763
1.99409
2.00124
2.00908
2.01762
2.02685
2.03676
2.04736
2.05864
2.0706
2.08324
2.09656
2.11055
2.12521
2.14053
2.15652
2.17315
2.19044
2.20837
2.22693
2.24612
2.26593
2.28634
2.30735
2.32895
2.35113
2.37386
2.39715
2.42096
2.44529
2.47012
2.49542
2.52119
2.54739
2.57401
2.60102
2.62839
2.65611
2.68414
2.71245
2.74101
2.7698
2.79878
2.82792
2.85718
2.88653
2.91593
2.94534
2.97474
3.00407
3.0333
3.0624
3.09131
3.12002
3.14847
3.17664
3.20448
3.23196
3.25905
3.28571
3.31191
3.33763
3.36282
3.38747
3.41155
3.43503
3.45789
3.48011
3.50167
3.52256
3.54275
3.56224
3.58101
3.59906
3.61637
3.63295
3.64878
3.66386
3.67819
3.69176
3.70458
3.71665
3.72796
3.73853
3.74834
3.75741
3.76574
3.77332
3.78016
3.78627
3.79165
3.79629
3.8002
3.80339
3.80584
3.80757
3.80857
3.80884
3.80839
3.80722
3.80532
3.8027
3.79935
3.7953
3.79053
3.78505
3.77886
3.77198
3.76441
3.75616
3.74723
3.73765
3.72741
3.71654
3.70505
3.69295
3.68026
3.667
3.65318
3.63885
3.624
3.60868
3.5929
3.57669
3.56008
3.54309
3.52576
3.50812
3.49018
3.47199
3.45357
3.43495
3.41617
3.39724
3.37821
3.35909
3.33993
3.32075
3.30157
3.28242
3.26333
3.24432
3.22542
3.20665
3.18803
3.16958
3.15133
3.13329
3.11548
3.09792
3.08064
3.06364
3.04693
3.03054
3.01447
2.99874
2.98336
2.96833
2.95368
2.93941
2.92553
2.91206
2.89899
2.88633
2.87409
2.86228
2.85089
2.83995
2.82944
2.81937
2.80976
2.80059
2.79188
2.78363
2.77583
2.76849
2.76162
2.75522
2.74928
2.74382
2.73883
2.73432
2.73028
2.72673
2.72364
2.72104
2.71892
2.71727
2.7161
2.71541
2.7152
1.96094
1.96102
1.96176
1.96324
1.96546
1.96839
1.97204
1.9764
1.98146
1.98722
1.99368
2.00083
2.00868
2.01721
2.02644
2.03635
2.04695
2.05823
2.07019
2.08284
2.09615
2.11015
2.1248
2.14013
2.15611
2.17275
2.19004
2.20797
2.22653
2.24573
2.26553
2.28595
2.30697
2.32857
2.35075
2.37349
2.39678
2.42061
2.44494
2.46978
2.4951
2.52087
2.54709
2.57372
2.60074
2.62813
2.65586
2.68391
2.71223
2.74082
2.76963
2.79863
2.82779
2.85707
2.88644
2.91587
2.9453
2.97472
3.00408
3.03334
3.06246
3.0914
3.12013
3.14861
3.1768
3.20466
3.23217
3.25928
3.28596
3.31218
3.33792
3.36313
3.3878
3.4119
3.43539
3.45827
3.4805
3.50207
3.52297
3.54317
3.56267
3.58144
3.5995
3.61682
3.63339
3.64922
3.66431
3.67863
3.69221
3.70503
3.7171
3.72841
3.73897
3.74879
3.75785
3.76618
3.77376
3.7806
3.78671
3.79208
3.79672
3.80063
3.80381
3.80626
3.80799
3.80899
3.80926
3.80881
3.80763
3.80573
3.8031
3.79976
3.7957
3.79093
3.78544
3.77925
3.77237
3.76479
3.75654
3.7476
3.73801
3.72777
3.71688
3.70538
3.69326
3.68056
3.66729
3.65346
3.63911
3.62425
3.60891
3.59311
3.57689
3.56026
3.54326
3.52591
3.50824
3.49029
3.47208
3.45364
3.43501
3.4162
3.39726
3.37821
3.35908
3.3399
3.3207
3.30151
3.28235
3.26324
3.24422
3.22531
3.20653
3.18789
3.16944
3.15117
3.13313
3.11531
3.09775
3.08046
3.06345
3.04674
3.03034
3.01427
2.99853
2.98315
2.96812
2.95347
2.9392
2.92532
2.91184
2.89876
2.88611
2.87387
2.86205
2.85067
2.83972
2.82921
2.81914
2.80953
2.80036
2.79165
2.78339
2.7756
2.76826
2.76139
2.75499
2.74905
2.74359
2.7386
2.73409
2.73005
2.72649
2.72341
2.72081
2.71869
2.71704
2.71588
2.7152
2.71499
1.95939
1.95964
1.96049
1.96204
1.96429
1.96725
1.97092
1.97528
1.98035
1.98611
1.99257
1.99973
2.00758
2.01611
2.02534
2.03526
2.04586
2.05714
2.06911
2.08176
2.09508
2.10907
2.12374
2.13907
2.15506
2.17171
2.189
2.20694
2.22552
2.24472
2.26454
2.28497
2.30601
2.32763
2.34982
2.37259
2.3959
2.41974
2.44411
2.46897
2.49432
2.52013
2.54638
2.57304
2.60011
2.62754
2.65531
2.6834
2.71178
2.74041
2.76927
2.79832
2.82754
2.85688
2.88631
2.91579
2.94529
2.97476
3.00418
3.0335
3.06268
3.09168
3.12047
3.14901
3.17726
3.20518
3.23274
3.25991
3.28664
3.31292
3.3387
3.36396
3.38867
3.4128
3.43633
3.45924
3.4815
3.5031
3.52401
3.54424
3.56375
3.58254
3.60061
3.61794
3.63452
3.65036
3.66544
3.67978
3.69335
3.70617
3.71824
3.72955
3.74011
3.74992
3.75898
3.7673
3.77488
3.78171
3.78782
3.79318
3.79782
3.80173
3.8049
3.80735
3.80907
3.81007
3.81033
3.80988
3.80869
3.80679
3.80416
3.80081
3.79675
3.79197
3.78648
3.78028
3.77339
3.7658
3.75753
3.74858
3.73897
3.7287
3.7178
3.70626
3.69412
3.68139
3.66808
3.65423
3.63984
3.62494
3.60956
3.59373
3.57746
3.56079
3.54374
3.52635
3.50864
3.49064
3.47238
3.4539
3.43521
3.41636
3.39738
3.37829
3.35911
3.33989
3.32065
3.30142
3.28222
3.26308
3.24402
3.22507
3.20625
3.18759
3.1691
3.15081
3.13274
3.1149
3.09731
3.08
3.06297
3.04624
3.02982
3.01373
2.99798
2.98258
2.96754
2.95288
2.9386
2.92471
2.91122
2.89814
2.88547
2.87322
2.8614
2.85001
2.83905
2.82854
2.81847
2.80885
2.79968
2.79096
2.7827
2.7749
2.76756
2.76069
2.75428
2.74835
2.74288
2.73789
2.73338
2.72934
2.72578
2.7227
2.7201
2.71797
2.71633
2.71517
2.71449
2.71427
1.95726
1.95758
1.9585
1.9601
1.96238
1.96537
1.96905
1.97342
1.9785
1.98427
1.99074
1.9979
2.00575
2.01429
2.02352
2.03344
2.04405
2.05534
2.06731
2.07997
2.0933
2.1073
2.12198
2.13732
2.15332
2.16998
2.18729
2.20525
2.22384
2.24307
2.26291
2.28337
2.30443
2.32608
2.34831
2.37111
2.39446
2.41834
2.44275
2.46767
2.49307
2.51893
2.54524
2.57197
2.5991
2.6266
2.65444
2.68261
2.71107
2.73978
2.76873
2.79787
2.82717
2.8566
2.88613
2.9157
2.9453
2.97487
3.00439
3.0338
3.06308
3.09218
3.12107
3.1497
3.17804
3.20606
3.23371
3.26096
3.28778
3.31414
3.34
3.36533
3.3901
3.41429
3.43788
3.46084
3.48315
3.50479
3.52574
3.546
3.56554
3.58436
3.60244
3.61978
3.63638
3.65223
3.66732
3.68165
3.69523
3.70805
3.72011
3.73142
3.74198
3.75178
3.76084
3.76915
3.77672
3.78355
3.78965
3.79501
3.79964
3.80353
3.8067
3.80914
3.81086
3.81185
3.81211
3.81165
3.81046
3.80855
3.80591
3.80256
3.79849
3.7937
3.7882
3.78199
3.77508
3.76747
3.75918
3.7502
3.74056
3.73026
3.71932
3.70775
3.69556
3.68278
3.66942
3.65551
3.64107
3.62611
3.61067
3.59477
3.57843
3.56169
3.54457
3.5271
3.50932
3.49124
3.47291
3.45435
3.43559
3.41667
3.39761
3.37844
3.3592
3.33991
3.3206
3.3013
3.28203
3.26282
3.2437
3.2247
3.20582
3.18711
3.16857
3.15023
3.13211
3.11423
3.0966
3.07925
3.06218
3.04541
3.02896
3.01284
2.99707
2.98164
2.96658
2.9519
2.93759
2.92369
2.91018
2.89708
2.88439
2.87213
2.86029
2.84889
2.83792
2.8274
2.81732
2.80769
2.79851
2.78979
2.78152
2.77372
2.76637
2.7595
2.75309
2.74715
2.74168
2.73669
2.73217
2.72812
2.72456
2.72148
2.71887
2.71675
2.71511
2.71395
2.71327
2.71304
1.95449
1.95484
1.9558
1.95743
1.95975
1.96275
1.96645
1.97084
1.97592
1.9817
1.98818
1.99534
2.0032
2.01175
2.02099
2.03092
2.04153
2.05283
2.06481
2.07748
2.09082
2.10484
2.11953
2.13489
2.15091
2.16759
2.18492
2.2029
2.22152
2.24078
2.26065
2.28115
2.30225
2.32394
2.34622
2.36906
2.39247
2.41642
2.44089
2.46587
2.49134
2.51728
2.54368
2.57049
2.59771
2.62531
2.65326
2.68153
2.7101
2.73893
2.76799
2.79726
2.82669
2.85624
2.8859
2.91561
2.94533
2.97504
3.00469
3.03424
3.06366
3.0929
3.12192
3.15068
3.17916
3.2073
3.23508
3.26245
3.28938
3.31585
3.34181
3.36724
3.3921
3.41638
3.44005
3.46308
3.48545
3.50715
3.52815
3.54845
3.56803
3.58688
3.60499
3.62236
3.63897
3.65483
3.66993
3.68427
3.69785
3.71066
3.72272
3.73403
3.74457
3.75437
3.76342
3.77172
3.77928
3.7861
3.79219
3.79754
3.80216
3.80605
3.80921
3.81164
3.81335
3.81433
3.81459
3.81412
3.81292
3.81101
3.80836
3.805
3.80092
3.79611
3.7906
3.78437
3.77744
3.7698
3.76148
3.75247
3.74279
3.73244
3.72145
3.70982
3.69758
3.68473
3.67131
3.65732
3.6428
3.62776
3.61223
3.59623
3.5798
3.56297
3.54575
3.52817
3.51028
3.49211
3.47367
3.455
3.43614
3.41711
3.39795
3.37868
3.35934
3.33995
3.32054
3.30114
3.28178
3.26249
3.24328
3.22419
3.20524
3.18645
3.16784
3.14943
3.13125
3.1133
3.09562
3.0782
3.06108
3.04427
3.02777
3.01161
2.99579
2.98033
2.96524
2.95052
2.93619
2.92225
2.90872
2.89559
2.88288
2.8706
2.85874
2.84732
2.83634
2.8258
2.8157
2.80606
2.79687
2.78813
2.77986
2.77204
2.7647
2.75781
2.7514
2.74545
2.73998
2.73498
2.73046
2.72641
2.72285
2.71976
2.71716
2.71503
2.71339
2.71223
2.71155
2.71132
1.95105
1.95141
1.9524
1.95406
1.95639
1.95942
1.96313
1.96753
1.97263
1.97842
1.9849
1.99207
1.99994
2.0085
2.01775
2.02768
2.03831
2.04962
2.06161
2.07429
2.08765
2.10168
2.11639
2.13177
2.14782
2.16452
2.18188
2.1999
2.21855
2.23784
2.25777
2.2783
2.29945
2.3212
2.34354
2.36645
2.38993
2.41395
2.43851
2.46358
2.48915
2.51519
2.54168
2.56862
2.59595
2.62368
2.65176
2.68017
2.70888
2.73785
2.76707
2.79649
2.82607
2.8558
2.88562
2.91549
2.94539
2.97528
3.0051
3.03483
3.06442
3.09383
3.12302
3.15196
3.1806
3.2089
3.23684
3.26436
3.29145
3.31805
3.34415
3.3697
3.39468
3.41907
3.44283
3.46595
3.48841
3.51018
3.53125
3.55161
3.57123
3.59012
3.60827
3.62566
3.64229
3.65817
3.67328
3.68762
3.7012
3.71401
3.72607
3.73736
3.7479
3.75769
3.76672
3.77501
3.78256
3.78937
3.79544
3.80078
3.80539
3.80927
3.81242
3.81485
3.81655
3.81752
3.81777
3.81729
3.81609
3.81416
3.81151
3.80814
3.80404
3.79922
3.79368
3.78743
3.78047
3.7728
3.76444
3.75538
3.74565
3.73525
3.72419
3.7125
3.70018
3.68725
3.67373
3.65965
3.64503
3.62988
3.61424
3.59813
3.58157
3.56461
3.54726
3.52956
3.51154
3.49322
3.47465
3.45585
3.43685
3.41769
3.3984
3.379
3.35952
3.34
3.32047
3.30095
3.28147
3.26206
3.24275
3.22355
3.2045
3.18561
3.1669
3.14841
3.13014
3.11211
3.09435
3.07686
3.05967
3.04279
3.02624
3.01002
2.99415
2.97864
2.96351
2.94875
2.93438
2.9204
2.90683
2.89368
2.88094
2.86863
2.85674
2.8453
2.83429
2.82373
2.81362
2.80396
2.79475
2.786
2.77771
2.76989
2.76253
2.75564
2.74922
2.74327
2.73779
2.73279
2.72826
2.72421
2.72064
2.71755
2.71495
2.71282
2.71118
2.71001
2.70933
2.7091
1.94693
1.9473
1.9483
1.94997
1.95233
1.95537
1.95909
1.96351
1.96862
1.97442
1.98091
1.98809
1.99597
2.00453
2.01379
2.02374
2.03438
2.0457
2.05771
2.0704
2.08378
2.09783
2.11257
2.12797
2.14404
2.16078
2.17818
2.19623
2.21493
2.23427
2.25424
2.27484
2.29605
2.31787
2.34028
2.36327
2.38683
2.41095
2.43561
2.46078
2.48647
2.51263
2.53926
2.56633
2.59381
2.62169
2.64993
2.6785
2.70738
2.73654
2.76594
2.79555
2.82533
2.85525
2.88528
2.91536
2.94547
2.97556
3.0056
3.03554
3.06535
3.09497
3.12438
3.15352
3.18237
3.21087
3.239
3.26671
3.29398
3.32075
3.34701
3.37272
3.39784
3.42236
3.44625
3.46948
3.49204
3.5139
3.53505
3.55547
3.57516
3.5941
3.61228
3.6297
3.64636
3.66225
3.67737
3.69171
3.70529
3.7181
3.73015
3.74143
3.75196
3.76173
3.77075
3.77903
3.78656
3.79335
3.79941
3.80474
3.80933
3.8132
3.81634
3.81876
3.82045
3.82141
3.82165
3.82117
3.81996
3.81802
3.81536
3.81197
3.80786
3.80302
3.79746
3.79118
3.78418
3.77647
3.76806
3.75896
3.74916
3.7387
3.72756
3.71578
3.70337
3.69034
3.67671
3.66252
3.64776
3.63248
3.6167
3.60045
3.58375
3.56663
3.54912
3.53126
3.51308
3.4946
3.47586
3.45689
3.43773
3.4184
3.39894
3.37938
3.35975
3.34007
3.32038
3.30072
3.28109
3.26154
3.24209
3.22276
3.20359
3.18458
3.16576
3.14715
3.12878
3.11065
3.0928
3.07522
3.05795
3.04099
3.02436
3.00808
2.99214
2.97658
2.96138
2.94657
2.93216
2.91814
2.90453
2.89133
2.87856
2.86621
2.85429
2.84282
2.83178
2.8212
2.81106
2.80138
2.79216
2.78339
2.77509
2.76725
2.75988
2.75298
2.74655
2.74059
2.73511
2.7301
2.72557
2.72151
2.71794
2.71485
2.71224
2.71011
2.70847
2.7073
2.70662
2.70639
1.94211
1.94249
1.94349
1.94518
1.94755
1.9506
1.95434
1.95877
1.96389
1.9697
1.9762
1.98339
1.99128
1.99986
2.00913
2.01909
2.02974
2.04107
2.0531
2.06581
2.07921
2.09329
2.10805
2.12348
2.13959
2.15636
2.1738
2.1919
2.21065
2.23004
2.25008
2.27074
2.29203
2.31392
2.33642
2.35951
2.38317
2.4074
2.43217
2.45748
2.4833
2.50961
2.53639
2.56362
2.59127
2.61933
2.64776
2.67653
2.70561
2.73498
2.7646
2.79443
2.82445
2.85461
2.88487
2.9152
2.94556
2.97591
3.0062
3.03639
3.06645
3.09633
3.12599
3.15538
3.18447
3.21321
3.24157
3.26951
3.29698
3.32396
3.35041
3.3763
3.4016
3.42628
3.45031
3.47367
3.49634
3.51831
3.53955
3.56005
3.57981
3.5988
3.61703
3.63449
3.65117
3.66708
3.68221
3.69656
3.71013
3.72294
3.73497
3.74624
3.75675
3.7665
3.7755
3.78376
3.79127
3.79805
3.80409
3.8094
3.81398
3.81783
3.82096
3.82337
3.82505
3.82601
3.82624
3.82575
3.82454
3.82259
3.81992
3.81651
3.81238
3.80752
3.80193
3.79562
3.78858
3.78083
3.77237
3.7632
3.75334
3.74279
3.73157
3.71968
3.70716
3.69401
3.68025
3.66591
3.65101
3.63558
3.61963
3.6032
3.58632
3.56902
3.55133
3.53328
3.5149
3.49623
3.47729
3.45813
3.43876
3.41924
3.39958
3.37983
3.36
3.34014
3.32028
3.30043
3.28064
3.26092
3.24131
3.22183
3.2025
3.18335
3.1644
3.14566
3.12717
3.10892
3.09096
3.07328
3.05591
3.03886
3.02214
3.00577
2.98976
2.97413
2.95887
2.94399
2.92952
2.91545
2.90179
2.88855
2.87573
2.86334
2.85139
2.83988
2.82882
2.8182
2.80804
2.79833
2.78909
2.78031
2.77199
2.76413
2.75675
2.74984
2.74339
2.73743
2.73193
2.72692
2.72238
2.71832
2.71475
2.71165
2.70904
2.70691
2.70526
2.70409
2.70341
2.70317
1.9366
1.93697
1.93799
1.93969
1.94207
1.94513
1.94888
1.95331
1.95844
1.96426
1.97077
1.97798
1.98588
1.99446
2.00375
2.01372
2.02438
2.03574
2.04778
2.06052
2.07394
2.08804
2.10283
2.1183
2.13444
2.15126
2.16875
2.1869
2.2057
2.22516
2.24527
2.26601
2.28738
2.30936
2.33196
2.35516
2.37894
2.40329
2.4282
2.45365
2.47963
2.5061
2.53306
2.56048
2.58833
2.61659
2.64524
2.67423
2.70355
2.73317
2.76304
2.79313
2.82341
2.85385
2.88439
2.91501
2.94566
2.9763
3.00689
3.03738
3.06773
3.09791
3.12785
3.15754
3.18691
3.21593
3.24455
3.27275
3.30047
3.32769
3.35437
3.38047
3.40596
3.43082
3.45502
3.47853
3.50134
3.52343
3.54477
3.56537
3.5852
3.60426
3.62253
3.64003
3.65674
3.67266
3.6878
3.70215
3.71572
3.72851
3.74053
3.75178
3.76227
3.772
3.78098
3.78921
3.7967
3.80345
3.80947
3.81476
3.81933
3.82317
3.82629
3.82868
3.83036
3.83131
3.83154
3.83104
3.82982
3.82786
3.82518
3.82176
3.81761
3.81273
3.80711
3.80076
3.79369
3.78588
3.77736
3.76812
3.75818
3.74754
3.73621
3.72421
3.71155
3.69826
3.68436
3.66985
3.65478
3.63916
3.62302
3.6064
3.58931
3.5718
3.55389
3.53562
3.51701
3.49811
3.47894
3.45955
3.43995
3.4202
3.40032
3.38034
3.3603
3.34022
3.32014
3.3001
3.2801
3.2602
3.2404
3.22074
3.20124
3.18192
3.16281
3.14393
3.12529
3.10691
3.08882
3.07102
3.05354
3.03638
3.01957
3.0031
2.98701
2.97129
2.95595
2.94101
2.92647
2.91233
2.89862
2.88533
2.87246
2.86003
2.84804
2.83649
2.82539
2.81474
2.80455
2.79481
2.78554
2.77674
2.7684
2.76053
2.75313
2.7462
2.73975
2.73377
2.72826
2.72324
2.7187
2.71463
2.71105
2.70795
2.70534
2.7032
2.70155
2.70038
2.69969
2.69946
1.93038
1.93076
1.93178
1.93349
1.93587
1.93894
1.9427
1.94715
1.95228
1.95811
1.96463
1.97185
1.97975
1.98836
1.99765
2.00764
2.01832
2.02969
2.04175
2.05451
2.06796
2.08209
2.09691
2.11242
2.12861
2.14547
2.16301
2.18122
2.20009
2.21962
2.2398
2.26063
2.28209
2.30418
2.32689
2.35021
2.37412
2.39862
2.42368
2.4493
2.47545
2.50211
2.52927
2.5569
2.58497
2.61347
2.64236
2.67161
2.7012
2.73109
2.76125
2.79164
2.82223
2.85297
2.88384
2.91478
2.94576
2.97674
3.00766
3.0385
3.06919
3.0997
3.12998
3.15999
3.18969
3.21902
3.24796
3.27645
3.30446
3.33195
3.35888
3.38522
3.41094
3.43601
3.46039
3.48408
3.50704
3.52926
3.55073
3.57142
3.59134
3.61047
3.6288
3.64634
3.66308
3.67902
3.69416
3.70851
3.72207
3.73484
3.74684
3.75807
3.76853
3.77823
3.78718
3.79538
3.80284
3.80957
3.81556
3.82083
3.82538
3.82921
3.83231
3.8347
3.83637
3.83731
3.83754
3.83704
3.83581
3.83385
3.83115
3.82773
3.82356
3.81866
3.81301
3.80662
3.7995
3.79164
3.78305
3.77373
3.76369
3.75294
3.7415
3.72937
3.71657
3.70311
3.68903
3.67434
3.65907
3.64325
3.62689
3.61004
3.59272
3.57496
3.5568
3.53827
3.51941
3.50024
3.48081
3.46115
3.4413
3.42128
3.40114
3.38091
3.36061
3.34029
3.31998
3.2997
3.27948
3.25935
3.23935
3.21948
3.19979
3.18029
3.161
3.14194
3.12314
3.10462
3.08638
3.06844
3.05083
3.03356
3.01663
3.00006
2.98387
2.96805
2.95263
2.9376
2.92299
2.90879
2.89501
2.88166
2.86874
2.85626
2.84422
2.83263
2.82149
2.81081
2.80058
2.79082
2.78152
2.77269
2.76433
2.75644
2.74902
2.74207
2.73561
2.72961
2.7241
2.71907
2.71452
2.71045
2.70686
2.70376
2.70114
2.699
2.69734
2.69617
2.69548
2.69525
1.92346
1.92384
1.92487
1.92658
1.92897
1.93204
1.93581
1.94026
1.94541
1.95124
1.95777
1.965
1.97291
1.98153
1.99083
2.00084
2.01153
2.02292
2.03501
2.04779
2.06127
2.07543
2.09029
2.10584
2.12207
2.13899
2.15658
2.17485
2.1938
2.2134
2.23367
2.25459
2.27616
2.29837
2.3212
2.34466
2.36872
2.39337
2.41861
2.44441
2.47075
2.49762
2.525
2.55287
2.58119
2.60994
2.63911
2.66865
2.69853
2.72873
2.75921
2.78994
2.82087
2.85197
2.8832
2.91451
2.94587
2.97722
3.00853
3.03974
3.07082
3.10171
3.13237
3.16276
3.19282
3.22252
3.2518
3.28062
3.30896
3.33675
3.36397
3.39058
3.41655
3.44185
3.46645
3.49033
3.51346
3.53584
3.55743
3.57824
3.59825
3.61745
3.63585
3.65343
3.67019
3.68615
3.70129
3.71564
3.72918
3.74194
3.7539
3.7651
3.77552
3.78519
3.7941
3.80227
3.8097
3.81639
3.82236
3.82761
3.83214
3.83595
3.83904
3.84142
3.84308
3.84402
3.84424
3.84374
3.84251
3.84055
3.83785
3.83441
3.83023
3.8253
3.81963
3.8132
3.80603
3.79811
3.78944
3.78003
3.76989
3.75903
3.74745
3.73517
3.7222
3.70857
3.6943
3.6794
3.66391
3.64784
3.63124
3.61413
3.59654
3.57851
3.56007
3.54125
3.52209
3.50263
3.4829
3.46295
3.44279
3.42248
3.40205
3.38153
3.36095
3.34036
3.31977
3.29923
3.27876
3.25839
3.23814
3.21805
3.19814
3.17843
3.15894
3.1397
3.12072
3.10202
3.08362
3.06554
3.04778
3.03038
3.01332
2.99664
2.98033
2.96441
2.94889
2.93378
2.91908
2.90481
2.89096
2.87755
2.86457
2.85203
2.83994
2.82831
2.81712
2.8064
2.79614
2.78635
2.77702
2.76816
2.75978
2.75186
2.74442
2.73746
2.73098
2.72497
2.71945
2.7144
2.70984
2.70576
2.70217
2.69906
2.69643
2.69429
2.69263
2.69145
2.69077
2.69053
1.91583
1.91622
1.91724
1.91896
1.92135
1.92443
1.9282
1.93266
1.93781
1.94366
1.9502
1.95743
1.96536
1.97398
1.9833
1.99332
2.00403
2.01544
2.02755
2.04036
2.05386
2.06806
2.08296
2.09855
2.11483
2.1318
2.14946
2.1678
2.18682
2.20651
2.22687
2.2479
2.26958
2.29191
2.31488
2.33848
2.36271
2.38754
2.41296
2.43896
2.46552
2.49262
2.52024
2.54837
2.57696
2.606
2.63547
2.66533
2.69554
2.72609
2.75693
2.78803
2.81934
2.85084
2.88247
2.91419
2.94597
2.97774
3.00948
3.04112
3.07263
3.10395
3.13504
3.16584
3.19631
3.22641
3.25608
3.28528
3.31397
3.3421
3.36965
3.39656
3.42281
3.44837
3.4732
3.4973
3.52062
3.54316
3.5649
3.58584
3.60595
3.62523
3.64369
3.66131
3.6781
3.69407
3.70922
3.72355
3.73707
3.74979
3.76172
3.77288
3.78326
3.79288
3.80175
3.80988
3.81727
3.82393
3.82986
3.83508
3.83959
3.84338
3.84646
3.84883
3.85049
3.85143
3.85165
3.85115
3.84992
3.84796
3.84526
3.84182
3.83763
3.83268
3.82698
3.82051
3.81328
3.8053
3.79655
3.78704
3.77679
3.76579
3.75407
3.74162
3.72848
3.71465
3.70016
3.68503
3.66929
3.65296
3.63608
3.61868
3.60079
3.58245
3.56369
3.54455
3.52506
3.50527
3.48521
3.46492
3.44444
3.4238
3.40304
3.3822
3.36131
3.34041
3.31952
3.29869
3.27793
3.25729
3.23678
3.21644
3.19629
3.17634
3.15664
3.13718
3.11801
3.09912
3.08054
3.06229
3.04438
3.02683
3.00964
2.99282
2.9764
2.96037
2.94474
2.92953
2.91475
2.90039
2.88646
2.87298
2.85993
2.84734
2.8352
2.82351
2.81228
2.80152
2.79122
2.78139
2.77203
2.76315
2.75473
2.7468
2.73934
2.73236
2.72585
2.71983
2.71429
2.70924
2.70466
2.70058
2.69697
2.69386
2.69123
2.68908
2.68741
2.68623
2.68554
2.68531
1.9075
1.90788
1.90891
1.91062
1.91302
1.91611
1.91988
1.92435
1.9295
1.93535
1.9419
1.94914
1.95707
1.96571
1.97504
1.98507
1.9958
2.00724
2.01937
2.0322
2.04574
2.05997
2.07491
2.09054
2.10688
2.12391
2.14163
2.16004
2.17914
2.19893
2.21939
2.24053
2.26233
2.2848
2.30792
2.33168
2.35608
2.3811
2.40672
2.43294
2.45974
2.48709
2.51498
2.54338
2.57227
2.60163
2.63143
2.66164
2.69222
2.72315
2.75438
2.78589
2.81763
2.84956
2.88163
2.91381
2.94605
2.9783
3.01051
3.04263
3.07461
3.10641
3.13797
3.16923
3.20016
3.2307
3.26081
3.29042
3.31951
3.34803
3.37593
3.40317
3.42974
3.45558
3.48068
3.50501
3.52854
3.55126
3.57316
3.59423
3.61445
3.63382
3.65233
3.67
3.68682
3.70279
3.71793
3.73224
3.74573
3.75842
3.77031
3.78141
3.79174
3.80131
3.81013
3.8182
3.82555
3.83217
3.83807
3.84326
3.84774
3.85151
3.85458
3.85694
3.8586
3.85954
3.85977
3.85928
3.85806
3.8561
3.8534
3.84996
3.84575
3.84079
3.83506
3.82855
3.82127
3.81321
3.80438
3.79477
3.7844
3.77326
3.76137
3.74875
3.73541
3.72136
3.70663
3.69124
3.67523
3.65861
3.64142
3.6237
3.60548
3.58679
3.56768
3.54818
3.52832
3.50816
3.48773
3.46707
3.44622
3.42522
3.4041
3.3829
3.36167
3.34042
3.31921
3.29805
3.27699
3.25604
3.23525
3.21463
3.19421
3.17402
3.15407
3.13439
3.11499
3.0959
3.07713
3.0587
3.04062
3.0229
3.00556
2.98861
2.97205
2.9559
2.94016
2.92485
2.90997
2.89552
2.88151
2.86795
2.85483
2.84217
2.82997
2.81823
2.80696
2.79615
2.78581
2.77595
2.76656
2.75764
2.7492
2.74124
2.73376
2.72675
2.72023
2.71419
2.70864
2.70357
2.69899
2.69489
2.69128
2.68815
2.68551
2.68336
2.68169
2.68051
2.67982
2.67958
1.89845
1.89884
1.89986
1.90158
1.90398
1.90707
1.91084
1.91531
1.92047
1.92633
1.93288
1.94013
1.94807
1.95672
1.96606
1.97611
1.98685
1.99831
2.01046
2.02332
2.03689
2.05116
2.06614
2.08182
2.09821
2.11529
2.13309
2.15158
2.17076
2.19064
2.21121
2.23247
2.25441
2.27702
2.3003
2.32423
2.34882
2.37404
2.39988
2.42634
2.45338
2.48101
2.50918
2.53789
2.56711
2.59681
2.62697
2.65755
2.68854
2.71988
2.75155
2.7835
2.81571
2.84811
2.88068
2.91336
2.94611
2.97888
3.01161
3.04426
3.07677
3.10909
3.14117
3.17295
3.20439
3.23542
3.266
3.29608
3.3256
3.35453
3.38283
3.41045
3.43735
3.46351
3.4889
3.51348
3.53724
3.56017
3.58223
3.60344
3.62377
3.64323
3.66181
3.67952
3.69635
3.71233
3.72745
3.74173
3.75518
3.76782
3.77965
3.79069
3.80096
3.81047
3.81922
3.82724
3.83453
3.84111
3.84697
3.85212
3.85658
3.86033
3.86339
3.86575
3.86741
3.86836
3.8686
3.86812
3.86691
3.86496
3.86227
3.85883
3.85462
3.84964
3.84388
3.83734
3.83
3.82188
3.81295
3.80324
3.79274
3.78145
3.76939
3.75657
3.74301
3.72872
3.71373
3.69806
3.68174
3.6648
3.64728
3.6292
3.6106
3.59154
3.57203
3.55213
3.53188
3.51131
3.49047
3.4694
3.44815
3.42674
3.40522
3.38364
3.36202
3.3404
3.31883
3.29732
3.27591
3.25464
3.23353
3.21261
3.1919
3.17143
3.15122
3.13129
3.11166
3.09235
3.07337
3.05474
3.03648
3.01859
3.00109
2.98398
2.96728
2.951
2.93515
2.91972
2.90473
2.89019
2.87609
2.86245
2.84926
2.83653
2.82427
2.81248
2.80115
2.7903
2.77992
2.77002
2.76059
2.75164
2.74317
2.73519
2.72768
2.72065
2.71411
2.70806
2.70249
2.6974
2.69281
2.6887
2.68507
2.68194
2.67929
2.67713
2.67546
2.67427
2.67358
2.67334
1.88869
1.88908
1.8901
1.89182
1.89422
1.89731
1.90109
1.90556
1.91072
1.91658
1.92314
1.93039
1.93835
1.947
1.95636
1.96641
1.97718
1.98865
2.00082
2.01371
2.02731
2.04161
2.05663
2.07236
2.0888
2.10596
2.12382
2.14239
2.16166
2.18165
2.20233
2.22371
2.24579
2.26855
2.292
2.31612
2.3409
2.36634
2.39242
2.41912
2.44644
2.47435
2.50284
2.53187
2.56144
2.59152
2.62207
2.65306
2.68448
2.71627
2.74841
2.78086
2.81357
2.8465
2.8796
2.91283
2.94614
2.97947
3.01278
3.04601
3.0791
3.112
3.14465
3.177
3.20899
3.24056
3.27166
3.30225
3.33226
3.36165
3.39038
3.4184
3.44568
3.47219
3.49788
3.52275
3.54676
3.56989
3.59214
3.61349
3.63394
3.65349
3.67213
3.68987
3.70672
3.72269
3.73778
3.75202
3.76542
3.77799
3.78976
3.80073
3.81092
3.82036
3.82904
3.83699
3.84422
3.85074
3.85656
3.86167
3.8661
3.86984
3.87289
3.87525
3.87691
3.87787
3.87812
3.87766
3.87647
3.87454
3.87187
3.86843
3.86423
3.85924
3.85346
3.84689
3.8395
3.83131
3.82229
3.81247
3.80183
3.79038
3.77814
3.76511
3.75131
3.73676
3.72148
3.7055
3.68885
3.67155
3.65365
3.63518
3.61618
3.59669
3.57676
3.55642
3.53572
3.51471
3.49342
3.4719
3.4502
3.42835
3.4064
3.38439
3.36235
3.34033
3.31836
3.29647
3.27469
3.25307
3.23162
3.21037
3.18935
3.16858
3.14809
3.12789
3.10801
3.08845
3.06925
3.05041
3.03195
3.01387
2.9962
2.97893
2.96209
2.94567
2.92968
2.91414
2.89904
2.88439
2.8702
2.85647
2.84321
2.83041
2.81809
2.80623
2.79486
2.78395
2.77353
2.76359
2.75413
2.74514
2.73665
2.72863
2.7211
2.71405
2.70749
2.70142
2.69583
2.69073
2.68612
2.682
2.67836
2.67522
2.67256
2.67039
2.66871
2.66752
2.66683
2.66659
1.87822
1.8786
1.87963
1.88134
1.88375
1.88684
1.89062
1.89509
1.90026
1.90612
1.91268
1.91994
1.9279
1.93656
1.94592
1.95599
1.96677
1.97825
1.99045
2.00336
2.01699
2.03133
2.04639
2.06217
2.07866
2.09588
2.11381
2.13246
2.15183
2.17192
2.19272
2.21423
2.23646
2.25938
2.283
2.30732
2.33231
2.35798
2.3843
2.41128
2.43888
2.4671
2.49592
2.52531
2.55525
2.58572
2.61669
2.64814
2.68002
2.7123
2.74495
2.77793
2.81119
2.84468
2.87837
2.9122
2.94612
2.98008
3.01401
3.04787
3.0816
3.11513
3.14841
3.18138
3.21398
3.24614
3.27782
3.30896
3.3395
3.3694
3.3986
3.42707
3.45476
3.48164
3.50767
3.53284
3.55711
3.58047
3.60291
3.62442
3.64499
3.66462
3.68332
3.70109
3.71794
3.73389
3.74895
3.76313
3.77646
3.78896
3.80064
3.81152
3.82163
3.83098
3.83958
3.84745
3.85461
3.86107
3.86683
3.87191
3.8763
3.88002
3.88306
3.88542
3.88709
3.88807
3.88835
3.88791
3.88675
3.88485
3.8822
3.87879
3.87459
3.86961
3.86382
3.85721
3.84978
3.84152
3.83242
3.82248
3.8117
3.80008
3.78764
3.77438
3.76032
3.74549
3.7299
3.71358
3.69656
3.67888
3.66057
3.64167
3.62223
3.60228
3.58187
3.56105
3.53986
3.51836
3.49658
3.47457
3.45238
3.43005
3.40763
3.38515
3.36266
3.34019
3.31779
3.29549
3.27331
3.2513
3.22948
3.20789
3.18653
3.16545
3.14465
3.12417
3.10401
3.0842
3.06476
3.04569
3.02702
3.00874
2.99088
2.97345
2.95644
2.93988
2.92376
2.90809
2.89288
2.87812
2.86384
2.85002
2.83667
2.82381
2.81141
2.7995
2.78807
2.77712
2.76665
2.75667
2.74717
2.73815
2.72962
2.72158
2.71402
2.70695
2.70037
2.69427
2.68867
2.68355
2.67892
2.67479
2.67114
2.66798
2.66532
2.66314
2.66146
2.66026
2.65956
2.65932
1.86703
1.86741
1.86844
1.87015
1.87256
1.87565
1.87943
1.8839
1.88907
1.89493
1.90149
1.90876
1.91672
1.92538
1.93475
1.94483
1.95562
1.96712
1.97934
1.99227
2.00593
2.0203
2.0354
2.05122
2.06777
2.08505
2.10306
2.12179
2.14126
2.16145
2.18238
2.20402
2.2264
2.24949
2.2733
2.29781
2.32303
2.34893
2.37552
2.40278
2.43069
2.45924
2.4884
2.51817
2.54851
2.57941
2.61083
2.64275
2.67513
2.70794
2.74114
2.77469
2.80855
2.84266
2.87698
2.91147
2.94605
2.98068
3.0153
3.04985
3.08427
3.11849
3.15246
3.1861
3.21937
3.25218
3.28449
3.31624
3.34736
3.3778
3.40753
3.43648
3.46461
3.4919
3.5183
3.54378
3.56834
3.59194
3.61458
3.63625
3.65694
3.67665
3.6954
3.71319
3.73004
3.74595
3.76096
3.77507
3.78832
3.80072
3.8123
3.82308
3.83308
3.84232
3.85083
3.85861
3.86569
3.87207
3.87778
3.88281
3.88717
3.89087
3.8939
3.89626
3.89795
3.89895
3.89927
3.89887
3.89775
3.89589
3.89328
3.8899
3.88573
3.88076
3.87497
3.86834
3.86087
3.85255
3.84335
3.83329
3.82237
3.81057
3.79792
3.78442
3.77008
3.75494
3.73901
3.72232
3.70491
3.6868
3.66804
3.64868
3.62874
3.60829
3.58737
3.56602
3.5443
3.52226
3.49994
3.4774
3.45468
3.43182
3.40888
3.3859
3.36292
3.33998
3.31711
3.29436
3.27176
3.24933
3.22712
3.20515
3.18343
3.16201
3.14089
3.1201
3.09965
3.07957
3.05987
3.04056
3.02166
3.00318
2.98513
2.96751
2.95034
2.93362
2.91736
2.90156
2.88623
2.87137
2.85698
2.84307
2.82965
2.8167
2.80425
2.79227
2.78078
2.76978
2.75927
2.74924
2.7397
2.73065
2.72209
2.71402
2.70643
2.69934
2.69273
2.68662
2.68099
2.67586
2.67122
2.66707
2.66341
2.66024
2.65756
2.65538
2.65369
2.65249
2.65178
2.65154
1.85513
1.85551
1.85654
1.85825
1.86065
1.86374
1.86752
1.87199
1.87716
1.88302
1.88958
1.89684
1.90481
1.91347
1.92285
1.93293
1.94373
1.95525
1.96748
1.98043
1.99411
2.00852
2.02365
2.03952
2.05613
2.07347
2.09154
2.11036
2.12993
2.15023
2.17128
2.19306
2.21559
2.23886
2.26285
2.28758
2.31302
2.33918
2.36604
2.3936
2.42183
2.45072
2.48026
2.51043
2.5412
2.57255
2.60445
2.63688
2.6698
2.70318
2.73697
2.77114
2.80563
2.84041
2.87542
2.9106
2.94591
2.98127
3.01664
3.05194
3.08711
3.12209
3.1568
3.19118
3.22517
3.25869
3.29169
3.3241
3.35585
3.3869
3.41718
3.44666
3.47528
3.503
3.52979
3.55563
3.58048
3.60434
3.62718
3.64901
3.66982
3.68962
3.70841
3.72621
3.74303
3.7589
3.77384
3.78786
3.801
3.81329
3.82475
3.8354
3.84528
3.8544
3.86279
3.87046
3.87745
3.88375
3.88939
3.89436
3.89869
3.90237
3.9054
3.90777
3.90948
3.91052
3.91087
3.91052
3.90946
3.90766
3.9051
3.90177
3.89765
3.8927
3.88692
3.88029
3.87279
3.86441
3.85513
3.84495
3.83387
3.82188
3.80901
3.79525
3.78062
3.76514
3.74885
3.73176
3.71391
3.69534
3.6761
3.65622
3.63575
3.61475
3.59326
3.57134
3.54904
3.52641
3.50351
3.48038
3.45708
3.43366
3.41016
3.38663
3.36312
3.33966
3.3163
3.29307
3.27
3.24714
3.2245
3.20213
3.18003
3.15824
3.13678
3.11566
3.09491
3.07454
3.05457
3.03501
3.01588
2.99718
2.97892
2.96111
2.94377
2.92689
2.91048
2.89455
2.87909
2.86412
2.84963
2.83563
2.82212
2.8091
2.79658
2.78454
2.773
2.76194
2.75138
2.74131
2.73173
2.72264
2.71405
2.70594
2.69833
2.69121
2.68459
2.67845
2.67281
2.66766
2.663
2.65884
2.65516
2.65198
2.64929
2.6471
2.6454
2.6442
2.64349
2.64325
1.84252
1.8429
1.84392
1.84563
1.84803
1.85112
1.8549
1.85936
1.86453
1.87038
1.87694
1.8842
1.89216
1.90083
1.91021
1.92029
1.9311
1.94262
1.95487
1.96784
1.98154
1.99597
2.01115
2.02706
2.04371
2.06111
2.07926
2.09816
2.11782
2.13823
2.1594
2.18133
2.20402
2.22746
2.25165
2.27659
2.30228
2.3287
2.35585
2.38371
2.41228
2.44154
2.47147
2.50206
2.53328
2.56511
2.59753
2.6305
2.66399
2.69797
2.7324
2.76723
2.80241
2.83791
2.87366
2.9096
2.94568
2.98184
3.01801
3.05413
3.09012
3.12591
3.16144
3.19663
3.2314
3.2657
3.29945
3.33257
3.36502
3.39672
3.42761
3.45765
3.48679
3.51499
3.5422
3.56841
3.59358
3.61771
3.64077
3.66276
3.68369
3.70356
3.72239
3.74018
3.75696
3.77276
3.7876
3.80152
3.81453
3.82668
3.83799
3.84849