/*--------------------------------*- C++ -*----------------------------------*\
| =========                 |                                                 |
| \\      /  F ield         | OpenFOAM: The Open Source CFD Toolbox           |
|  \\    /   O peration     | Version:  2412                                  |
|   \\  /    A nd           | Website:  www.openfoam.com                      |
|    \\/     M anipulation  |                                                 |
\*---------------------------------------------------------------------------*/
FoamFile
{
    version     2.0;
    format      ascii;
    arch        "LSB;label=32;scalar=64";
    class       surfaceScalarField;
    location    "1.8";
    object      phi;
}
// * * * * * * * * * * * * * * * * * * * * * * * * * * * * * * * * * * * * * //

dimensions      [0 3 -1 0 0 0 0];

oriented        oriented;

internalField   nonuniform List<scalar> 
79600
(
-7.45719e-11
6.4475e-11
-1.71093e-10
9.65204e-11
-2.74143e-10
1.03048e-10
-3.77058e-10
1.02912e-10
-4.79006e-10
1.01946e-10
-5.80345e-10
1.01337e-10
-6.8138e-10
1.01032e-10
-7.82215e-10
1.00832e-10
-8.82845e-10
1.00627e-10
-9.83222e-10
1.00373e-10
-1.08329e-09
1.00063e-10
-1.18298e-09
9.96944e-11
-1.28226e-09
9.9269e-11
-1.38105e-09
9.87863e-11
-1.4793e-09
9.82446e-11
-1.57694e-09
9.76416e-11
-1.67392e-09
9.69743e-11
-1.77016e-09
9.62396e-11
-1.8656e-09
9.54337e-11
-1.96016e-09
9.4553e-11
-2.05376e-09
9.35933e-11
-2.14631e-09
9.25503e-11
-2.23774e-09
9.14197e-11
-2.32794e-09
9.01973e-11
-2.41682e-09
8.88785e-11
-2.50428e-09
8.74587e-11
-2.59022e-09
8.59339e-11
-2.67452e-09
8.42996e-11
-2.75707e-09
8.25518e-11
-2.83775e-09
8.06863e-11
-2.91645e-09
7.86995e-11
-2.99303e-09
7.65878e-11
-3.06738e-09
7.4348e-11
-3.13935e-09
7.19774e-11
-3.20882e-09
6.94735e-11
-3.27565e-09
6.68345e-11
-3.33971e-09
6.4059e-11
-3.40085e-09
6.1146e-11
-3.45894e-09
5.80954e-11
-3.51384e-09
5.49081e-11
-3.56543e-09
5.1585e-11
-3.61355e-09
4.81279e-11
-3.65809e-09
4.45396e-11
-3.69891e-09
4.08236e-11
-3.73589e-09
3.69843e-11
-3.76892e-09
3.30257e-11
-3.79787e-09
2.8953e-11
-3.82264e-09
2.47729e-11
-3.84314e-09
2.04931e-11
-3.85926e-09
1.61237e-11
-3.87093e-09
1.16728e-11
-3.87806e-09
7.12671e-12
-3.88052e-09
2.44929e-12
-3.87833e-09
-2.18827e-12
-3.87151e-09
-6.82498e-12
-3.86003e-09
-1.1476e-11
-3.84391e-09
-1.61241e-11
-3.82316e-09
-2.07564e-11
-3.7978e-09
-2.53589e-11
-3.76788e-09
-2.99173e-11
-3.73346e-09
-3.44165e-11
-3.69462e-09
-3.88417e-11
-3.65144e-09
-4.31779e-11
-3.60403e-09
-4.74107e-11
-3.55251e-09
-5.15259e-11
-3.497e-09
-5.55106e-11
-3.43764e-09
-5.93523e-11
-3.3746e-09
-6.30395e-11
-3.30804e-09
-6.65615e-11
-3.23814e-09
-6.9909e-11
-3.16507e-09
-7.30744e-11
-3.08902e-09
-7.6051e-11
-3.01018e-09
-7.8834e-11
-2.92876e-09
-8.142e-11
-2.84496e-09
-8.38074e-11
-2.75896e-09
-8.59962e-11
-2.67097e-09
-8.79879e-11
-2.58118e-09
-8.97856e-11
-2.48979e-09
-9.13944e-11
-2.39696e-09
-9.28203e-11
-2.30289e-09
-9.40706e-11
-2.20773e-09
-9.51544e-11
-2.11165e-09
-9.60817e-11
-2.01478e-09
-9.6863e-11
-1.91727e-09
-9.75098e-11
-1.81924e-09
-9.80344e-11
-1.72079e-09
-9.84495e-11
-1.62202e-09
-9.87681e-11
-1.52302e-09
-9.90027e-11
-1.42385e-09
-9.91659e-11
-1.32458e-09
-9.92705e-11
-1.22526e-09
-9.93286e-11
-1.12591e-09
-9.93514e-11
-1.02656e-09
-9.93489e-11
-9.2723e-10
-9.93305e-11
-8.27927e-10
-9.93048e-11
-7.28649e-10
-9.92791e-11
-6.29392e-10
-9.92591e-11
-5.30145e-10
-9.92487e-11
-4.30895e-10
-9.92511e-11
-3.31628e-10
-9.92679e-11
-2.3233e-10
-9.92984e-11
-1.32989e-10
-9.93399e-11
-3.35953e-11
-9.93905e-11
6.58588e-11
-9.94493e-11
1.65373e-10
-9.95082e-11
2.64939e-10
-9.95582e-11
3.64539e-10
-9.95916e-11
4.64148e-10
-9.95994e-11
5.63728e-10
-9.95711e-11
6.63234e-10
-9.94959e-11
7.62605e-10
-9.93627e-11
8.61771e-10
-9.91592e-11
9.60649e-10
-9.88725e-11
1.05914e-09
-9.84904e-11
1.15715e-09
-9.80009e-11
1.25454e-09
-9.73918e-11
1.35119e-09
-9.66518e-11
1.44696e-09
-9.57702e-11
1.54169e-09
-9.47364e-11
1.63523e-09
-9.35413e-11
1.7274e-09
-9.21785e-11
1.81804e-09
-9.06424e-11
1.90697e-09
-8.89266e-11
1.99399e-09
-8.70267e-11
2.07893e-09
-8.49417e-11
2.1616e-09
-8.26728e-11
2.24182e-09
-8.02208e-11
2.31941e-09
-7.75869e-11
2.39418e-09
-7.47745e-11
2.46597e-09
-7.17912e-11
2.53461e-09
-6.86435e-11
2.59995e-09
-6.53382e-11
2.66183e-09
-6.18858e-11
2.72013e-09
-5.82971e-11
2.7747e-09
-5.45826e-11
2.82546e-09
-5.07536e-11
2.87228e-09
-4.68237e-11
2.91509e-09
-4.28071e-11
2.95381e-09
-3.87169e-11
2.98837e-09
-3.45659e-11
3.01875e-09
-3.03686e-11
3.04489e-09
-2.61404e-11
3.06679e-09
-2.18947e-11
3.08443e-09
-1.76428e-11
3.09782e-09
-1.33965e-11
3.10699e-09
-9.16788e-12
3.11196e-09
-4.96664e-12
3.11277e-09
-8.11317e-13
3.1094e-09
3.37442e-12
3.10194e-09
7.4639e-12
3.09052e-09
1.14276e-11
3.07522e-09
1.53077e-11
3.05613e-09
1.90931e-11
3.03336e-09
2.27754e-11
3.00701e-09
2.63497e-11
2.9772e-09
2.9812e-11
2.94404e-09
3.31599e-11
2.90765e-09
3.63902e-11
2.86816e-09
3.95e-11
2.82567e-09
4.24866e-11
2.78033e-09
4.53481e-11
2.73225e-09
4.80836e-11
2.68157e-09
5.06923e-11
2.62839e-09
5.31748e-11
2.57286e-09
5.55323e-11
2.5151e-09
5.77662e-11
2.45521e-09
5.98776e-11
2.39334e-09
6.18692e-11
2.32959e-09
6.37442e-11
2.26408e-09
6.55056e-11
2.19692e-09
6.71562e-11
2.12822e-09
6.86997e-11
2.05807e-09
7.01398e-11
1.98659e-09
7.14807e-11
1.91386e-09
7.27265e-11
1.83997e-09
7.38809e-11
1.76502e-09
7.49477e-11
1.68909e-09
7.59312e-11
1.61225e-09
7.68364e-11
1.53459e-09
7.76678e-11
1.45616e-09
7.84286e-11
1.37704e-09
7.91229e-11
1.29729e-09
7.97545e-11
1.21696e-09
8.03263e-11
1.13612e-09
8.08416e-11
1.05481e-09
8.13039e-11
9.73091e-10
8.17157e-11
8.91009e-10
8.20786e-11
8.08613e-10
8.23932e-11
7.25952e-10
8.26587e-11
6.43073e-10
8.28757e-11
5.60012e-10
8.30576e-11
4.76756e-10
8.32549e-11
3.93155e-10
8.36004e-11
3.0882e-10
8.4333e-11
2.23235e-10
8.5583e-11
1.36902e-10
8.6334e-11
5.53669e-11
8.1541e-11
5.53745e-11
-1.02222e-10
1.66696e-10
-2.47886e-10
2.42181e-10
-3.98779e-10
2.53937e-10
-5.46538e-10
2.50667e-10
-6.90996e-10
2.46399e-10
-8.33486e-10
2.43822e-10
-9.74961e-10
2.42501e-10
-1.11585e-09
2.41712e-10
-1.25626e-09
2.41034e-10
-1.39619e-09
2.40295e-10
-1.53557e-09
2.39436e-10
-1.67432e-09
2.38441e-10
-1.81236e-09
2.37305e-10
-1.94961e-09
2.36026e-10
-2.08597e-09
2.34598e-10
-2.22135e-09
2.33014e-10
-2.35565e-09
2.31268e-10
-2.48877e-09
2.29352e-10
-2.62061e-09
2.27256e-10
-2.75103e-09
2.24973e-10
-2.87994e-09
2.22491e-10
-3.0072e-09
2.19801e-10
-3.13268e-09
2.16893e-10
-3.25624e-09
2.13757e-10
-3.37775e-09
2.10383e-10
-3.49705e-09
2.0676e-10
-3.614e-09
2.0288e-10
-3.72843e-09
1.98732e-10
-3.84019e-09
1.94307e-10
-3.94909e-09
1.89598e-10
-4.05498e-09
1.84595e-10
-4.15768e-09
1.79291e-10
-4.25701e-09
1.73682e-10
-4.35278e-09
1.6776e-10
-4.44482e-09
1.61523e-10
-4.53295e-09
1.54968e-10
-4.61698e-09
1.48093e-10
-4.69672e-09
1.40897e-10
-4.772e-09
1.33382e-10
-4.84264e-09
1.25553e-10
-4.90847e-09
1.17413e-10
-4.96931e-09
1.08969e-10
-5.02499e-09
1.0023e-10
-5.07537e-09
9.1205e-11
-5.12029e-09
8.19071e-11
-5.15961e-09
7.23487e-11
-5.1932e-09
6.25454e-11
-5.22095e-09
5.25171e-11
-5.24274e-09
4.22828e-11
-5.25849e-09
3.18655e-11
-5.2681e-09
2.12879e-11
-5.27155e-09
1.05696e-11
-5.26885e-09
-2.60276e-13
-5.25991e-09
-1.11316e-11
-5.2447e-09
-2.20307e-11
-5.22324e-09
-3.29383e-11
-5.19555e-09
-4.38207e-11
-5.16166e-09
-5.46433e-11
-5.12165e-09
-6.53714e-11
-5.0756e-09
-7.59712e-11
-5.02361e-09
-8.64073e-11
-4.9658e-09
-9.66455e-11
-4.90233e-09
-1.06652e-10
-4.83334e-09
-1.16396e-10
-4.75903e-09
-1.25843e-10
-4.67957e-09
-1.34966e-10
-4.59519e-09
-1.43737e-10
-4.5061e-09
-1.52131e-10
-4.41254e-09
-1.60124e-10
-4.31475e-09
-1.67698e-10
-4.21299e-09
-1.74836e-10
-4.10752e-09
-1.81525e-10
-3.9986e-09
-1.87755e-10
-3.8865e-09
-1.93521e-10
-3.77149e-09
-1.9882e-10
-3.65382e-09
-2.03656e-10
-3.53378e-09
-2.08033e-10
-3.4116e-09
-2.11959e-10
-3.28754e-09
-2.15449e-10
-3.16184e-09
-2.18518e-10
-3.03472e-09
-2.21184e-10
-2.9064e-09
-2.2347e-10
-2.77708e-09
-2.25399e-10
-2.64695e-09
-2.26997e-10
-2.51617e-09
-2.28293e-10
-2.38489e-09
-2.29316e-10
-2.25324e-09
-2.30095e-10
-2.12135e-09
-2.30661e-10
-1.98931e-09
-2.31045e-10
-1.8572e-09
-2.31278e-10
-1.72508e-09
-2.31388e-10
-1.59301e-09
-2.31402e-10
-1.46102e-09
-2.31348e-10
-1.32912e-09
-2.31251e-10
-1.19732e-09
-2.31132e-10
-1.06562e-09
-2.3101e-10
-9.33996e-10
-2.30903e-10
-8.02435e-10
-2.30823e-10
-6.70905e-10
-2.30781e-10
-5.39374e-10
-2.30783e-10
-4.07808e-10
-2.30833e-10
-2.76173e-10
-2.3093e-10
-1.44437e-10
-2.31069e-10
-1.2576e-11
-2.31244e-10
1.19434e-10
-2.31449e-10
2.51604e-10
-2.31665e-10
3.83936e-10
-2.31877e-10
5.16425e-10
-2.32065e-10
6.49048e-10
-2.32207e-10
7.81769e-10
-2.32278e-10
9.14538e-10
-2.32253e-10
1.04729e-09
-2.32103e-10
1.17994e-09
-2.31801e-10
1.31239e-09
-2.31317e-10
1.44452e-09
-2.30619e-10
1.5762e-09
-2.2968e-10
1.70728e-09
-2.28471e-10
1.83759e-09
-2.26963e-10
1.96694e-09
-2.25131e-10
2.09516e-09
-2.22951e-10
2.22201e-09
-2.204e-10
2.34729e-09
-2.1746e-10
2.47076e-09
-2.14114e-10
2.59218e-09
-2.1035e-10
2.71131e-09
-2.06159e-10
2.8279e-09
-2.01534e-10
2.9417e-09
-1.96472e-10
3.05245e-09
-1.90974e-10
3.15991e-09
-1.85045e-10
3.26382e-09
-1.78691e-10
3.36395e-09
-1.71924e-10
3.46006e-09
-1.64759e-10
3.55193e-09
-1.57213e-10
3.63934e-09
-1.49305e-10
3.7221e-09
-1.41057e-10
3.80001e-09
-1.32496e-10
3.87291e-09
-1.23651e-10
3.94063e-09
-1.14548e-10
4.00304e-09
-1.05216e-10
4.06002e-09
-9.5689e-11
4.11146e-09
-8.59984e-11
4.15727e-09
-7.61766e-11
4.19738e-09
-6.62543e-11
4.23176e-09
-5.62628e-11
4.26035e-09
-4.62343e-11
4.28315e-09
-3.61998e-11
4.30017e-09
-2.61872e-11
4.31144e-09
-1.62234e-11
4.31697e-09
-6.33667e-12
4.31688e-09
3.47169e-12
4.3112e-09
1.31514e-11
4.29998e-09
2.26598e-11
4.2833e-09
3.19867e-11
4.26129e-09
4.11123e-11
4.23405e-09
5.00197e-11
4.20171e-09
5.86932e-11
4.1644e-09
6.71209e-11
4.12228e-09
7.52921e-11
4.07548e-09
8.31956e-11
4.02416e-09
9.08224e-11
3.96849e-09
9.8165e-11
3.90863e-09
1.05218e-10
3.84474e-09
1.11978e-10
3.77699e-09
1.18442e-10
3.70556e-09
1.24609e-10
3.63061e-09
1.3048e-10
3.55232e-09
1.36056e-10
3.47085e-09
1.4134e-10
3.38637e-09
1.46339e-10
3.29905e-09
1.51056e-10
3.20905e-09
1.55498e-10
3.11653e-09
1.59672e-10
3.02164e-09
1.63585e-10
2.92452e-09
1.67246e-10
2.82534e-09
1.70662e-10
2.72422e-09
1.73844e-10
2.62129e-09
1.76799e-10
2.5167e-09
1.79539e-10
2.41056e-09
1.82072e-10
2.30299e-09
1.84409e-10
2.19409e-09
1.86561e-10
2.08399e-09
1.88535e-10
1.97278e-09
1.9034e-10
1.86055e-09
1.91986e-10
1.74739e-09
1.93482e-10
1.63339e-09
1.94836e-10
1.51863e-09
1.96056e-10
1.40319e-09
1.97147e-10
1.28715e-09
1.98115e-10
1.17058e-09
1.98962e-10
1.05354e-09
1.99694e-10
9.36086e-10
2.00324e-10
8.18224e-10
2.00917e-10
6.99816e-10
2.01661e-10
5.80405e-10
2.0301e-10
4.58991e-10
2.05746e-10
3.34181e-10
2.10387e-10
2.06059e-10
2.14444e-10
8.27928e-11
2.04794e-10
1.3817e-10
-1.07347e-10
2.74041e-10
-2.59984e-10
3.94815e-10
-4.16416e-10
4.10365e-10
-5.68081e-10
4.02329e-10
-7.1532e-10
3.93634e-10
-8.59921e-10
3.88418e-10
-1.00314e-09
3.85714e-10
-1.14557e-09
3.84139e-10
-1.28742e-09
3.82881e-10
-1.42872e-09
3.81588e-10
-1.56942e-09
3.80131e-10
-1.70946e-09
3.78469e-10
-1.84875e-09
3.76587e-10
-1.9872e-09
3.74475e-10
-2.12474e-09
3.72123e-10
-2.26125e-09
3.6952e-10
-2.39665e-09
3.66654e-10
-2.53081e-09
3.63511e-10
-2.66364e-09
3.60077e-10
-2.79502e-09
3.56338e-10
-2.92481e-09
3.52278e-10
-3.0529e-09
3.47881e-10
-3.17914e-09
3.43131e-10
-3.3034e-09
3.38011e-10
-3.42553e-09
3.32507e-10
-3.54537e-09
3.26601e-10
-3.66277e-09
3.20279e-10
-3.77757e-09
3.13527e-10
-3.88959e-09
3.0633e-10
-3.99866e-09
2.98674e-10
-4.10461e-09
2.9055e-10
-4.20726e-09
2.81945e-10
-4.30642e-09
2.7285e-10
-4.40192e-09
2.63259e-10
-4.49356e-09
2.53166e-10
-4.58115e-09
2.42568e-10
-4.66452e-09
2.31464e-10
-4.74347e-09
2.19854e-10
-4.81782e-09
2.07741e-10
-4.8874e-09
1.95135e-10
-4.95203e-09
1.82043e-10
-5.01153e-09
1.68476e-10
-5.06575e-09
1.5445e-10
-5.11452e-09
1.39984e-10
-5.15771e-09
1.25097e-10
-5.19518e-09
1.09814e-10
-5.22679e-09
9.41627e-11
-5.25245e-09
7.81754e-11
-5.27206e-09
6.18856e-11
-5.28553e-09
4.533e-11
-5.29279e-09
2.85472e-11
-5.2938e-09
1.1581e-11
-5.28854e-09
-5.53e-12
-5.27695e-09
-2.27239e-11
-5.25903e-09
-3.99564e-11
-5.23479e-09
-5.71796e-11
-5.20427e-09
-7.43408e-11
-5.16753e-09
-9.13858e-11
-5.12464e-09
-1.08258e-10
-5.07571e-09
-1.24902e-10
-5.02085e-09
-1.41265e-10
-4.96021e-09
-1.57292e-10
-4.89393e-09
-1.72928e-10
-4.8222e-09
-1.88125e-10
-4.74521e-09
-2.02833e-10
-4.66317e-09
-2.17005e-10
-4.57631e-09
-2.306e-10
-4.48486e-09
-2.4358e-10
-4.38908e-09
-2.55909e-10
-4.28922e-09
-2.67557e-10
-4.18556e-09
-2.785e-10
-4.07837e-09
-2.8872e-10
-3.96792e-09
-2.98203e-10
-3.8545e-09
-3.06942e-10
-3.73838e-09
-3.14937e-10
-3.61984e-09
-3.2219e-10
-3.49916e-09
-3.28713e-10
-3.3766e-09
-3.34523e-10
-3.25241e-09
-3.39641e-10
-3.12683e-09
-3.44094e-10
-3.0001e-09
-3.47915e-10
-2.87243e-09
-3.51139e-10
-2.74402e-09
-3.53808e-10
-2.61506e-09
-3.55962e-10
-2.48571e-09
-3.57649e-10
-2.35611e-09
-3.58917e-10
-2.22639e-09
-3.59815e-10
-2.09666e-09
-3.60394e-10
-1.96701e-09
-3.60703e-10
-1.8375e-09
-3.60789e-10
-1.70818e-09
-3.60704e-10
-1.57909e-09
-3.60492e-10
-1.45025e-09
-3.60196e-10
-1.32165e-09
-3.59855e-10
-1.19328e-09
-3.59505e-10
-1.06511e-09
-3.59178e-10
-9.37114e-10
-3.58901e-10
-8.09243e-10
-3.58695e-10
-6.81448e-10
-3.58577e-10
-5.53673e-10
-3.58557e-10
-4.25862e-10
-3.58642e-10
-2.9796e-10
-3.58831e-10
-1.6991e-10
-3.59116e-10
-4.16638e-11
-3.59485e-10
8.68141e-11
-3.5992e-10
2.15563e-10
-3.60406e-10
3.44604e-10
-3.60911e-10
4.73948e-10
-3.61402e-10
6.03593e-10
-3.61844e-10
7.33519e-10
-3.62196e-10
8.6369e-10
-3.62418e-10
9.94054e-10
-3.62461e-10
1.12454e-09
-3.62281e-10
1.25506e-09
-3.61829e-10
1.3855e-09
-3.61055e-10
1.51574e-09
-3.59913e-10
1.64562e-09
-3.58355e-10
1.775e-09
-3.56335e-10
1.90368e-09
-3.5381e-10
2.03147e-09
-3.50738e-10
2.15816e-09
-3.47086e-10
2.28352e-09
-3.42821e-10
2.40733e-09
-3.37915e-10
2.52932e-09
-3.32345e-10
2.64925e-09
-3.26092e-10
2.76686e-09
-3.19148e-10
2.8819e-09
-3.11506e-10
2.99409e-09
-3.03164e-10
3.10317e-09
-2.94128e-10
3.20888e-09
-2.84405e-10
3.31097e-09
-2.74017e-10
3.40919e-09
-2.62983e-10
3.5033e-09
-2.51323e-10
3.59307e-09
-2.39077e-10
3.67829e-09
-2.26279e-10
3.75876e-09
-2.12963e-10
3.83428e-09
-1.99173e-10
3.90469e-09
-1.84954e-10
3.96983e-09
-1.70356e-10
4.02957e-09
-1.55425e-10
4.08378e-09
-1.40212e-10
4.13238e-09
-1.24766e-10
4.17527e-09
-1.09141e-10
4.21239e-09
-9.3385e-11
4.24371e-09
-7.75479e-11
4.26919e-09
-6.16808e-11
4.28884e-09
-4.58302e-11
4.30267e-09
-3.00432e-11
4.3107e-09
-1.43645e-11
4.313e-09
1.17378e-12
4.30964e-09
1.65167e-11
4.30067e-09
3.16295e-11
4.28619e-09
4.64783e-11
4.26627e-09
6.1032e-11
4.24104e-09
7.52594e-11
4.2106e-09
8.91334e-11
4.1751e-09
1.0263e-10
4.13467e-09
1.15731e-10
4.08945e-09
1.28414e-10
4.03961e-09
1.40666e-10
3.98531e-09
1.52474e-10
3.92671e-09
1.63827e-10
3.86397e-09
1.74718e-10
3.79728e-09
1.8514e-10
3.7268e-09
1.95092e-10
3.6527e-09
2.04573e-10
3.57517e-09
2.13587e-10
3.49436e-09
2.22137e-10
3.41047e-09
2.3023e-10
3.32365e-09
2.37871e-10
3.23407e-09
2.45074e-10
3.14189e-09
2.51845e-10
3.04727e-09
2.58198e-10
2.95037e-09
2.64143e-10
2.85133e-09
2.69696e-10
2.7503e-09
2.7487e-10
2.64741e-09
2.7968e-10
2.54281e-09
2.84142e-10
2.43661e-09
2.8827e-10
2.32894e-09
2.9208e-10
2.21992e-09
2.95588e-10
2.10965e-09
2.98808e-10
1.99823e-09
3.01757e-10
1.88576e-09
3.04448e-10
1.77235e-09
3.06896e-10
1.65806e-09
3.09115e-10
1.543e-09
3.11117e-10
1.42723e-09
3.12911e-10
1.31084e-09
3.14508e-10
1.19388e-09
3.15914e-10
1.07643e-09
3.17145e-10
9.58504e-10
3.18242e-10
8.40078e-10
3.19339e-10
7.20927e-10
3.2081e-10
6.00428e-10
3.23506e-10
4.77295e-10
3.28877e-10
3.49716e-10
3.37966e-10
2.17318e-10
3.46841e-10
8.82077e-11
3.33894e-10
2.26377e-10
-1.06486e-10
3.80526e-10
-2.56405e-10
5.4473e-10
-4.08931e-10
5.62888e-10
-5.55963e-10
5.49357e-10
-6.98167e-10
5.35834e-10
-8.3752e-10
5.27767e-10
-9.75379e-10
5.23569e-10
-1.1124e-09
5.21154e-10
-1.24882e-09
5.19294e-10
-1.38468e-09
5.17447e-10
-1.51996e-09
5.15409e-10
-1.65461e-09
5.13108e-10
-1.78855e-09
5.10515e-10
-1.92169e-09
5.07614e-10
-2.05397e-09
5.04389e-10
-2.18528e-09
5.00822e-10
-2.31553e-09
4.96897e-10
-2.44463e-09
4.92595e-10
-2.57246e-09
4.87895e-10
-2.6989e-09
4.82776e-10
-2.82385e-09
4.77217e-10
-2.94717e-09
4.71196e-10
-3.06873e-09
4.6469e-10
-3.1884e-09
4.57678e-10
-3.30604e-09
4.50137e-10
-3.42149e-09
4.42046e-10
-3.53459e-09
4.33385e-10
-3.64519e-09
4.24132e-10
-3.75313e-09
4.14269e-10
-3.85823e-09
4.03778e-10
-3.96032e-09
3.92644e-10
-4.05923e-09
3.80852e-10
-4.15476e-09
3.68391e-10
-4.24675e-09
3.5525e-10
-4.335e-09
3.41423e-10
-4.41933e-09
3.26907e-10
-4.49956e-09
3.11699e-10
-4.57551e-09
2.95802e-10
-4.64699e-09
2.79224e-10
-4.71382e-09
2.61972e-10
-4.77583e-09
2.4406e-10
-4.83286e-09
2.25506e-10
-4.88474e-09
2.06331e-10
-4.93131e-09
1.8656e-10
-4.97243e-09
1.66224e-10
-5.00798e-09
1.45358e-10
-5.03782e-09
1.24002e-10
-5.06184e-09
1.02198e-10
-5.07995e-09
7.99941e-11
-5.09207e-09
5.74424e-11
-5.09812e-09
3.45974e-11
-5.09807e-09
1.15249e-11
-5.09185e-09
-1.17543e-11
-5.07945e-09
-3.51213e-11
-5.06088e-09
-5.85319e-11
-5.03615e-09
-8.19117e-11
-5.00531e-09
-1.05187e-10
-4.96841e-09
-1.28287e-10
-4.92553e-09
-1.51129e-10
-4.8768e-09
-1.7364e-10
-4.82232e-09
-1.95745e-10
-4.76224e-09
-2.17369e-10
-4.69673e-09
-2.3844e-10
-4.62596e-09
-2.58891e-10
-4.55014e-09
-2.7865e-10
-4.46949e-09
-2.97657e-10
-4.38424e-09
-3.15855e-10
-4.29463e-09
-3.33191e-10
-4.20092e-09
-3.49621e-10
-4.10337e-09
-3.65099e-10
-4.00227e-09
-3.79599e-10
-3.8979e-09
-3.93096e-10
-3.79053e-09
-4.0557e-10
-3.68046e-09
-4.17015e-10
-3.56797e-09
-4.27429e-10
-3.45334e-09
-4.36823e-10
-3.33684e-09
-4.45211e-10
-3.21874e-09
-4.52619e-10
-3.09931e-09
-4.59079e-10
-2.97878e-09
-4.6463e-10
-2.85738e-09
-4.69318e-10
-2.73532e-09
-4.73195e-10
-2.61282e-09
-4.76319e-10
-2.49003e-09
-4.78752e-10
-2.36712e-09
-4.80559e-10
-2.24424e-09
-4.81807e-10
-2.12149e-09
-4.82569e-10
-1.99897e-09
-4.82915e-10
-1.87676e-09
-4.82916e-10
-1.75491e-09
-4.82641e-10
-1.63346e-09
-4.82158e-10
-1.51242e-09
-4.81531e-10
-1.3918e-09
-4.80822e-10
-1.27157e-09
-4.80086e-10
-1.1517e-09
-4.79374e-10
-1.03215e-09
-4.78731e-10
-9.12854e-10
-4.78195e-10
-7.93754e-10
-4.77795e-10
-6.74775e-10
-4.77557e-10
-5.55838e-10
-4.77494e-10
-4.36866e-10
-4.77613e-10
-3.17778e-10
-4.77916e-10
-1.98499e-10
-4.78392e-10
-7.89583e-11
-4.79024e-10
4.09112e-11
-4.79788e-10
1.6116e-10
-4.80653e-10
2.81833e-10
-4.81581e-10
4.02961e-10
-4.82526e-10
5.24557e-10
-4.83437e-10
6.46621e-10
-4.84256e-10
7.69133e-10
-4.84925e-10
8.92055e-10
-4.85378e-10
1.01533e-09
-4.85549e-10
1.13888e-09
-4.8537e-10
1.2626e-09
-4.84772e-10
1.38638e-09
-4.83687e-10
1.51008e-09
-4.82046e-10
1.63354e-09
-4.79785e-10
1.75658e-09
-4.76845e-10
1.87902e-09
-4.73166e-10
2.00063e-09
-4.68696e-10
2.1212e-09
-4.63386e-10
2.24049e-09
-4.57201e-10
2.35825e-09
-4.50105e-10
2.47423e-09
-4.42072e-10
2.58816e-09
-4.33082e-10
2.69977e-09
-4.23126e-10
2.80881e-09
-4.12202e-10
2.915e-09
-4.00315e-10
3.01807e-09
-3.87477e-10
3.11777e-09
-3.73711e-10
3.21383e-09
-3.59043e-10
3.30602e-09
-3.43514e-10
3.3941e-09
-3.27157e-10
3.47785e-09
-3.10024e-10
3.55706e-09
-2.92167e-10
3.63153e-09
-2.73647e-10
3.7011e-09
-2.54521e-10
3.7656e-09
-2.34852e-10
3.82488e-09
-2.14709e-10
3.87883e-09
-1.94161e-10
3.92734e-09
-1.73277e-10
3.97033e-09
-1.52126e-10
4.00773e-09
-1.30779e-10
4.0395e-09
-1.09308e-10
4.0656e-09
-8.77775e-11
4.08602e-09
-6.62549e-11
4.10078e-09
-4.48019e-11
4.10991e-09
-2.34864e-11
4.11344e-09
-2.35635e-12
4.11144e-09
1.85244e-11
4.10399e-09
3.90838e-11
4.09117e-09
5.93037e-11
4.07307e-09
7.91347e-11
4.0498e-09
9.8534e-11
4.02148e-09
1.17461e-10
3.98823e-09
1.35881e-10
3.95021e-09
1.53763e-10
3.90755e-09
1.71083e-10
3.8604e-09
1.87819e-10
3.80892e-09
2.03952e-10
3.75329e-09
2.19465e-10
3.69365e-09
2.3435e-10
3.63019e-09
2.48599e-10
3.56308e-09
2.62207e-10
3.49248e-09
2.75173e-10
3.41857e-09
2.87497e-10
3.34151e-09
2.99189e-10
3.26148e-09
3.10255e-10
3.17865e-09
3.20704e-10
3.09317e-09
3.30548e-10
3.00521e-09
3.39804e-10
2.91492e-09
3.48485e-10
2.82245e-09
3.56609e-10
2.72795e-09
3.64194e-10
2.63156e-09
3.71262e-10
2.53341e-09
3.77829e-10
2.43364e-09
3.83918e-10
2.33236e-09
3.8955e-10
2.22969e-09
3.94747e-10
2.12575e-09
3.9953e-10
2.02064e-09
4.0392e-10
1.91445e-09
4.07939e-10
1.80729e-09
4.11607e-10
1.69924e-09
4.14944e-10
1.59039e-09
4.17969e-10
1.4808e-09
4.20698e-10
1.37056e-09
4.23148e-10
1.25974e-09
4.25331e-10
1.14838e-09
4.27264e-10
1.03655e-09
4.28974e-10
9.24256e-10
4.30531e-10
8.11441e-10
4.32148e-10
6.97847e-10
4.34394e-10
5.82798e-10
4.38545e-10
4.64915e-10
4.46753e-10
3.422e-10
4.60675e-10
2.13926e-10
4.75115e-10
8.76076e-11
4.60207e-10
3.13982e-10
-1.05058e-10
4.85582e-10
-2.5187e-10
6.91539e-10
-4.00511e-10
7.11526e-10
-5.43361e-10
6.92204e-10
-6.81303e-10
6.73773e-10
-8.16388e-10
6.62849e-10
-9.49991e-10
6.57168e-10
-1.08277e-09
6.53926e-10
-1.21496e-09
6.51483e-10
-1.34662e-09
6.49105e-10
-1.47774e-09
6.46515e-10
-1.60825e-09
6.4361e-10
-1.73809e-09
6.4035e-10
-1.86719e-09
6.3671e-10
-1.99548e-09
6.32666e-10
-2.12287e-09
6.28198e-10
-2.24926e-09
6.2328e-10
-2.37456e-09
6.17888e-10
-2.49867e-09
6.11997e-10
-2.62148e-09
6.05578e-10
-2.74288e-09
5.98604e-10
-2.86274e-09
5.91047e-10
-2.98093e-09
5.82877e-10
-3.09732e-09
5.74067e-10
-3.21177e-09
5.64588e-10
-3.32414e-09
5.54414e-10
-3.43427e-09
5.43515e-10
-3.54201e-09
5.31868e-10
-3.64719e-09
5.19447e-10
-3.74964e-09
5.06231e-10
-3.84919e-09
4.92199e-10
-3.94567e-09
4.77334e-10
-4.03889e-09
4.6162e-10
-4.12869e-09
4.45045e-10
-4.21486e-09
4.276e-10
-4.29723e-09
4.09281e-10
-4.37561e-09
3.90086e-10
-4.44982e-09
3.70019e-10
-4.51968e-09
3.49086e-10
-4.58501e-09
3.27301e-10
-4.64563e-09
3.04682e-10
-4.70137e-09
2.81249e-10
-4.75207e-09
2.57033e-10
-4.79757e-09
2.32063e-10
-4.83772e-09
2.06381e-10
-4.8724e-09
1.80032e-10
-4.90146e-09
1.53066e-10
-4.9248e-09
1.25536e-10
-4.94232e-09
9.75074e-11
-4.95392e-09
6.90423e-11
-4.95954e-09
4.02153e-11
-4.95913e-09
1.11114e-11
-4.95263e-09
-1.82562e-11
-4.94003e-09
-4.77213e-11
-4.92134e-09
-7.72266e-11
-4.89657e-09
-1.06682e-10
-4.86577e-09
-1.3599e-10
-4.829e-09
-1.65053e-10
-4.78635e-09
-1.9378e-10
-4.73792e-09
-2.22069e-10
-4.68384e-09
-2.49827e-10
-4.62426e-09
-2.76954e-10
-4.55933e-09
-3.03363e-10
-4.48927e-09
-3.28958e-10
-4.41426e-09
-3.53661e-10
-4.33452e-09
-3.77389e-10
-4.25031e-09
-4.00067e-10
-4.16187e-09
-4.21635e-10
-4.06946e-09
-4.42024e-10
-3.97337e-09
-4.61193e-10
-3.87387e-09
-4.79099e-10
-3.77126e-09
-4.95709e-10
-3.66583e-09
-5.11006e-10
-3.55786e-09
-5.2498e-10
-3.44766e-09
-5.37631e-10
-3.33552e-09
-5.48972e-10
-3.22171e-09
-5.59026e-10
-3.1065e-09
-5.67826e-10
-2.99017e-09
-5.75416e-10
-2.87296e-09
-5.81849e-10
-2.7551e-09
-5.87185e-10
-2.6368e-09
-5.91493e-10
-2.51828e-09
-5.94852e-10
-2.39969e-09
-5.97341e-10
-2.28121e-09
-5.99047e-10
-2.16296e-09
-6.00062e-10
-2.04505e-09
-6.00478e-10
-1.92758e-09
-6.00388e-10
-1.81061e-09
-5.99886e-10
-1.69419e-09
-5.99063e-10
-1.57834e-09
-5.98009e-10
-1.46306e-09
-5.96808e-10
-1.34834e-09
-5.95541e-10
-1.23415e-09
-5.9428e-10
-1.12043e-09
-5.93093e-10
-1.00712e-09
-5.92038e-10
-8.94148e-10
-5.91165e-10
-7.81428e-10
-5.90514e-10
-6.68867e-10
-5.90116e-10
-5.56368e-10
-5.89991e-10
-4.43833e-10
-5.90148e-10
-3.31161e-10
-5.90586e-10
-2.18258e-10
-5.91294e-10
-1.05031e-10
-5.9225e-10
8.60075e-12
-5.93418e-10
1.22712e-10
-5.94764e-10
2.37361e-10
-5.96231e-10
3.52596e-10
-5.97761e-10
4.68446e-10
-5.99286e-10
5.84923e-10
-6.00733e-10
7.02021e-10
-6.0202e-10
8.19713e-10
-6.03065e-10
9.37949e-10
-6.0378e-10
1.05666e-09
-6.04075e-10
1.17575e-09
-6.03858e-10
1.29512e-09
-6.03041e-10
1.41461e-09
-6.01534e-10
1.53409e-09
-5.99251e-10
1.65336e-09
-5.96111e-10
1.77225e-09
-5.92039e-10
1.89052e-09
-5.86965e-10
2.00796e-09
-5.80825e-10
2.12432e-09
-5.73566e-10
2.23936e-09
-5.65142e-10
2.35281e-09
-5.5552e-10
2.46439e-09
-5.44669e-10
2.57384e-09
-5.32579e-10
2.68088e-09
-5.19244e-10
2.78524e-09
-5.04669e-10
2.88664e-09
-4.88874e-10
2.98481e-09
-4.71879e-10
3.0795e-09
-4.53724e-10
3.17044e-09
-4.3445e-10
3.2574e-09
-4.14112e-10
3.34015e-09
-3.92773e-10
3.41848e-09
-3.70495e-10
3.49218e-09
-3.4735e-10
3.56108e-09
-3.23419e-10
3.62502e-09
-2.98785e-10
3.68384e-09
-2.73531e-10
3.73742e-09
-2.47747e-10
3.78567e-09
-2.21518e-10
3.82848e-09
-1.94936e-10
3.8658e-09
-1.68094e-10
3.89757e-09
-1.41075e-10
3.92377e-09
-1.13971e-10
3.94438e-09
-8.68667e-11
3.95943e-09
-5.98432e-11
3.96892e-09
-3.29811e-11
3.97291e-09
-6.34985e-12
3.97145e-09
1.99838e-11
3.96463e-09
4.59119e-11
3.95253e-09
7.14099e-11
3.93525e-09
9.64232e-11
3.9129e-09
1.2089e-10
3.88561e-09
1.44763e-10
3.85349e-09
1.67997e-10
3.81671e-09
1.90553e-10
3.7754e-09
2.124e-10
3.72971e-09
2.33508e-10
3.67982e-09
2.53851e-10
3.62587e-09
2.73412e-10
3.56805e-09
2.92176e-10
3.50651e-09
3.10133e-10
3.44143e-09
3.27281e-10
3.37299e-09
3.43615e-10
3.30134e-09
3.59138e-10
3.22667e-09
3.73859e-10
3.14915e-09
3.87784e-10
3.06892e-09
4.00929e-10
2.98617e-09
4.13307e-10
2.90103e-09
4.24938e-10
2.81368e-09
4.35842e-10
2.72425e-09
4.4604e-10
2.63289e-09
4.55556e-10
2.53974e-09
4.64415e-10
2.44492e-09
4.72644e-10
2.34858e-09
4.80268e-10
2.25082e-09
4.87314e-10
2.15175e-09
4.93811e-10
2.0515e-09
4.99786e-10
1.95015e-09
5.05268e-10
1.8478e-09
5.10284e-10
1.74455e-09
5.14859e-10
1.64048e-09
5.19019e-10
1.53565e-09
5.22788e-10
1.43016e-09
5.2619e-10
1.32406e-09
5.29244e-10
1.21742e-09
5.3197e-10
1.11028e-09
5.34392e-10
1.0027e-09
5.36551e-10
8.94677e-10
5.38548e-10
7.86148e-10
5.40672e-10
6.76851e-10
5.43685e-10
5.66107e-10
5.49281e-10
4.52522e-10
5.60329e-10
3.34028e-10
5.79164e-10
2.09653e-10
5.99486e-10
8.63868e-11
5.83468e-10
4.00364e-10
-1.04333e-10
5.89914e-10
-2.49483e-10
8.36686e-10
-3.96016e-10
8.58057e-10
-5.36626e-10
8.3281e-10
-6.72337e-10
8.09481e-10
-8.05241e-10
7.95749e-10
-9.36708e-10
7.88632e-10
-1.06739e-09
7.84602e-10
-1.19751e-09
7.81604e-10
-1.32714e-09
7.78725e-10
-1.45624e-09
7.75611e-10
-1.58477e-09
7.72136e-10
-1.71267e-09
7.68245e-10
-1.83988e-09
7.63905e-10
-1.96631e-09
7.59087e-10
-2.09188e-09
7.53764e-10
-2.21651e-09
7.47905e-10
-2.34011e-09
7.41479e-10
-2.46258e-09
7.34454e-10
-2.5838e-09
7.26796e-10
-2.70368e-09
7.1847e-10
-2.82208e-09
7.09442e-10
-2.93888e-09
6.99676e-10
-3.05395e-09
6.89137e-10
-3.16715e-09
6.77791e-10
-3.27834e-09
6.65603e-10
-3.38737e-09
6.5254e-10
-3.49407e-09
6.38571e-10
-3.59829e-09
6.23667e-10
-3.69986e-09
6.07798e-10
-3.7986e-09
5.90941e-10
-3.89433e-09
5.73074e-10
-3.98689e-09
5.54179e-10
-4.07608e-09
5.34238e-10
-4.16172e-09
5.13241e-10
-4.24362e-09
4.91184e-10
-4.32159e-09
4.68062e-10
-4.39545e-09
4.43882e-10
-4.46502e-09
4.18654e-10
-4.5301e-09
3.92388e-10
-4.59053e-09
3.65107e-10
-4.64611e-09
3.3684e-10
-4.6967e-09
3.07619e-10
-4.74212e-09
2.77485e-10
-4.78223e-09
2.46485e-10
-4.81687e-09
2.14676e-10
-4.84592e-09
1.82116e-10
-4.86926e-09
1.48874e-10
-4.88678e-09
1.15025e-10
-4.89838e-09
8.06459e-11
-4.90401e-09
4.58389e-11
-4.90358e-09
1.0684e-11
-4.89706e-09
-2.47751e-11
-4.88444e-09
-6.03489e-11
-4.8657e-09
-9.59639e-11
-4.84088e-09
-1.31506e-10
-4.81e-09
-1.66862e-10
-4.77314e-09
-2.01913e-10
-4.73038e-09
-2.36539e-10
-4.68183e-09
-2.70623e-10
-4.62762e-09
-3.04041e-10
-4.56789e-09
-3.36684e-10
-4.50282e-09
-3.68433e-10
-4.43259e-09
-3.9918e-10
-4.35743e-09
-4.28822e-10
-4.27756e-09
-4.57258e-10
-4.19323e-09
-4.84402e-10
-4.1047e-09
-5.10164e-10
-4.01224e-09
-5.34485e-10
-3.91614e-09
-5.57295e-10
-3.81669e-09
-5.78548e-10
-3.7142e-09
-5.98206e-10
-3.60896e-09
-6.16246e-10
-3.50129e-09
-6.32657e-10
-3.39148e-09
-6.47444e-10
-3.27984e-09
-6.60619e-10
-3.16666e-09
-6.72214e-10
-3.05222e-09
-6.82274e-10
-2.93679e-09
-6.90851e-10
-2.82063e-09
-6.98014e-10
-2.70398e-09
-7.0384e-10
-2.58706e-09
-7.08418e-10
-2.47007e-09
-7.11841e-10
-2.3532e-09
-7.14216e-10
-2.2366e-09
-7.15651e-10
-2.1204e-09
-7.1626e-10
-2.00472e-09
-7.1616e-10
-1.88964e-09
-7.15469e-10
-1.77522e-09
-7.14304e-10
-1.6615e-09
-7.1278e-10
-1.5485e-09
-7.11009e-10
-1.4362e-09
-7.09098e-10
-1.32459e-09
-7.07148e-10
-1.21362e-09
-7.05252e-10
-1.10321e-09
-7.03492e-10
-9.93306e-10
-7.01944e-10
-8.838e-10
-7.00668e-10
-7.74597e-10
-6.99716e-10
-6.65586e-10
-6.99125e-10
-5.56653e-10
-6.98921e-10
-4.47682e-10
-6.99117e-10
-3.38557e-10
-6.9971e-10
-2.29164e-10
-7.00686e-10
-1.19397e-10
-7.02017e-10
-9.1529e-12
-7.03662e-10
1.01654e-10
-7.05571e-10
2.13098e-10
-7.07676e-10
3.2524e-10
-7.09902e-10
4.38122e-10
-7.12166e-10
5.51768e-10
-7.14375e-10
6.66178e-10
-7.16428e-10
7.81334e-10
-7.18218e-10
8.97194e-10
-7.19636e-10
1.01369e-09
-7.20568e-10
1.13074e-09
-7.20901e-10
1.24822e-09
-7.20519e-10
1.36601e-09
-7.19313e-10
1.48394e-09
-7.17173e-10
1.60182e-09
-7.13996e-10
1.71948e-09
-7.09688e-10
1.83667e-09
-7.04158e-10
1.95317e-09
-6.97328e-10
2.06874e-09
-6.89128e-10
2.1831e-09
-6.79502e-10
2.29598e-09
-6.68402e-10
2.40711e-09
-6.55799e-10
2.5162e-09
-6.4167e-10
2.62297e-09
-6.26008e-10
2.72712e-09
-6.0882e-10
2.82838e-09
-5.90126e-10
2.92646e-09
-5.69957e-10
3.0211e-09
-5.48359e-10
3.11203e-09
-5.25378e-10
3.19901e-09
-5.01086e-10
3.28179e-09
-4.75553e-10
3.36017e-09
-4.48864e-10
3.43392e-09
-4.21108e-10
3.50288e-09
-3.92378e-10
3.56687e-09
-3.62775e-10
3.62574e-09
-3.32404e-10
3.67937e-09
-3.01374e-10
3.72765e-09
-2.69795e-10
3.7705e-09
-2.37776e-10
3.80783e-09
-2.05428e-10
3.83962e-09
-1.72861e-10
3.86583e-09
-1.40177e-10
3.88645e-09
-1.07485e-10
3.90149e-09
-7.48899e-11
3.911e-09
-4.24805e-11
3.915e-09
-1.03517e-11
3.91355e-09
2.14354e-11
3.90676e-09
5.27084e-11
3.89469e-09
8.34788e-11
3.87746e-09
1.13655e-10
3.85519e-09
1.43167e-10
3.828e-09
1.71959e-10
3.79603e-09
1.99974e-10
3.75942e-09
2.27167e-10
3.71833e-09
2.53496e-10
3.67291e-09
2.78928e-10
3.62333e-09
3.03434e-10
3.56975e-09
3.26988e-10
3.51235e-09
3.49576e-10
3.4513e-09
3.71185e-10
3.38677e-09
3.91807e-10
3.31894e-09
4.11445e-10
3.24798e-09
4.301e-10
3.17405e-09
4.47782e-10
3.09734e-09
4.64499e-10
3.01801e-09
4.80269e-10
2.93621e-09
4.95111e-10
2.8521e-09
5.09045e-10
2.76585e-09
5.221e-10
2.6776e-09
5.34301e-10
2.58748e-09