/*--------------------------------*- C++ -*----------------------------------*\
| =========                 |                                                 |
| \\      /  F ield         | OpenFOAM: The Open Source CFD Toolbox           |
|  \\    /   O peration     | Version:  2412                                  |
|   \\  /    A nd           | Website:  www.openfoam.com                      |
|    \\/     M anipulation  |                                                 |
\*---------------------------------------------------------------------------*/
FoamFile
{
    version     2.0;
    format      ascii;
    arch        "LSB;label=32;scalar=64";
    class       volVectorField;
    location    "1.8";
    object      U;
}
// * * * * * * * * * * * * * * * * * * * * * * * * * * * * * * * * * * * * * //

dimensions      [0 1 -1 0 0 0 0];

internalField   nonuniform List<vector> 
40000
(
(-3.0865e-05 2.34029e-05 0)
(-0.000121567 3.32298e-05 0)
(-0.000222377 3.58172e-05 0)
(-0.000325854 3.6227e-05 0)
(-0.000428264 3.62718e-05 0)
(-0.000529801 3.62852e-05 0)
(-0.000630925 3.62938e-05 0)
(-0.000731839 3.62821e-05 0)
(-0.000832571 3.62439e-05 0)
(-0.00093308 3.61803e-05 0)
(-0.00103331 3.60946e-05 0)
(-0.0011332 3.59894e-05 0)
(-0.00123269 3.58658e-05 0)
(-0.00133173 3.57242e-05 0)
(-0.00143026 3.5564e-05 0)
(-0.00152822 3.53845e-05 0)
(-0.00162554 3.51845e-05 0)
(-0.00172216 3.4963e-05 0)
(-0.00181801 3.47187e-05 0)
(-0.00191302 3.44501e-05 0)
(-0.00200711 3.41557e-05 0)
(-0.0021002 3.38338e-05 0)
(-0.0021922 3.34828e-05 0)
(-0.00228303 3.3101e-05 0)
(-0.00237258 3.26867e-05 0)
(-0.00246077 3.2238e-05 0)
(-0.00254748 3.17532e-05 0)
(-0.00263261 3.12304e-05 0)
(-0.00271605 3.0668e-05 0)
(-0.00279769 3.00643e-05 0)
(-0.0028774 2.94174e-05 0)
(-0.00295505 2.87258e-05 0)
(-0.00303054 2.79879e-05 0)
(-0.00310371 2.72022e-05 0)
(-0.00317445 2.63676e-05 0)
(-0.00324262 2.54827e-05 0)
(-0.00330808 2.45468e-05 0)
(-0.00337069 2.35589e-05 0)
(-0.00343032 2.25184e-05 0)
(-0.00348684 2.14251e-05 0)
(-0.0035401 2.02787e-05 0)
(-0.00358997 1.90794e-05 0)
(-0.00363631 1.78278e-05 0)
(-0.00367901 1.65243e-05 0)
(-0.00371792 1.51702e-05 0)
(-0.00375294 1.3766e-05 0)
(-0.00378394 1.23124e-05 0)
(-0.00381081 1.08101e-05 0)
(-0.00383345 9.2606e-06 0)
(-0.00385177 7.66734e-06 0)
(-0.00386568 6.03775e-06 0)
(-0.00387509 4.38485e-06 0)
(-0.00387989 2.70792e-06 0)
(-0.00388001 9.82646e-07 0)
(-0.00387549 -7.55596e-07 0)
(-0.00386634 -2.49375e-06 0)
(-0.00385254 -4.23424e-06 0)
(-0.00383409 -5.97456e-06 0)
(-0.00381102 -7.7101e-06 0)
(-0.00378338 -9.43577e-06 0)
(-0.0037512 -1.11459e-05 0)
(-0.00371455 -1.28347e-05 0)
(-0.00367353 -1.44961e-05 0)
(-0.00362821 -1.61245e-05 0)
(-0.00357873 -1.7714e-05 0)
(-0.00352519 -1.92592e-05 0)
(-0.00346773 -2.07549e-05 0)
(-0.00340652 -2.21963e-05 0)
(-0.0033417 -2.35786e-05 0)
(-0.00327344 -2.48977e-05 0)
(-0.00320192 -2.61503e-05 0)
(-0.00312734 -2.73334e-05 0)
(-0.00304987 -2.84443e-05 0)
(-0.00296973 -2.94813e-05 0)
(-0.00288709 -3.04433e-05 0)
(-0.00280216 -3.13298e-05 0)
(-0.00271515 -3.2141e-05 0)
(-0.00262624 -3.28774e-05 0)
(-0.00253563 -3.35408e-05 0)
(-0.0024435 -3.41332e-05 0)
(-0.00235003 -3.46569e-05 0)
(-0.0022554 -3.51151e-05 0)
(-0.00215976 -3.55115e-05 0)
(-0.00206327 -3.585e-05 0)
(-0.00196608 -3.61345e-05 0)
(-0.00186829 -3.63699e-05 0)
(-0.00177004 -3.65609e-05 0)
(-0.00167142 -3.67125e-05 0)
(-0.00157253 -3.68292e-05 0)
(-0.00147344 -3.69159e-05 0)
(-0.00137422 -3.69777e-05 0)
(-0.00127492 -3.70191e-05 0)
(-0.00117558 -3.70445e-05 0)
(-0.00107623 -3.70578e-05 0)
(-0.000976889 -3.70625e-05 0)
(-0.000877574 -3.70621e-05 0)
(-0.000778285 -3.70595e-05 0)
(-0.00067902 -3.70567e-05 0)
(-0.00057977 -3.70555e-05 0)
(-0.000480524 -3.7057e-05 0)
(-0.000381267 -3.7062e-05 0)
(-0.000281987 -3.70701e-05 0)
(-0.00018267 -3.70798e-05 0)
(-8.33052e-05 -3.70901e-05 0)
(1.61173e-05 -3.70989e-05 0)
(0.0001156 -3.71034e-05 0)
(0.00021514 -3.71022e-05 0)
(0.000314725 -3.70926e-05 0)
(0.000414331 -3.70712e-05 0)
(0.000513929 -3.7034e-05 0)
(0.000613476 -3.6977e-05 0)
(0.00071292 -3.6896e-05 0)
(0.000812196 -3.67864e-05 0)
(0.000911226 -3.66431e-05 0)
(0.00100992 -3.64617e-05 0)
(0.00110818 -3.62377e-05 0)
(0.00120589 -3.59666e-05 0)
(0.00130293 -3.56441e-05 0)
(0.00139915 -3.52664e-05 0)
(0.00149442 -3.48297e-05 0)
(0.00158857 -3.43308e-05 0)
(0.00168145 -3.37676e-05 0)
(0.00177287 -3.31384e-05 0)
(0.00186268 -3.2441e-05 0)
(0.00195067 -3.1674e-05 0)
(0.00203668 -3.08377e-05 0)
(0.00212051 -2.99331e-05 0)
(0.00220198 -2.8961e-05 0)
(0.0022809 -2.7922e-05 0)
(0.0023571 -2.68181e-05 0)
(0.00243041 -2.56528e-05 0)
(0.00250064 -2.4429e-05 0)
(0.00256765 -2.31497e-05 0)
(0.00263128 -2.18193e-05 0)
(0.00269139 -2.04424e-05 0)
(0.00274785 -1.90234e-05 0)
(0.00280053 -1.75668e-05 0)
(0.00284933 -1.60783e-05 0)
(0.00289416 -1.45636e-05 0)
(0.00293494 -1.30277e-05 0)
(0.00297159 -1.14755e-05 0)
(0.00300407 -9.91279e-06 0)
(0.00303234 -8.3455e-06 0)
(0.00305636 -6.77863e-06 0)
(0.00307614 -5.216e-06 0)
(0.00309166 -3.66141e-06 0)
(0.00310294 -2.11855e-06 0)
(0.00311001 -5.88364e-07 0)
(0.00311292 9.33072e-07 0)
(0.00311164 2.41469e-06 0)
(0.0031062 3.86854e-06 0)
(0.00309675 5.29387e-06 0)
(0.00308338 6.67842e-06 0)
(0.00306617 8.01743e-06 0)
(0.00304523 9.31047e-06 0)
(0.00302066 1.05578e-05 0)
(0.00299257 1.17593e-05 0)
(0.00296107 1.29149e-05 0)
(0.00292629 1.40243e-05 0)
(0.00288833 1.50868e-05 0)
(0.00284732 1.6102e-05 0)
(0.00280339 1.70694e-05 0)
(0.00275667 1.79893e-05 0)
(0.00270727 1.88619e-05 0)
(0.00265532 1.96877e-05 0)
(0.00260096 2.04677e-05 0)
(0.00254429 2.12027e-05 0)
(0.00248545 2.18936e-05 0)
(0.00242456 2.25416e-05 0)
(0.00236173 2.31482e-05 0)
(0.00229709 2.37148e-05 0)
(0.00223074 2.42429e-05 0)
(0.00216279 2.47339e-05 0)
(0.00209335 2.51893e-05 0)
(0.00202252 2.56108e-05 0)
(0.0019504 2.60001e-05 0)
(0.00187708 2.63586e-05 0)
(0.00180265 2.66877e-05 0)
(0.0017272 2.69891e-05 0)
(0.0016508 2.72649e-05 0)
(0.00157354 2.75167e-05 0)
(0.00149548 2.77456e-05 0)
(0.0014167 2.79531e-05 0)
(0.00133725 2.81407e-05 0)
(0.00125721 2.83092e-05 0)
(0.00117661 2.84599e-05 0)
(0.00109553 2.85941e-05 0)
(0.00101401 2.87128e-05 0)
(0.000932104 2.88162e-05 0)
(0.000849857 2.89045e-05 0)
(0.000767321 2.89768e-05 0)
(0.000684546 2.90307e-05 0)
(0.000601579 2.90648e-05 0)
(0.000518444 2.90821e-05 0)
(0.000435084 2.90983e-05 0)
(0.000351238 2.91491e-05 0)
(0.000266331 2.92473e-05 0)
(0.000179869 2.91497e-05 0)
(9.39219e-05 2.76609e-05 0)
(2.10528e-05 2.09193e-05 0)
(-3.6733e-05 0.000111549 0)
(-0.000173181 0.000166195 0)
(-0.000323634 0.000176364 0)
(-0.000473558 0.000175422 0)
(-0.000619406 0.000173269 0)
(-0.00076257 0.000171935 0)
(-0.000904387 0.000171255 0)
(-0.00104551 0.000170828 0)
(-0.00118614 0.000170421 0)
(-0.00132632 0.000169944 0)
(-0.00146598 0.000169374 0)
(-0.00160506 0.000168705 0)
(-0.00174348 0.000167937 0)
(-0.00188114 0.00016707 0)
(-0.00201796 0.000166099 0)
(-0.00215385 0.000165022 0)
(-0.00228871 0.000163833 0)
(-0.00242244 0.000162526 0)
(-0.00255493 0.000161096 0)
(-0.00268608 0.000159537 0)
(-0.00281577 0.00015784 0)
(-0.00294388 0.000156 0)
(-0.00307027 0.000154009 0)
(-0.00319481 0.00015186 0)
(-0.00331738 0.000149546 0)
(-0.00343781 0.000147058 0)
(-0.00355596 0.000144391 0)
(-0.00367167 0.000141537 0)
(-0.00378479 0.00013849 0)
(-0.00389515 0.000135243 0)
(-0.00400258 0.00013179 0)
(-0.0041069 0.000128126 0)
(-0.00420794 0.000124245 0)
(-0.00430552 0.000120145 0)
(-0.00439946 0.00011582 0)
(-0.00448957 0.00011127 0)
(-0.00457568 0.000106491 0)
(-0.00465759 0.000101484 0)
(-0.00473513 9.62483e-05 0)
(-0.00480811 9.07863e-05 0)
(-0.00487637 8.51001e-05 0)
(-0.00493972 7.91936e-05 0)
(-0.00499801 7.3072e-05 0)
(-0.00505106 6.6742e-05 0)
(-0.00509873 6.02111e-05 0)
(-0.00514087 5.3487e-05 0)
(-0.00517734 4.65788e-05 0)
(-0.00520802 3.94983e-05 0)
(-0.00523279 3.22575e-05 0)
(-0.00525157 2.4872e-05 0)
(-0.00526425 1.73615e-05 0)
(-0.00527078 9.75131e-06 0)
(-0.00527114 2.06119e-06 0)
(-0.00526532 -5.69611e-06 0)
(-0.00525325 -1.34784e-05 0)
(-0.00523491 -2.12642e-05 0)
(-0.00521032 -2.90365e-05 0)
(-0.00517951 -3.67742e-05 0)
(-0.00514254 -4.44535e-05 0)
(-0.00509949 -5.20506e-05 0)
(-0.00505044 -5.95407e-05 0)
(-0.00499552 -6.68993e-05 0)
(-0.00493485 -7.41021e-05 0)
(-0.00486859 -8.11259e-05 0)
(-0.0047969 -8.79472e-05 0)
(-0.00471998 -9.45451e-05 0)
(-0.00463802 -0.0001009 0)
(-0.00455125 -0.000106993 0)
(-0.00445988 -0.000112806 0)
(-0.00436417 -0.000118326 0)
(-0.00426436 -0.000123541 0)
(-0.0041607 -0.000128439 0)
(-0.00405347 -0.000133013 0)
(-0.00394292 -0.00013726 0)
(-0.00382932 -0.000141176 0)
(-0.00371294 -0.000144762 0)
(-0.00359405 -0.000148021 0)
(-0.0034729 -0.00015096 0)
(-0.00334975 -0.000153586 0)
(-0.00322484 -0.00015591 0)
(-0.0030984 -0.000157945 0)
(-0.00297066 -0.000159705 0)
(-0.00284182 -0.000161208 0)
(-0.00271207 -0.000162471 0)
(-0.00258159 -0.000163514 0)
(-0.00245054 -0.000164358 0)
(-0.00231907 -0.000165021 0)
(-0.00218729 -0.000165527 0)
(-0.00205531 -0.000165898 0)
(-0.00192323 -0.000166153 0)
(-0.00179111 -0.000166314 0)
(-0.00165902 -0.0001664 0)
(-0.00152698 -0.00016643 0)
(-0.00139504 -0.000166421 0)
(-0.00126319 -0.000166388 0)
(-0.00113145 -0.000166346 0)
(-0.000999791 -0.000166306 0)
(-0.000868206 -0.000166278 0)
(-0.000736667 -0.000166269 0)
(-0.000605143 -0.000166283 0)
(-0.000473601 -0.000166322 0)
(-0.000342007 -0.000166387 0)
(-0.00021033 -0.000166473 0)
(-7.85379e-05 -0.000166575 0)
(5.33929e-05 -0.000166686 0)
(0.000185478 -0.000166794 0)
(0.000317727 -0.000166891 0)
(0.000450136 -0.000166962 0)
(0.000582693 -0.000166993 0)
(0.000715367 -0.000166967 0)
(0.000848117 -0.000166865 0)
(0.000980884 -0.000166668 0)
(0.00111359 -0.000166356 0)
(0.00124616 -0.000165909 0)
(0.00137846 -0.000165304 0)
(0.00151038 -0.000164523 0)
(0.00164178 -0.000163544 0)
(0.0017725 -0.000162349 0)
(0.00190235 -0.00016092 0)
(0.00203116 -0.00015924 0)
(0.00215872 -0.000157293 0)
(0.00228482 -0.000155067 0)
(0.00240922 -0.000152552 0)
(0.00253171 -0.000149739 0)
(0.00265202 -0.000146621 0)
(0.00276991 -0.000143194 0)
(0.00288515 -0.000139459 0)
(0.00299746 -0.000135416 0)
(0.0031066 -0.000131069 0)
(0.00321232 -0.000126423 0)
(0.00331438 -0.000121487 0)
(0.00341254 -0.000116274 0)
(0.00350657 -0.000110794 0)
(0.00359625 -0.000105064 0)
(0.00368136 -9.9099e-05 0)
(0.00376173 -9.29185e-05 0)
(0.00383717 -8.65422e-05 0)
(0.00390751 -7.99911e-05 0)
(0.0039726 -7.32868e-05 0)
(0.00403232 -6.64517e-05 0)
(0.00408655 -5.95088e-05 0)
(0.0041352 -5.24812e-05 0)
(0.00417818 -4.53921e-05 0)
(0.00421543 -3.82635e-05 0)
(0.00424693 -3.11171e-05 0)
(0.00427263 -2.39737e-05 0)
(0.00429255 -1.68525e-05 0)
(0.0043067 -9.76953e-06 0)
(0.00431508 -2.73566e-06 0)
(0.0043178 4.21942e-06 0)
(0.00431492 1.10788e-05 0)
(0.00430646 1.78172e-05 0)
(0.00429251 2.44126e-05 0)
(0.00427315 3.08509e-05 0)
(0.00424851 3.71222e-05 0)
(0.0042187 4.32184e-05 0)
(0.00418386 4.91327e-05 0)
(0.00414413 5.48594e-05 0)
(0.00409964 6.03917e-05 0)
(0.00405056 6.57241e-05 0)
(0.00399704 7.08518e-05 0)
(0.00393925 7.57714e-05 0)
(0.00387735 8.04811e-05 0)
(0.00381151 8.49796e-05 0)
(0.00374189 8.92664e-05 0)
(0.00366868 9.33425e-05 0)
(0.00359203 9.72102e-05 0)
(0.00351212 0.000100872 0)
(0.00342912 0.000104331 0)
(0.0033432 0.000107592 0)
(0.00325451 0.00011066 0)
(0.00316322 0.00011354 0)
(0.00306949 0.000116237 0)
(0.00297346 0.000118758 0)
(0.00287529 0.000121108 0)
(0.00277511 0.000123295 0)
(0.00267306 0.000125324 0)
(0.00256928 0.000127203 0)
(0.0024639 0.000128939 0)
(0.00235702 0.000130539 0)
(0.00224877 0.000132011 0)
(0.00213925 0.00013336 0)
(0.00202858 0.000134593 0)
(0.00191684 0.000135716 0)
(0.00180413 0.000136736 0)
(0.00169053 0.000137657 0)
(0.00157614 0.000138486 0)
(0.00146103 0.000139227 0)
(0.00134528 0.000139882 0)
(0.00122896 0.000140452 0)
(0.00111214 0.000140938 0)
(0.000994889 0.000141345 0)
(0.000877246 0.000141701 0)
(0.000759175 0.000142111 0)
(0.000640437 0.000142834 0)
(0.000520345 0.000144331 0)
(0.000397519 0.000146867 0)
(0.000270511 0.000148648 0)
(0.000142266 0.000140689 0)
(2.82849e-05 9.43251e-05 0)
(-3.77695e-05 0.000220029 0)
(-0.000182331 0.000318583 0)
(-0.00033901 0.000332647 0)
(-0.000493516 0.000327275 0)
(-0.000642553 0.000320963 0)
(-0.000788059 0.000317159 0)
(-0.000931748 0.000315192 0)
(-0.00107449 0.000314032 0)
(-0.00121661 0.000313073 0)
(-0.00135818 0.000312058 0)
(-0.00149919 0.000310897 0)
(-0.00163957 0.000309564 0)
(-0.00177925 0.000308049 0)
(-0.00191814 0.000306346 0)
(-0.00205615 0.000304447 0)
(-0.00219319 0.000302344 0)
(-0.00232917 0.000300027 0)
(-0.00246397 0.000297486 0)
(-0.00259749 0.00029471 0)
(-0.00272961 0.000291686 0)
(-0.00286022 0.000288402 0)
(-0.00298918 0.000284845 0)
(-0.00311637 0.000281002 0)
(-0.00324165 0.00027686 0)
(-0.00336487 0.000272406 0)
(-0.00348588 0.000267625 0)
(-0.00360453 0.000262509 0)
(-0.00372065 0.000257043 0)
(-0.00383409 0.000251215 0)
(-0.00394466 0.000245015 0)
(-0.00405221 0.000238434 0)
(-0.00415653 0.000231462 0)
(-0.00425747 0.000224092 0)
(-0.00435483 0.000216317 0)
(-0.00444842 0.000208133 0)
(-0.00453807 0.000199537 0)
(-0.00462358 0.000190528 0)
(-0.00470477 0.000181104 0)
(-0.00478144 0.00017127 0)
(-0.00485344 0.000161031 0)
(-0.00492056 0.000150393 0)
(-0.00498265 0.000139365 0)
(-0.00503953 0.000127959 0)
(-0.00509105 0.00011619 0)
(-0.00513704 0.000104073 0)
(-0.00517739 9.16257e-05 0)
(-0.00521194 7.8871e-05 0)
(-0.00524059 6.58356e-05 0)
(-0.00526322 5.25451e-05 0)
(-0.00527976 3.90282e-05 0)
(-0.00529013 2.53156e-05 0)
(-0.00529426 1.14394e-05 0)
(-0.00529213 -2.56169e-06 0)
(-0.00528371 -1.66273e-05 0)
(-0.00526894 -3.07285e-05 0)
(-0.00524785 -4.48314e-05 0)
(-0.00522045 -5.88929e-05 0)
(-0.0051868 -7.28688e-05 0)
(-0.00514697 -8.67126e-05 0)
(-0.00510103 -0.000100381 0)
(-0.00504911 -0.000113829 0)
(-0.00499133 -0.000127011 0)
(-0.00492783 -0.000139886 0)
(-0.00485879 -0.000152411 0)
(-0.0047844 -0.000164545 0)
(-0.00470484 -0.000176251 0)
(-0.00462035 -0.000187496 0)
(-0.00453116 -0.000198246 0)
(-0.0044375 -0.000208473 0)
(-0.00433964 -0.000218152 0)
(-0.00423783 -0.000227262 0)
(-0.00413236 -0.000235788 0)
(-0.00402349 -0.000243717 0)
(-0.00391152 -0.000251044 0)
(-0.00379671 -0.000257766 0)
(-0.00367934 -0.000263887 0)
(-0.0035597 -0.000269414 0)
(-0.00343804 -0.00027436 0)
(-0.00331462 -0.000278742 0)
(-0.00318971 -0.00028258 0)
(-0.00306352 -0.000285901 0)
(-0.0029363 -0.000288732 0)
(-0.00280824 -0.000291105 0)
(-0.00267953 -0.000293055 0)
(-0.00255036 -0.000294618 0)
(-0.00242087 -0.000295833 0)
(-0.0022912 -0.000296738 0)
(-0.00216146 -0.000297374 0)
(-0.00203177 -0.000297781 0)
(-0.00190218 -0.000297997 0)
(-0.00177277 -0.000298062 0)
(-0.00164357 -0.000298012 0)
(-0.00151461 -0.000297881 0)
(-0.00138589 -0.000297701 0)
(-0.00125741 -0.000297501 0)
(-0.00112915 -0.000297306 0)
(-0.00100108 -0.000297137 0)
(-0.000873156 -0.000297012 0)
(-0.000745335 -0.000296945 0)
(-0.000617561 -0.000296943 0)
(-0.000489781 -0.000297012 0)
(-0.000361936 -0.000297151 0)
(-0.000233973 -0.000297353 0)
(-0.00010584 -0.00029761 0)
(2.25134e-05 -0.000297908 0)
(0.00015112 -0.000298229 0)
(0.000280008 -0.000298553 0)
(0.000409195 -0.000298853 0)
(0.000538687 -0.0002991 0)
(0.000668471 -0.000299264 0)
(0.000798521 -0.000299309 0)
(0.000928792 -0.0002992 0)
(0.00105922 -0.000298898 0)
(0.00118973 -0.000298366 0)
(0.00132023 -0.000297565 0)
(0.00145058 -0.000296455 0)
(0.00158066 -0.000295 0)
(0.00171031 -0.000293163 0)
(0.00183936 -0.000290909 0)
(0.00196763 -0.000288208 0)
(0.0020949 -0.00028503 0)
(0.00222095 -0.00028135 0)
(0.00234557 -0.000277147 0)
(0.0024685 -0.000272403 0)
(0.0025895 -0.000267105 0)
(0.00270831 -0.000261244 0)
(0.00282468 -0.000254817 0)
(0.00293833 -0.000247823 0)
(0.003049 -0.000240268 0)
(0.00315644 -0.000232159 0)
(0.00326038 -0.000223512 0)
(0.00336058 -0.000214344 0)
(0.00345679 -0.000204676 0)
(0.00354877 -0.000194535 0)
(0.0036363 -0.00018395 0)
(0.00371918 -0.000172952 0)
(0.00379721 -0.000161576 0)
(0.00387021 -0.00014986 0)
(0.00393802 -0.000137842 0)
(0.00400048 -0.000125562 0)
(0.00405748 -0.00011306 0)
(0.00410891 -0.000100379 0)
(0.00415467 -8.75592e-05 0)
(0.00419469 -7.46418e-05 0)
(0.00422893 -6.16672e-05 0)
(0.00425734 -4.8676e-05 0)
(0.00427991 -3.5706e-05 0)
(0.00429666 -2.27938e-05 0)
(0.00430758 -9.97635e-06 0)
(0.00431274 2.72706e-06 0)
(0.00431221 1.52731e-05 0)
(0.00430604 2.76185e-05 0)
(0.00429431 3.97383e-05 0)
(0.0042771 5.16089e-05 0)
(0.00425452 6.32064e-05 0)
(0.00422667 7.45091e-05 0)
(0.00419368 8.54994e-05 0)
(0.00415569 9.61623e-05 0)
(0.00411285 0.000106482 0)
(0.0040653 0.000116447 0)
(0.0040132 0.000126047 0)
(0.00395673 0.000135275 0)
(0.00389603 0.000144124 0)
(0.00383129 0.00015259 0)
(0.00376268 0.000160673 0)
(0.00369036 0.000168371 0)
(0.00361452 0.000175688 0)
(0.00353532 0.000182627 0)
(0.00345295 0.000189193 0)
(0.00336756 0.000195393 0)
(0.00327933 0.000201235 0)
(0.00318843 0.000206727 0)
(0.003095 0.000211879 0)
(0.00299922 0.000216701 0)
(0.00290122 0.000221203 0)
(0.00280116 0.000225399 0)
(0.00269918 0.000229299 0)
(0.00259541 0.000232915 0)
(0.00248999 0.000236262 0)
(0.00238304 0.000239351 0)
(0.00227467 0.000242195 0)
(0.002165 0.000244806 0)
(0.00205414 0.000247196 0)
(0.00194218 0.000249377 0)
(0.00182922 0.000251361 0)
(0.00171536 0.000253159 0)
(0.00160067 0.000254779 0)
(0.00148524 0.000256231 0)
(0.00136915 0.000257521 0)
(0.00125246 0.000258654 0)
(0.00113524 0.000259638 0)
(0.00101756 0.000260501 0)
(0.000899408 0.000261338 0)
(0.00078071 0.000262423 0)
(0.000661112 0.000264398 0)
(0.000539718 0.000268358 0)
(0.000414794 0.000275053 0)
(0.000284395 0.000281231 0)
(0.000151328 0.000269498 0)
(2.9899e-05 0.000181976 0)
(-3.76875e-05 0.000327573 0)
(-0.000180576 0.000470544 0)
(-0.000333753 0.000487673 0)
(-0.000483866 0.00047702 0)
(-0.000627991 0.000465965 0)
(-0.000768317 0.000459345 0)
(-0.000906683 0.000455901 0)
(-0.00104403 0.000453908 0)
(-0.00118072 0.000452348 0)
(-0.00131685 0.000450774 0)
(-0.00145244 0.000449021 0)
(-0.00158741 0.000447033 0)
(-0.00172172 0.000444787 0)
(-0.00185527 0.000442271 0)
(-0.001988 0.000439471 0)
(-0.00211981 0.000436373 0)
(-0.00225061 0.000432964 0)
(-0.0023803 0.000429226 0)
(-0.00250878 0.000425143 0)
(-0.00263594 0.000420697 0)
(-0.00276166 0.000415869 0)
(-0.00288581 0.000410641 0)
(-0.00300828 0.000404992 0)
(-0.00312892 0.000398906 0)
(-0.0032476 0.000392361 0)
(-0.00336417 0.000385339 0)
(-0.00347847 0.000377824 0)
(-0.00359035 0.000369797 0)
(-0.00369965 0.000361241 0)
(-0.00380619 0.000352142 0)
(-0.00390982 0.000342486 0)
(-0.00401034 0.00033226 0)
(-0.00410759 0.000321454 0)
(-0.00420138 0.000310059 0)
(-0.00429153 0.00029807 0)
(-0.00437785 0.000285483 0)
(-0.00446016 0.000272297 0)
(-0.00453828 0.000258513 0)
(-0.00461201 0.000244135 0)
(-0.00468119 0.000229174 0)
(-0.00474564 0.00021364 0)
(-0.00480518 0.000197547 0)
(-0.00485965 0.000180913 0)
(-0.00490889 0.000163761 0)
(-0.00495276 0.000146116 0)
(-0.00499111 0.000128006 0)
(-0.00502381 0.000109467 0)
(-0.00505075 9.0537e-05 0)
(-0.00507182 7.1255e-05 0)
(-0.00508694 5.16645e-05 0)
(-0.00509602 3.18127e-05 0)
(-0.00509902 1.17512e-05 0)
(-0.00509588 -8.46709e-06 0)
(-0.00508657 -2.87829e-05 0)
(-0.00507107 -4.9142e-05 0)
(-0.00504941 -6.94825e-05 0)
(-0.0050216 -8.97418e-05 0)
(-0.00498771 -0.000109855 0)
(-0.0049478 -0.000129755 0)
(-0.00490197 -0.000149376 0)
(-0.00485033 -0.000168655 0)
(-0.00479302 -0.000187526 0)
(-0.00473019 -0.000205928 0)
(-0.00466201 -0.0002238 0)
(-0.00458868 -0.000241083 0)
(-0.00451041 -0.000257724 0)
(-0.00442741 -0.000273673 0)
(-0.00433994 -0.000288886 0)
(-0.00424823 -0.000303319 0)
(-0.00415256 -0.000316939 0)
(-0.00405319 -0.000329718 0)
(-0.00395041 -0.000341636 0)
(-0.0038445 -0.000352674 0)
(-0.00373574 -0.000362827 0)
(-0.00362441 -0.000372093 0)
(-0.00351081 -0.000380479 0)
(-0.00339521 -0.000387998 0)
(-0.00327788 -0.00039467 0)
(-0.00315908 -0.000400522 0)
(-0.00303906 -0.000405587 0)
(-0.00291807 -0.000409904 0)
(-0.00279632 -0.000413516 0)
(-0.00267402 -0.000416473 0)
(-0.00255135 -0.000418826 0)
(-0.00242849 -0.000420631 0)
(-0.00230558 -0.000421945 0)
(-0.00218275 -0.000422828 0)
(-0.00206011 -0.000423342 0)
(-0.00193774 -0.000423545 0)
(-0.00181572 -0.000423496 0)
(-0.00169407 -0.000423254 0)
(-0.00157283 -0.000422873 0)
(-0.00145201 -0.000422405 0)
(-0.00133159 -0.000421898 0)
(-0.00121155 -0.000421393 0)
(-0.00109186 -0.00042093 0)
(-0.000972451 -0.000420541 0)
(-0.00085327 -0.000420252 0)
(-0.000734247 -0.000420082 0)
(-0.000615306 -0.000420044 0)
(-0.000496368 -0.000420146 0)
(-0.000377355 -0.000420386 0)
(-0.000258189 -0.000420756 0)
(-0.000138796 -0.000421243 0)
(-1.91053e-05 -0.000421825 0)
(0.00010094 -0.000422478 0)
(0.00022139 -0.000423167 0)
(0.00034228 -0.000423855 0)
(0.000463635 -0.000424496 0)
(0.00058546 -0.000425043 0)
(0.000707745 -0.000425446 0)
(0.000830463 -0.000425649 0)
(0.000953564 -0.000425596 0)
(0.00107698 -0.000425229 0)
(0.00120063 -0.000424491 0)
(0.00132439 -0.000423321 0)
(0.00144815 -0.000421664 0)
(0.00157174 -0.000419465 0)
(0.00169502 -0.000416671 0)
(0.00181778 -0.000413235 0)
(0.00193983 -0.000409112 0)
(0.00206096 -0.000404263 0)
(0.00218092 -0.000398655 0)
(0.00229948 -0.000392259 0)
(0.00241638 -0.000385055 0)
(0.00253138 -0.000377026 0)
(0.00264419 -0.000368166 0)
(0.00275456 -0.000358473 0)
(0.00286221 -0.000347952 0)
(0.00296688 -0.000336613 0)
(0.00306831 -0.000324479 0)
(0.00316624 -0.000311571 0)
(0.0032604 -0.000297922 0)
(0.00335058 -0.000283567 0)
(0.00343653 -0.000268549 0)
(0.00351805 -0.000252912 0)
(0.00359493 -0.000236707 0)
(0.00366698 -0.000219986 0)
(0.00373404 -0.000202805 0)
(0.00379596 -0.000185222 0)
(0.0038526 -0.000167295 0)
(0.00390386 -0.000149086 0)
(0.00394963 -0.000130656 0)
(0.00398985 -0.000112062 0)
(0.00402444 -9.33667e-05 0)
(0.00405338 -7.4628e-05 0)
(0.00407666 -5.59025e-05 0)
(0.00409426 -3.72444e-05 0)
(0.0041062 -1.87108e-05 0)
(0.00411252 -3.50271e-07 0)
(0.00411329 1.77943e-05 0)
(0.00410856 3.56733e-05 0)
(0.00409841 5.3246e-05 0)
(0.00408295 7.04751e-05 0)
(0.00406225 8.73246e-05 0)
(0.00403644 0.000103761 0)
(0.00400565 0.000119755 0)
(0.00396999 0.00013528 0)
(0.00392963 0.000150316 0)
(0.0038847 0.000164844 0)
(0.00383537 0.000178847 0)
(0.00378179 0.000192313 0)
(0.00372413 0.000205233 0)
(0.00366256 0.0002176 0)
(0.00359724 0.000229411 0)
(0.00352836 0.000240665 0)
(0.00345608 0.000251364 0)
(0.00338057 0.000261514 0)
(0.003302 0.000271122 0)
(0.00322054 0.000280195 0)
(0.00313636 0.000288746 0)
(0.00304961 0.000296786 0)
(0.00296046 0.000304328 0)
(0.00286906 0.000311388 0)
(0.00277555 0.000317981 0)
(0.00268008 0.000324125 0)
(0.00258279 0.000329836 0)
(0.0024838 0.000335133 0)
(0.00238326 0.000340033 0)
(0.00228126 0.000344556 0)
(0.00217794 0.00034872 0)
(0.0020734 0.000352543 0)
(0.00196773 0.000356043 0)
(0.00186104 0.000359238 0)
(0.00175342 0.000362145 0)
(0.00164496 0.00036478 0)
(0.00153572 0.000367158 0)
(0.0014258 0.00036929 0)
(0.00131525 0.00037119 0)
(0.00120415 0.000372867 0)
(0.00109255 0.000374343 0)
(0.000980494 0.000375672 0)
(0.000867972 0.00037703 0)
(0.000754869 0.000378884 0)
(0.000640794 0.000382298 0)
(0.000524787 0.000389065 0)
(0.000404995 0.000400514 0)
(0.000279219 0.000412037 0)
(0.000149898 0.000397816 0)
(2.99605e-05 0.000270429 0)
(-3.74269e-05 0.000433271 0)
(-0.000177901 0.000618677 0)
(-0.000327414 0.000637916 0)
(-0.000473406 0.000621551 0)
(-0.000613271 0.000605585 0)
(-0.000749319 0.000596084 0)
(-0.000883421 0.000591137 0)
(-0.00101651 0.000588301 0)
(-0.00114897 0.000586143 0)
(-0.00128089 0.000584025 0)
(-0.00141229 0.000581705 0)
(-0.00154311 0.000579095 0)
(-0.0016733 0.000576162 0)
(-0.00180278 0.000572882 0)
(-0.00193149 0.000569239 0)
(-0.00205934 0.000565211 0)
(-0.00218625 0.000560779 0)
(-0.00231211 0.00055592 0)
(-0.00243684 0.000550611 0)
(-0.00256032 0.000544829 0)
(-0.00268244 0.000538549 0)
(-0.00280309 0.000531745 0)
(-0.00292214 0.000524393 0)
(-0.00303945 0.000516466 0)
(-0.0031549 0.00050794 0)
(-0.00326834 0.000498791 0)
(-0.00337961 0.000488994 0)
(-0.00348857 0.000478527 0)
(-0.00359506 0.000467367 0)
(-0.0036989 0.000455496 0)
(-0.00379993 0.000442895 0)
(-0.00389797 0.000429549 0)
(-0.00399285 0.000415443 0)
(-0.00408439 0.000400566 0)
(-0.0041724 0.000384912 0)
(-0.0042567 0.000368477 0)
(-0.0043371 0.000351257 0)
(-0.00441343 0.000333257 0)
(-0.00448549 0.000314484 0)
(-0.0045531 0.000294948 0)
(-0.0046161 0.000274664 0)
(-0.0046743 0.000253654 0)
(-0.00472754 0.000231941 0)
(-0.00477566 0.000209554 0)
(-0.0048185 0.000186529 0)
(-0.00485593 0.000162905 0)
(-0.00488781 0.000138728 0)
(-0.00491402 0.000114045 0)
(-0.00493446 8.89116e-05 0)
(-0.00494902 6.3386e-05 0)
(-0.00495763 3.75311e-05 0)
(-0.00496023 1.14119e-05 0)
(-0.00495677 -1.48953e-05 0)
(-0.00494722 -4.13233e-05 0)
(-0.00493156 -6.77956e-05 0)
(-0.00490981 -9.42282e-05 0)
(-0.00488201 -0.000120536 0)
(-0.00484821 -0.000146634 0)
(-0.00480847 -0.000172435 0)
(-0.00476291 -0.000197854 0)
(-0.00471162 -0.000222804 0)
(-0.00465475 -0.0002472 0)
(-0.00459247 -0.000270961 0)
(-0.00452493 -0.000294006 0)
(-0.00445235 -0.000316261 0)
(-0.00437494 -0.000337653 0)
(-0.00429292 -0.000358118 0)
(-0.00420655 -0.000377598 0)
(-0.00411608 -0.000396037 0)
(-0.00402179 -0.000413391 0)
(-0.00392395 -0.000429626 0)
(-0.00382285 -0.000444713 0)
(-0.00371878 -0.000458635 0)
(-0.00361204 -0.00047138 0)
(-0.00350291 -0.000482952 0)
(-0.0033917 -0.000493359 0)
(-0.00327868 -0.00050262 0)
(-0.00316414 -0.000510766 0)
(-0.00304834 -0.000517833 0)
(-0.00293153 -0.000523867 0)
(-0.00281397 -0.000528922 0)
(-0.00269587 -0.000533058 0)
(-0.00257744 -0.000536342 0)
(-0.00245886 -0.000538845 0)
(-0.00234031 -0.000540643 0)
(-0.00222194 -0.000541815 0)
(-0.00210385 -0.000542443 0)
(-0.00198616 -0.000542608 0)
(-0.00186894 -0.000542393 0)
(-0.00175225 -0.000541878 0)
(-0.00163611 -0.00054114 0)
(-0.00152056 -0.000540255 0)
(-0.00140557 -0.000539293 0)
(-0.00129113 -0.000538318 0)
(-0.00117719 -0.000537389 0)
(-0.00106369 -0.000536556 0)
(-0.00095057 -0.000535865 0)
(-0.000837744 -0.00053535 0)
(-0.000725124 -0.000535038 0)
(-0.000612615 -0.000534947 0)
(-0.000500119 -0.000535085 0)
(-0.000387537 -0.000535452 0)
(-0.00027477 -0.000536036 0)
(-0.000161727 -0.000536819 0)
(-4.83164e-05 -0.000537772 0)
(6.55393e-05 -0.00053886 0)
(0.000179904 -0.000540037 0)
(0.000294833 -0.000541251 0)
(0.000410365 -0.000542443 0)
(0.000526521 -0.000543547 0)
(0.000643303 -0.000544494 0)
(0.000760696 -0.000545209 0)
(0.000878661 -0.000545617 0)
(0.000997139 -0.000545637 0)
(0.00111605 -0.000545191 0)
(0.00123529 -0.0005442 0)
(0.00135474 -0.000542585 0)
(0.00147424 -0.000540272 0)
(0.00159363 -0.000537189 0)
(0.00171274 -0.000533272 0)
(0.00183134 -0.000528457 0)
(0.00194923 -0.000522691 0)
(0.00206617 -0.000515927 0)
(0.0021819 -0.000508127 0)
(0.00229618 -0.00049926 0)
(0.00240874 -0.000489301 0)
(0.0025193 -0.000478241 0)
(0.00262758 -0.000466075 0)
(0.00273333 -0.00045281 0)
(0.00283625 -0.00043846 0)
(0.00293608 -0.000423048 0)
(0.00303255 -0.000406606 0)
(0.00312541 -0.000389175 0)
(0.0032144 -0.000370801 0)
(0.00329929 -0.000351538 0)
(0.00337987 -0.000331446 0)
(0.00345592 -0.00031059 0)
(0.00352726 -0.000289039 0)
(0.00359371 -0.000266867 0)
(0.00365511 -0.000244148 0)
(0.00371134 -0.000220962 0)
(0.00376228 -0.000197387 0)
(0.00380783 -0.000173503 0)
(0.00384792 -0.000149391 0)
(0.00388248 -0.00012513 0)
(0.00391147 -0.000100796 0)
(0.00393489 -7.64671e-05 0)
(0.00395273 -5.22142e-05 0)
(0.003965 -2.81116e-05 0)
(0.00397174 -4.22685e-06 0)
(0.003973 1.93795e-05 0)
(0.00396886 4.26498e-05 0)
(0.00395939 6.55326e-05 0)
(0.00394469 8.79736e-05 0)
(0.00392486 0.000109924 0)
(0.00390003 0.000131341 0)
(0.00387031 0.000152186 0)
(0.00383584 0.000172423 0)
(0.00379677 0.000192024 0)
(0.00375325 0.000210963 0)
(0.00370544 0.000229219 0)
(0.0036535 0.000246774 0)
(0.00359759 0.000263617 0)
(0.00353788 0.000279738 0)
(0.00347455 0.000295135 0)
(0.00340776 0.000309803 0)
(0.00333769 0.000323745 0)
(0.00326451 0.000336969 0)
(0.00318838 0.000349484 0)
(0.00310948 0.000361299 0)
(0.00302797 0.000372428 0)
(0.00294399 0.000382889 0)
(0.00285773 0.000392699 0)
(0.00276931 0.000401877 0)
(0.00267889 0.000410444 0)
(0.00258662 0.000418424 0)
(0.00249261 0.000425838 0)
(0.00239701 0.00043271 0)
(0.00229994 0.000439064 0)
(0.00220151 0.000444925 0)
(0.00210183 0.000450318 0)
(0.00200101 0.000455267 0)
(0.00189915 0.000459796 0)
(0.00179633 0.000463929 0)
(0.00169265 0.000467689 0)
(0.00158819 0.000471096 0)
(0.00148302 0.000474171 0)
(0.00137722 0.000476931 0)
(0.00127083 0.000479394 0)
(0.00116394 0.000481577 0)
(0.00105657 0.000483517 0)
(0.000948776 0.000485298 0)
(0.000840534 0.000487173 0)
(0.000731724 0.000489807 0)
(0.000621952 0.000494687 0)
(0.000510258 0.000504321 0)
(0.000394761 0.000520689 0)
(0.000273137 0.000538009 0)
(0.000147501 0.000522376 0)
(2.98075e-05 0.000357383 0)
(-3.73149e-05 0.000537833 0)
(-0.000176515 0.000764337 0)
(-0.000324042 0.000785101 0)
(-0.000467809 0.000762847 0)
(-0.000605416 0.000741969 0)
(-0.000739254 0.000729632 0)
(-0.000871198 0.000723224 0)
(-0.00100217 0.000719579 0)
(-0.00113255 0.000716851 0)
(-0.00126242 0.000714217 0)
(-0.00139179 0.00071136 0)
(-0.00152062 0.000708164 0)
(-0.00164884 0.000704582 0)
(-0.00177641 0.000700585 0)
(-0.00190324 0.000696148 0)
(-0.00202926 0.000691245 0)
(-0.00215438 0.000685849 0)
(-0.00227851 0.000679932 0)
(-0.00240156 0.000673465 0)
(-0.00252342 0.000666417 0)
(-0.00264399 0.000658759 0)
(-0.00276315 0.000650457 0)
(-0.00288077 0.000641479 0)
(-0.00299673 0.000631794 0)
(-0.00311089 0.000621372 0)
(-0.00322312 0.000610182 0)
(-0.00333325 0.000598191 0)
(-0.00344114 0.000585373 0)
(-0.00354663 0.000571701 0)
(-0.00364955 0.000557149 0)
(-0.00374973 0.000541695 0)
(-0.00384699 0.000525321 0)
(-0.00394117 0.000508007 0)
(-0.00403207 0.000489741 0)
(-0.00411951 0.000470513 0)
(-0.00420331 0.000450318 0)
(-0.00428327 0.000429153 0)
(-0.00435922 0.000407024 0)
(-0.00443096 0.000383939 0)
(-0.00449831 0.000359909 0)