/*--------------------------------*- C++ -*----------------------------------*\
| =========                 |                                                 |
| \\      /  F ield         | OpenFOAM: The Open Source CFD Toolbox           |
|  \\    /   O peration     | Version:  2412                                  |
|   \\  /    A nd           | Website:  www.openfoam.com                      |
|    \\/     M anipulation  |                                                 |
\*---------------------------------------------------------------------------*/
FoamFile
{
    version     2.0;
    format      ascii;
    arch        "LSB;label=32;scalar=64";
    class       volScalarField;
    location    "1.06";
    object      alpha.water;
}
// * * * * * * * * * * * * * * * * * * * * * * * * * * * * * * * * * * * * * //

dimensions      [0 0 0 0 0 0 0];

internalField   nonuniform List<scalar> 
40000
(
1.53291e-206
2.91729e-199
1.84999e-198
2.48631e-198
2.73977e-198
2.66365e-198
2.44956e-198
2.16811e-198
1.8604e-198
1.55772e-198
1.27318e-198
1.01472e-198
7.88223e-199
5.96031e-199
4.38103e-199
3.1249e-199
2.15866e-199
1.4415e-199
9.28448e-200
5.7541e-200
3.42244e-200
1.94802e-200
1.05779e-200
5.46108e-201
2.67062e-201
1.2321e-201
5.33904e-202
2.16255e-202
8.14437e-203
2.83529e-203
9.0654e-204
2.64328e-204
6.9735e-205
1.65024e-205
3.46962e-206
6.41313e-207
1.03e-207
1.41895e-208
1.65295e-209
1.60281e-210
1.27162e-211
8.10185e-213
4.06338e-214
1.57132e-215
4.59058e-217
9.95647e-219
1.58896e-220
1.88503e-222
1.7335e-224
1.32827e-226
9.10868e-229
5.80616e-231
3.4537e-233
1.8713e-235
1.12786e-237
7.49466e-240
4.97183e-242
3.28926e-244
2.16789e-246
1.42191e-248
9.27093e-251
6.00217e-253
3.85414e-255
2.45172e-257
1.54316e-259
9.59858e-262
5.89247e-264
3.56536e-266
2.12336e-268
1.24289e-270
7.13964e-273
4.01861e-275
2.21265e-277
1.1897e-279
6.23528e-282
3.17927e-284
1.57384e-286
7.54751e-289
3.49814e-291
1.56303e-293
6.71439e-296
2.76487e-298
1.08784e-300
4.07513e-303
1.44776e-305
4.85659e-308
1.53079e-310
4.50837e-313
1.23179e-315
0
0
0
0
0
0
0
0
0
0
0
0
0
0
0
0
0
0
0
0
0
4.43536e-316
1.69789e-313
6.19765e-311
2.10067e-308
6.65366e-306
1.98038e-303
5.56604e-301
1.48372e-298
3.76586e-296
9.13315e-294
2.12335e-291
4.74624e-289
1.02279e-286
2.13023e-284
4.29817e-282
8.41995e-280
1.6047e-277
2.98109e-275
5.40811e-273
9.59744e-271
1.66886e-268
2.84787e-266
4.77646e-264
7.88503e-262
1.28296e-259
2.0602e-257
3.2693e-255
5.13317e-253
7.98415e-251
1.23166e-248
1.88655e-246
2.87243e-244
4.35219e-242
6.56916e-240
9.88814e-238
1.48585e-235
2.23119e-233
3.14261e-231
3.71648e-229
3.74207e-227
3.20955e-225
2.33085e-223
1.42017e-221
7.18188e-220
2.98161e-218
1.00674e-216
2.74746e-215
6.04912e-214
1.07737e-212
1.5623e-211
1.86234e-210
1.84576e-209
1.53944e-208
1.09373e-207
6.70016e-207
3.58019e-206
1.68681e-205
7.07603e-205
2.66694e-204
9.10735e-204
2.8391e-203
8.13504e-203
2.15553e-202
5.31034e-202
1.22244e-201
2.64255e-201
5.3907e-201
1.04231e-200
1.91768e-200
3.3685e-200
5.66402e-200
9.13943e-200
1.41873e-199
2.1231e-199
3.0696e-199
4.29769e-199
5.83951e-199
7.71492e-199
9.92709e-199
1.24532e-198
1.52419e-198
1.82196e-198
2.12891e-198
2.43423e-198
2.7263e-198
2.99112e-198
3.19532e-198
3.0545e-198
8.46807e-199
4.70521e-207
1.00386e-202
3.18945e-195
1.13562e-194
1.35004e-194
1.39974e-194
1.35524e-194
1.25797e-194
1.12715e-194
9.80862e-195
8.31661e-195
6.87656e-195
5.54371e-195
4.35516e-195
3.33075e-195
2.47669e-195
1.78785e-195
1.25071e-195
8.46359e-196
5.52824e-196
3.47751e-196
2.10129e-196
1.21628e-196
6.72344e-197
3.53756e-197
1.76516e-197
8.31969e-198
3.68796e-198
1.53023e-198
5.91215e-199
2.11473e-199
6.95864e-200
2.09177e-200
5.69983e-201
1.39593e-201
3.04392e-202
5.84857e-203
9.78827e-204
1.4088e-204
1.71925e-205
1.75153e-206
1.46448e-207
9.86524e-209
5.24924e-210
2.16124e-211
6.74694e-213
1.56934e-214
2.69528e-216
3.45293e-218
3.44588e-220
2.89563e-222
2.2243e-224
1.64346e-226
1.1924e-228
8.55575e-231
6.62223e-233
5.33142e-235
4.28496e-237
3.43453e-239
2.74249e-241
2.17929e-243
1.72148e-245
1.35028e-247
1.05046e-249
8.09582e-252
6.17365e-254
4.65245e-256
3.46035e-258
2.53677e-260
1.83047e-262
1.29819e-264
9.03567e-267
6.16231e-269
4.11124e-271
2.67854e-273
1.70108e-275
1.05103e-277
6.30489e-280
3.66405e-282
2.05802e-284
1.11442e-286
5.802e-289
2.89572e-291
1.38097e-293
6.27082e-296
2.70071e-298
1.09837e-300
4.19769e-303
1.49915e-305
4.97141e-308
1.51947e-310
4.24305e-313
1.08396e-315
0
0
0
0
0
0
0
0
0
0
0
0
0
0
0
1.97136e-316
8.25777e-314
3.2695e-311
1.17051e-308
3.82872e-306
1.15431e-303
3.23142e-301
8.45362e-299
2.07819e-296
4.82445e-294
1.06225e-291
2.22698e-289
4.46129e-287
8.56748e-285
1.5819e-282
2.81589e-280
4.84462e-278
8.07469e-276
1.30666e-273
2.05714e-271
3.15694e-269
4.73111e-267
6.93595e-265
9.96345e-263
1.40461e-260
1.94625e-258
2.65435e-256
3.56811e-254
4.73388e-252
6.20657e-250
8.05165e-248
1.03476e-245
1.31896e-243
1.66936e-241
2.10032e-239
2.62974e-237
3.28016e-235
4.08029e-233
5.06697e-231
6.28796e-229
7.50842e-227
7.93206e-225
7.34042e-223
5.88221e-221
4.02922e-219
2.32707e-217
1.11778e-215
4.40918e-214
1.41388e-212
3.66278e-211
7.65364e-210
1.29419e-208
1.78379e-207
2.02452e-206
1.91427e-205
1.52665e-204
1.03962e-203
6.11886e-203
3.14815e-202
1.43103e-201
5.80348e-201
2.11865e-200
7.01971e-200
2.1266e-199
5.93106e-199
1.5321e-198
3.68583e-198
8.30055e-198
1.75826e-197
3.51897e-197
6.68194e-197
1.2083e-196
2.08761e-196
3.45592e-196
5.496e-196
8.41741e-196
1.24435e-195
1.77954e-195
2.4668e-195
3.32089e-195
4.34919e-195
5.54947e-195
6.90816e-195
8.39777e-195
9.97828e-195
1.15998e-194
1.32058e-194
1.47362e-194
1.6122e-194
1.71959e-194
1.64579e-194
4.6362e-195
3.08885e-203
2.37073e-199
1.00532e-191
3.15973e-191
3.48801e-191
3.47085e-191
3.30947e-191
3.05863e-191
2.74573e-191
2.40171e-191
2.04998e-191
1.7079e-191
1.38839e-191
1.10058e-191
8.49843e-192
6.38465e-192
4.65992e-192
3.29856e-192
2.26046e-192
1.49653e-192
9.55029e-193
5.8601e-193
3.44795e-193
1.9395e-193
1.0396e-193
5.2909e-194
2.54673e-194
1.15444e-194
4.90515e-195
1.94352e-195
7.14022e-196
2.41716e-196
7.48808e-197
2.10669e-197
5.33755e-198
1.20659e-198
2.4087e-199
4.19813e-200
6.30769e-201
8.05628e-202
8.61241e-203
7.57643e-204
5.38429e-205
3.03018e-206
1.32256e-207
4.3842e-209
1.0834e-210
1.97318e-212
2.66467e-214
2.77141e-216
2.39322e-218
1.87071e-220
1.4024e-222
1.03345e-224
7.55202e-227
5.94378e-229
4.85932e-231
3.96602e-233
3.22814e-235
2.61763e-237
2.11232e-239
1.69446e-241
1.3497e-243
1.0663e-245
8.34539e-248
6.46274e-250
4.94592e-252
3.73577e-254
2.78122e-256
2.03804e-258
1.46787e-260
1.03755e-262
7.18611e-265
4.86886e-267
3.22149e-269
2.07774e-271
1.30374e-273
7.94259e-276
4.68767e-278
2.67399e-280
1.47053e-282
7.77544e-285
3.94119e-287
1.9089e-289
8.80353e-292
3.85078e-294
1.59061e-296
6.17415e-299
2.2396e-301
7.54351e-304
2.34188e-306
6.64273e-309
1.70358e-311
3.89715e-314
9.85644e-317
0
0
0
0
0
0
0
0
0
0
0
0
5.22392e-315
2.60326e-312
1.13749e-309
4.43623e-307
1.56423e-304
5.0393e-302
1.49632e-299
4.12555e-297
1.06296e-294
2.57361e-292
5.88422e-290
1.276e-287
2.63467e-285
5.1982e-283
9.83172e-281
1.78788e-278
3.13444e-276
5.31114e-274
8.71839e-272
1.3895e-269
2.15448e-267
3.25633e-265
4.80632e-263
6.93974e-261
9.8183e-259
1.36325e-256
1.86041e-254
2.49899e-252
3.30857e-250
4.32334e-248
5.58288e-246
7.13341e-244
9.0295e-242
1.13362e-239
1.41321e-237
1.75132e-235
2.15982e-233
2.65358e-231
3.25134e-229
3.97702e-227
4.86139e-225
5.71602e-223
5.94691e-221
5.41132e-219
4.25205e-217
2.84576e-215
1.59903e-213
7.43746e-212
2.82749e-210
8.70134e-209
2.15606e-207
4.2998e-206
6.9323e-205
9.11113e-204
9.8688e-203
8.91818e-202
6.80959e-201
4.44895e-200
2.51731e-199
1.24764e-198
5.47425e-198
2.14711e-197
7.59489e-197
2.44241e-196
7.19365e-196
1.95361e-195
4.92159e-195
1.15652e-194
2.54794e-194
5.28736e-194
1.038e-193
1.93551e-193
3.44033e-193
5.84817e-193
9.53469e-193
1.49491e-192
2.25953e-192
3.29983e-192
4.66651e-192
6.40243e-192
8.53788e-192
1.1084e-191
1.40284e-191
1.73326e-191
2.09282e-191
2.47208e-191
2.85921e-191
3.24084e-191
3.60301e-191
3.92967e-191
4.18233e-191
4.002e-191
1.14163e-191
9.21966e-200
3.74988e-196
1.75254e-188
5.38633e-188
5.73786e-188
5.57848e-188
5.26333e-188
4.8433e-188
4.34986e-188
3.81743e-188
3.27471e-188
2.74532e-188
2.24795e-188
1.79649e-188
1.39969e-188
1.06188e-188
7.83283e-189
5.60842e-189
3.8911e-189
2.61044e-189
1.68971e-189
1.05267e-189
6.29491e-190
3.60271e-190
1.96703e-190
1.02096e-190
5.01817e-191
2.32592e-191
1.01193e-191
4.11148e-192
1.55135e-192
5.40273e-193
1.72486e-193
5.01041e-194
1.31333e-194
3.07798e-195
6.38465e-196
1.159e-196
1.81821e-197
2.43096e-198
2.72775e-199
2.52564e-200
1.8943e-201
1.12807e-202
5.22205e-204
1.83924e-205
4.832e-207
9.34049e-209
1.33089e-210
1.44302e-212
1.2779e-214
1.01047e-216
7.61113e-219
5.62169e-221
4.11415e-223
3.24386e-225
2.6618e-227
2.18054e-229
1.78147e-231
1.44998e-233
1.17449e-235
9.45725e-238
7.56178e-240
5.99692e-242
4.7116e-244
3.66284e-246
2.81409e-248
2.13387e-250
1.59488e-252
1.17332e-254
8.48426e-257
6.02093e-259
4.18682e-261
2.84814e-263
1.89209e-265
1.22528e-267
7.71969e-270
4.72221e-272
2.79847e-274
1.60291e-276
8.85154e-279
4.69969e-281
2.3921e-283
1.16345e-285
5.38817e-288
2.36678e-290
9.81755e-293
3.82693e-295
1.39406e-297
4.71551e-300
1.47017e-302
4.18795e-305
1.07863e-307
2.47964e-310
5.00611e-313
8.87067e-316
0
0
0
0
0
0
0
0
0
9.85907e-317
5.22384e-314
3.01112e-311
1.49188e-308
6.49134e-306
2.52097e-303
8.85169e-301
2.83968e-298
8.39653e-296
2.30536e-293
5.91502e-291
1.42617e-288
3.2472e-286
7.01242e-284
1.44193e-281
2.83321e-279
5.33666e-277
9.66491e-275
1.6875e-272
2.84776e-270
4.65575e-268
7.39018e-266
1.14128e-263
1.71805e-261
2.52573e-259
3.63238e-257
5.11879e-255
7.07938e-253
9.62337e-251
1.28762e-248
1.69816e-246
2.21045e-244
2.84348e-242
3.61935e-240
4.564e-238
5.70832e-236
7.08948e-234
8.75282e-232
1.07544e-229
1.31641e-227
1.60703e-225
1.95854e-223
2.38538e-221
2.78794e-219
2.87351e-217
2.58031e-215
1.99208e-213
1.30362e-211
7.12551e-210
3.20701e-208
1.17382e-206
3.46261e-205
8.19683e-204
1.55856e-202
2.39389e-201
2.99821e-200
3.09774e-199
2.67432e-198
1.95448e-197
1.22473e-196
6.66044e-196
3.17948e-195
1.34643e-194
5.10691e-194
1.75021e-193
5.46299e-193
1.56436e-192
4.13702e-192
1.01648e-191
2.3332e-191
5.02833e-191
1.02211e-190
1.96801e-190
3.60332e-190
6.29576e-190
1.05307e-189
1.69113e-189
2.61424e-189
3.89978e-189
5.62636e-189
7.86739e-189
1.06823e-188
1.41094e-188
1.81567e-188
2.27957e-188
2.79581e-188
3.35342e-188
3.93783e-188
4.53125e-188
5.11356e-188
5.66356e-188
6.15762e-188
6.53808e-188
6.25199e-188
1.80554e-188
1.76942e-196
4.59114e-193
2.12582e-185
6.52951e-185
6.85721e-185
6.5869e-185
6.17443e-185
5.66789e-185
5.09538e-185
4.48541e-185
3.86542e-185
3.25939e-185
2.68721e-185
2.1643e-185
1.70094e-185
1.30279e-185
9.71045e-186
7.03181e-186
4.93853e-186
3.35693e-186
2.20373e-186
1.39377e-186
8.47017e-187
4.93187e-187
2.74268e-187
1.4517e-187
7.28572e-188
3.45273e-188
1.53804e-188
6.40789e-189
2.48319e-189
8.89656e-190
2.92715e-190
8.77954e-191
2.38096e-191
5.78572e-192
1.24717e-192
2.35836e-193
3.86374e-194
5.40917e-195
6.37299e-196
6.21334e-197
4.92093e-198
3.10293e-199
1.52476e-200
5.71201e-202
1.5977e-203
3.2846e-205
4.95231e-207
5.61863e-209
5.12129e-211
4.1056e-213
3.11003e-215
2.30305e-217
1.6878e-219
1.33242e-221
1.09759e-223
9.0267e-226
7.40387e-228
6.05023e-230
4.92043e-232
3.97811e-234
3.1938e-236
2.5433e-238
2.00649e-240
1.5664e-242
1.20851e-244
9.2028e-247
6.90772e-249
5.10379e-251
3.70654e-253
2.64186e-255
1.84517e-257
1.26075e-259
8.41283e-262
5.47239e-264
3.46334e-266
2.12817e-268
1.26694e-270
7.29011e-273
4.0443e-275
2.15726e-277
1.10314e-279
5.39049e-282
2.50817e-284
1.10692e-286
4.61335e-289
1.80685e-291
6.61334e-294
2.24771e-296
7.04136e-299
2.01546e-301
5.21591e-304
1.20486e-306
2.44433e-309
4.26435e-312
6.20938e-315
0
0
0
0
0
0
0
3.94358e-316
3.38017e-313
2.31962e-310
1.3301e-307
6.55835e-305
2.83992e-302
1.09762e-299
3.83558e-297
1.22462e-294
3.6038e-292
9.84772e-290
2.51476e-287
6.03478e-285
1.3676e-282
2.93957e-280
6.0164e-278
1.17667e-275
2.20617e-273
3.97714e-271
6.91243e-269
1.16122e-266
1.88988e-264
2.98638e-262
4.59134e-260
6.88107e-258
1.00714e-255
1.44208e-253
2.02336e-251
2.78625e-249
3.77125e-247
5.0245e-245
6.59848e-243
8.55298e-241
1.09566e-238
1.38885e-236
1.74416e-234
2.17259e-232
2.68736e-230
3.30458e-228
4.04412e-226
4.93078e-224
5.9958e-222
7.27894e-220
8.83123e-218
1.0251e-215
1.04541e-213
9.2498e-212
7.0039e-210
4.47257e-208
2.37287e-206
1.03106e-204
3.62524e-203
1.02296e-201
2.30933e-200
4.18026e-199
6.10963e-198
7.28494e-197
7.17453e-196
5.91408e-195
4.13526e-194
2.48452e-193
1.29834e-192
5.96866e-192
2.43913e-191
8.94565e-191
2.97011e-190
8.99781e-190
2.50505e-189
6.45114e-189
1.54596e-188
3.46625e-188
7.30713e-188
1.45489e-187
2.74735e-187
4.93909e-187
8.48286e-187
1.39625e-186
2.20867e-186
3.36653e-186
4.9565e-186
7.06423e-186
9.7673e-186
1.31248e-185
1.71702e-185
2.19017e-185
2.72771e-185
3.32105e-185
3.95718e-185
4.61965e-185
5.28864e-185
5.94172e-185
6.55575e-185
7.10543e-185
7.52702e-185
7.19194e-185
2.10257e-185
2.49947e-193
4.6163e-190
1.99297e-182
6.13625e-182
6.40884e-182
6.12157e-182
5.72088e-182
5.24939e-182
4.7271e-182
4.175e-182
3.61453e-182
3.06533e-182
2.54425e-182
2.06489e-182
1.63674e-182
1.26549e-182
9.53025e-183
6.97909e-183
4.96126e-183
3.41668e-183
2.27462e-183
1.46038e-183
9.01881e-184
5.34229e-184
3.02587e-184
1.6332e-184
8.36902e-185
4.05496e-185
1.84939e-185
7.90063e-186
3.14437e-186
1.15892e-186
3.92976e-187
1.21705e-187
3.41499e-188
8.6046e-189
1.92768e-189
3.79762e-190
6.49863e-191
9.52872e-192
1.17914e-192
1.21096e-193
1.01324e-194
6.76941e-196
3.53392e-197
1.40961e-198
4.20381e-200
9.20975e-202
1.47359e-203
1.75622e-205
1.65442e-207
1.34872e-209
1.02925e-211
7.65058e-214
5.61999e-216
4.44374e-218
3.67831e-220
3.03989e-222
2.50569e-224
2.05778e-226
1.68193e-228
1.36671e-230
1.10287e-232
8.82772e-235
7.00071e-237
5.49387e-239
4.26103e-241
3.26207e-243
2.46169e-245
1.82867e-247
1.33528e-249
9.56957e-252
6.72068e-254
4.61764e-256
3.09855e-258
2.02693e-260
1.29008e-262
7.97264e-265
4.77359e-267
2.76266e-269
1.54155e-271
8.27083e-274
4.25425e-276
2.09111e-278
9.78756e-281
4.34525e-283
1.82181e-285
7.17809e-288
2.64311e-290
9.03755e-293
2.84835e-295
8.20242e-298
2.13569e-300
4.96353e-303
1.01313e-305
1.77836e-308
2.6087e-311
3.07015e-314
4.92942e-317
0
0
0
0
1.33094e-315
1.51043e-312
1.2847e-309
8.76182e-307
4.99347e-304
2.44716e-301
1.05324e-298
4.04609e-296
1.40534e-293
4.4599e-291
1.30457e-288
3.54351e-286
8.99487e-284
2.1457e-281
4.83378e-279
1.03287e-276
2.10156e-274
4.08616e-272
7.61673e-270
1.36515e-267
2.35905e-265
3.94029e-263
6.37638e-261
1.0019e-258
1.53171e-256
2.28278e-254
3.32265e-252
4.7314e-250
6.60231e-248
9.04237e-246
1.21732e-243
1.61319e-241
2.1073e-239
2.71713e-237
3.46254e-235
4.3664e-233
5.45531e-231
6.76074e-229
8.32042e-227
1.01802e-224
1.23967e-222
1.50403e-220
1.81998e-218
2.19879e-216
2.65494e-214
3.05595e-212
3.07831e-210
2.6787e-208
1.98524e-206
1.23436e-204
6.34157e-203
2.65399e-201
8.94338e-200
2.40895e-198
5.17667e-197
8.90742e-196
1.23731e-194
1.40328e-193
1.31646e-192
1.03566e-191
6.92579e-191
3.98864e-190
2.00249e-189
8.86392e-189
3.49518e-188
1.23939e-187
3.9864e-187
1.17206e-186
3.17244e-186
7.95608e-186
1.85959e-185
4.07265e-185
8.39816e-185
1.63785e-184
3.03328e-184
5.35439e-184
9.03969e-184
1.46415e-183
2.28146e-183
3.42897e-183
4.98277e-183
7.01587e-183
9.59176e-183
1.27555e-182
1.65283e-182
2.08984e-182
2.58184e-182
3.12055e-182
3.69388e-182
4.2871e-182
4.88277e-182
5.46134e-182
6.00262e-182
6.48576e-182
6.85477e-182
6.54502e-182
1.93693e-182
2.79158e-190
3.94043e-187
1.52861e-179
4.71165e-179
4.91235e-179
4.68262e-179
4.3734e-179
4.01678e-179
3.6258e-179
3.21407e-179
2.7959e-179
2.38482e-179
1.99276e-179
1.62968e-179
1.3028e-179
1.01678e-179
7.73619e-180
5.72879e-180
4.12186e-180
2.87574e-180
1.94143e-180
1.26527e-180
7.94014e-181
4.78461e-181
2.76002e-181
1.51903e-181
7.94739e-182
3.93678e-182
1.83826e-182
8.0522e-183
3.2912e-183
1.2479e-183
4.36091e-184
1.39457e-184
4.04879e-185
1.05784e-185
2.46314e-186
5.05594e-187
9.03829e-188
1.38826e-188
1.80481e-189
1.95312e-190
1.7273e-191
1.22342e-192
6.79046e-194
2.88695e-195
9.1921e-197
2.15011e-198
3.66088e-200
4.60069e-202
4.49851e-204
3.74168e-206
2.88214e-208
2.15313e-210
1.58706e-212
1.25733e-214
1.04684e-216
8.70249e-219
7.2159e-221
5.96161e-223
4.90227e-225
4.0079e-227
3.25414e-229
2.62094e-231
2.09156e-233
1.65177e-235
1.28929e-237
9.93388e-240
7.54519e-242
5.64164e-244
4.14665e-246
2.99153e-248
2.11501e-250
1.46298e-252
9.8836e-255
6.50958e-257
4.17167e-259
2.59593e-261
1.56514e-263
9.1216e-266
5.12567e-268
2.76956e-270
1.43472e-272
7.10263e-275
3.34834e-277
1.49725e-279
6.323e-282
2.50946e-284
9.30788e-287
3.20598e-289
1.01786e-291
2.95279e-294
7.74521e-297
1.81343e-299
3.72907e-302
6.59452e-305
9.74592e-308
1.15505e-310
1.02895e-313
4.92937e-317
0
0
2.71116e-315
4.58722e-312
5.15439e-309
4.3516e-306
2.94584e-303
1.66645e-300
8.10647e-298
3.46326e-295
1.32065e-292
4.55343e-290
1.43448e-287
4.16545e-285
1.12321e-282
2.83054e-280
6.70352e-278
1.49932e-275
3.18081e-273
6.42593e-271
1.24059e-268
2.29622e-266
4.08672e-264
7.01289e-262
1.16325e-259
1.86949e-257
2.9174e-255
4.42984e-253
6.55751e-251
9.48073e-249
1.34107e-246
1.859e-244
2.52937e-242
3.38298e-240
4.4542e-238
5.78128e-236
7.40699e-234
9.37958e-232
1.17542e-229
1.45946e-227
1.7976e-225
2.19883e-223
2.6741e-221
3.23685e-219
3.90385e-217
4.69621e-215
5.64072e-213
6.77169e-211
7.71649e-209
7.66426e-207
6.54648e-205
4.73875e-203
2.86233e-201
1.42062e-199
5.7125e-198
1.84063e-196
4.72256e-195
9.64329e-194
1.575e-192
2.07697e-191
2.23861e-190
1.99928e-189
1.50041e-188
9.59322e-188
5.29461e-187
2.55334e-186
1.08811e-185
4.13967e-185
1.41921e-184
4.42192e-184
1.26177e-183
3.32037e-183
8.10927e-183
1.84871e-182
3.95491e-182
7.97754e-182
1.52395e-181
2.76798e-181
4.79774e-181
7.96233e-181
1.26908e-180
1.94799e-180
2.88701e-180
4.14084e-180
5.76022e-180
7.78712e-180
1.02484e-179
1.31529e-179
1.64849e-179
2.02028e-179
2.42407e-179
2.85072e-179
3.28926e-179
3.72709e-179
4.15011e-179
4.54424e-179
4.89477e-179
5.16126e-179
4.92451e-179
1.47525e-179
2.57678e-187
2.91818e-184
9.93834e-177
3.06062e-176
3.19083e-176
3.04124e-176
2.84269e-176
2.61581e-176
2.36821e-176
2.10768e-176
1.84258e-176
1.58092e-176
1.32999e-176
1.09599e-176
8.83626e-177
6.96114e-177
5.35079e-177
4.00661e-177
2.9176e-177
2.06209e-177
1.41165e-177
9.33847e-178
5.95476e-178
3.65011e-178
2.14434e-178
1.20337e-178
6.42772e-179
3.25508e-179
1.55608e-179
6.98879e-180
2.93358e-180
1.14423e-180
4.12087e-181
1.36071e-181
4.08753e-182
1.10744e-182
2.6802e-183
5.73255e-184
1.07066e-184
1.72297e-185
2.35376e-186
2.68486e-187
2.51073e-188
1.88634e-189
1.11398e-190
5.0528e-192
1.71989e-193
4.30297e-195
7.81662e-197
1.03967e-198
1.05981e-200
9.02652e-203
7.03295e-205
5.28748e-207
3.91489e-209
3.10851e-211
2.60577e-213
2.18113e-215
1.82113e-217
1.51514e-219
1.25475e-221
1.03317e-223
8.44926e-226
6.85479e-228
5.51047e-230
4.38406e-232
3.4476e-234
2.67638e-236
2.04829e-238
1.54328e-240
1.14309e-242
8.31089e-245
5.92191e-247
4.12863e-249
2.81144e-251
1.86653e-253
1.20582e-255
7.56454e-258
4.59811e-260
2.7018e-262
1.53077e-264
8.34003e-267
4.35652e-269
2.17484e-271
1.03392e-273
4.66256e-276
1.9858e-278
7.94866e-281
2.97357e-283
1.03304e-285
3.30816e-288
9.6802e-291
2.56124e-293
6.04913e-296
1.25481e-298
2.23848e-301
3.33727e-304
3.99e-307
3.58497e-310
2.15102e-313
4.92934e-317
2.61255e-315
8.6953e-312
1.45092e-308
1.61607e-305
1.35247e-302
9.07591e-300
5.08958e-297
2.45437e-294
1.03949e-291
3.9297e-289
1.34324e-286
4.19535e-284
1.20783e-281
3.22915e-279
8.06853e-277
1.89471e-274
4.20208e-272
8.84005e-270
1.771e-267
3.39072e-265
6.22415e-263
1.09866e-260
1.86995e-258
3.0766e-256
4.90464e-254
7.59261e-252
1.14371e-249
1.67966e-247
2.40939e-245
3.38159e-243
4.65137e-241
6.28014e-239
8.33566e-237
1.08923e-234
1.40316e-232
1.78438e-230
2.24295e-228
2.79026e-226
3.43946e-224
4.20595e-222
5.10817e-220
6.16851e-218
7.41452e-216
8.88056e-214
1.06099e-211
1.26573e-209
1.5093e-207
1.69977e-205
1.66162e-203
1.39039e-201
9.80904e-200
5.74263e-198
2.74676e-196
1.05863e-194
3.25388e-193
7.93577e-192
1.53712e-190
2.3797e-189
2.97602e-188
3.04608e-187
2.58835e-186
1.85232e-185
1.13202e-184
5.98622e-184
2.77265e-183
1.13742e-182
4.17484e-182
1.38374e-181
4.17639e-181
1.15657e-180
2.95903e-180
7.03784e-180
1.56497e-179
3.2704e-179
6.45313e-179
1.20749e-178
2.15103e-178
3.66105e-178
5.97282e-178
9.36849e-178
1.41663e-177
2.07032e-177
2.93105e-177
4.02832e-177
5.38509e-177
7.01399e-177
8.91587e-177
1.10766e-176
1.34662e-176
1.60409e-176
1.87419e-176
2.14999e-176
2.42366e-176
2.68671e-176
2.93086e-176
3.1473e-176
3.31088e-176
3.15653e-176
9.57187e-177
2.02568e-184
1.90541e-181
5.61297e-174
1.72329e-173
1.79791e-173
1.71529e-173
1.60598e-173
1.48151e-173
1.34582e-173
1.20288e-173
1.05699e-173
9.12327e-174
7.72765e-174
6.41698e-174
5.2177e-174
4.14901e-174
3.22188e-174
2.43937e-174
1.79775e-174
1.28712e-174
8.93449e-175
5.99912e-175
3.88688e-175
2.42351e-175
1.44989e-175
8.29601e-176
4.52388e-176
2.34199e-176
1.14615e-176
5.2778e-177
2.27502e-177
9.12803e-178
3.38777e-178
1.15503e-178
3.58996e-179
1.00858e-179
2.53716e-180
5.65474e-181
1.10349e-181
1.86075e-182
2.67164e-183
3.21305e-184
3.17829e-185
2.53423e-186
1.59342e-187
7.71784e-189
2.81179e-190
7.53708e-192
1.46436e-193
2.06878e-195
2.20834e-197
1.93355e-199
1.52742e-201
1.15725e-203
8.61609e-206
6.85861e-208
5.7942e-210
4.88816e-212
4.11381e-214
3.45009e-216
2.88031e-218
2.39109e-220
1.97158e-222
1.61285e-224
1.30745e-226
1.04902e-228
8.32006e-231
6.51467e-233
5.02923e-235
3.82253e-237
2.85637e-239
2.09526e-241
1.50639e-243
1.05974e-245
7.28223e-248
4.87912e-250
3.18118e-252
2.01424e-254
1.23582e-256
7.33002e-259
4.19237e-261
2.30588e-263
1.21605e-265
6.12922e-268
2.94207e-270
1.33966e-272
5.76145e-275
2.3288e-277
8.79786e-280
3.08668e-282
9.98277e-285
2.95021e-287
7.88381e-290
1.88064e-292
3.94028e-295
7.09987e-298
1.06916e-300
1.29119e-303
1.17185e-306
7.102e-310
2.15544e-313
7.90013e-312
2.60884e-308
4.30949e-305
4.75194e-302
3.93709e-299
2.61567e-296
1.4522e-293
6.93339e-291
2.90734e-288
1.08823e-285
3.68308e-283
1.13903e-280
3.24711e-278
8.59651e-276
2.1271e-273
4.94665e-271
1.08649e-268
2.26376e-266
4.49188e-264
8.51842e-262
1.54891e-259
2.7084e-257
4.56671e-255
7.44382e-253
1.17573e-250
1.80341e-248
2.69184e-246
3.91754e-244
5.56907e-242
7.7466e-240
1.05612e-237
1.41344e-235
1.85973e-233
2.40915e-231
3.07693e-229
3.87968e-227
4.83567e-225
5.96545e-223
7.29257e-221
8.84465e-219
1.06547e-216
1.27629e-214
1.52186e-212
1.80839e-210
2.14364e-208
2.53751e-206
3.00262e-204
3.33626e-202
3.20384e-200
2.6209e-198
1.79807e-196
1.01786e-194
4.68028e-193
1.72459e-191
5.04485e-190
1.16715e-188
2.14085e-187
3.13765e-186
3.71762e-185
3.61096e-184
2.91794e-183
1.99054e-182
1.16251e-181
5.88916e-181
2.61946e-180
1.03438e-179
3.66274e-179
1.17368e-178
3.4315e-178
9.22277e-178
2.29413e-177
5.31396e-177
1.1526e-176
2.35295e-176
4.5419e-176
8.325e-176
1.45454e-175
2.43101e-175
3.89899e-175
6.01864e-175
8.96589e-175
1.29216e-174
1.80576e-174
2.45197e-174
3.24133e-174
4.17831e-174
5.26075e-174
6.47853e-174
7.81351e-174
9.2404e-174
1.07265e-173
1.22341e-173
1.37207e-173
1.51422e-173
1.64564e-173
1.76181e-173
1.84907e-173
1.76149e-173
5.40676e-174
1.38604e-181
1.111e-178
2.80252e-171
8.5632e-171
8.94328e-171
8.54583e-171
8.01878e-171
7.41879e-171
6.76412e-171
6.07275e-171
5.36435e-171
4.65833e-171
3.97291e-171
3.32448e-171
2.72622e-171
2.18814e-171
1.71656e-171
1.31408e-171
9.80082e-172
7.10798e-172
5.00275e-172
3.40939e-172
2.24438e-172
1.42338e-172
8.67146e-173
5.05862e-173
2.81601e-173
1.49022e-173
7.46571e-174
3.52452e-174
1.56007e-174
6.43859e-175
2.46247e-175
8.66833e-176
2.78753e-176
8.1207e-177
2.12333e-177
4.93145e-178
1.00555e-178
1.77687e-179
2.68174e-180
3.40121e-181
3.56e-182
3.01391e-183
2.01888e-184
1.04507e-185
4.07984e-187
1.17356e-188
2.44429e-190
3.68037e-192
4.1324e-194
3.73525e-196
2.99944e-198
2.29347e-200
1.71895e-202
1.37209e-204
1.1693e-206
9.95179e-209
8.45009e-211
7.15068e-213
6.02412e-215
5.04691e-217
4.20006e-219
3.46805e-221
2.83795e-223
2.29872e-225
1.84072e-227
1.4553e-229
1.13447e-231
8.70783e-234
6.57167e-236
4.86895e-238
3.53594e-240
2.51286e-242
1.74449e-244
1.1809e-246
7.77959e-249
4.97744e-251
3.08608e-253
1.84986e-255
1.06931e-257
5.94457e-260
3.16884e-262
1.61451e-264
7.83433e-267
3.60644e-269
1.56809e-271
6.4084e-274
2.44789e-276
8.68402e-279
2.83996e-281
8.48713e-284
2.29352e-286
5.5328e-289
1.17233e-291
2.13632e-294
3.2536e-297
3.97391e-300
3.64767e-303
2.23583e-306
6.86282e-310
2.28843e-308
7.47147e-305
1.22027e-301
1.3304e-298
1.08988e-295
7.15944e-293
3.9303e-290
1.85549e-287
7.69372e-285
2.84774e-282
9.5312e-280
2.91504e-277
8.21854e-275
2.15192e-272
5.26643e-270
1.21139e-267
2.63188e-265
5.42448e-263
1.0648e-260
1.99772e-258
3.59388e-256
6.21783e-254
1.0374e-251
1.67333e-249
2.61557e-247
3.97059e-245
5.86601e-243
8.4503e-241
1.18915e-238
1.63755e-236
2.21035e-234
2.92901e-232
3.81615e-230
4.8956e-228
6.19247e-226
7.73357e-224
9.54807e-222
1.16685e-219
1.41319e-217
1.69819e-215
2.02708e-213
2.40623e-211
2.84358e-209
3.34902e-207
3.93508e-205
4.61766e-203
5.41708e-201
5.92802e-199
5.58147e-197
4.45428e-195
2.96481e-193
1.61885e-191
7.13776e-190
2.50833e-188
6.96696e-187
1.52601e-185
2.64647e-184
3.66744e-183
4.11331e-182
3.78899e-181
2.91042e-180
1.89201e-179
1.05571e-178
5.12286e-178
2.18804e-177
8.31659e-177
2.84108e-176
8.80147e-176
2.4928e-175
6.50257e-175
1.57267e-174
3.54783e-174
7.50659e-174
1.49705e-173
2.82702e-173
5.0761e-173
8.69912e-173
1.42776e-172
2.25129e-172
3.42022e-172
5.01968e-172
7.13441e-172
9.84191e-172
1.32041e-171
1.7261e-171
2.2022e-171
2.74645e-171
3.35278e-171
4.01164e-171
4.71024e-171
5.43252e-171
6.16027e-171
6.87356e-171
7.55206e-171
8.17683e-171
8.72747e-171
9.13836e-171
8.69908e-171
2.70281e-171
8.39157e-179
5.84501e-176
1.25367e-168
3.8073e-168
3.98087e-168
3.81122e-168
3.58515e-168
3.32741e-168
3.04555e-168
2.74689e-168
2.4395e-168
2.13145e-168
1.83042e-168
1.5435e-168
1.27653e-168
1.03416e-168
8.19557e-169
6.3435e-169
4.78787e-169
3.51723e-169
2.50991e-169
1.73602e-169
1.16106e-169
7.48926e-170
4.64587e-170
2.76304e-170
1.57008e-170
8.49292e-171
4.35523e-171
2.1078e-171
9.57987e-172
4.0666e-172
1.60261e-172
5.82445e-173
1.93779e-173
5.85351e-174
1.5908e-174
3.85002e-175
8.20305e-176
1.51911e-176
2.41028e-177
3.22434e-178
3.57203e-179
3.21214e-180
2.29357e-181
1.26983e-182
5.31755e-184
1.64384e-185
3.67837e-187
5.92224e-189
7.02561e-191
6.58525e-193
5.39107e-195
4.16674e-197
3.14726e-199
2.51952e-201
2.16797e-203
1.86321e-205
1.59771e-207
1.36553e-209
1.16201e-211
9.83431e-214
8.26835e-216
6.8982e-218
5.70406e-220
4.66913e-222
3.77876e-224
3.0197e-226
2.37956e-228
1.84648e-230
1.4089e-232
1.05548e-234
7.75112e-237
5.57071e-239
3.91138e-241
2.6781e-243
1.78468e-245
1.15513e-247
7.2458e-250
4.39446e-252
2.57033e-254
1.44595e-256
7.80025e-259
4.0221e-261
1.97534e-263
9.20395e-266
4.05086e-268
1.67582e-270
6.4803e-273
2.32739e-275
7.7059e-278
2.33159e-280
6.37952e-283
1.55825e-285
3.34321e-288
6.16896e-291
9.51368e-294
1.17666e-296
1.0937e-299
6.78857e-303
2.11006e-306
6.40804e-305
2.066e-301
3.33213e-298
3.5875e-295
2.90224e-292
1.88274e-289
1.02071e-286
4.75898e-284
1.94887e-281
7.1245e-279
2.35519e-276
7.11481e-274
1.98141e-271
5.12488e-269
1.239e-266
2.81555e-264
6.0435e-262
1.2307e-259
2.38703e-257
4.42537e-255
7.86738e-253
1.3452e-250
2.21823e-248
3.53661e-246
5.46449e-244
8.20065e-242
1.19779e-239
1.70604e-237
2.37395e-235
3.23281e-233
4.31556e-231
5.65621e-229
7.28952e-227
9.25096e-225
1.15769e-222
1.43053e-220
1.74768e-218
2.11363e-216
2.53353e-214
3.01346e-212
3.56078e-210
4.18456e-208
4.89619e-206
5.70998e-204
6.64409e-202
7.72167e-200
8.9723e-198
9.6527e-196
8.89308e-194
6.90845e-192
4.45073e-190
2.33814e-188
9.85979e-187
3.29614e-185
8.67309e-184
1.7951e-182
2.93898e-181
3.84667e-180
4.08068e-179
3.56283e-178
2.60036e-177
1.61054e-176
8.58468e-176
3.98988e-175
1.63632e-174
5.98653e-174
1.97298e-173
5.90933e-173
1.62141e-172
4.10511e-172
9.65362e-172
2.12114e-171
4.37817e-171
8.53052e-171
1.57603e-170
2.77227e-170
4.66014e-170
7.51147e-170
1.16449e-169
1.74125e-169
2.51787e-169
3.5294e-169
4.8064e-169
6.37153e-169
8.23696e-169
1.04012e-168
1.28491e-168
1.55501e-168
1.84592e-168
2.15191e-168
2.46593e-168
2.78016e-168
3.08631e-168
3.37605e-168
3.64181e-168
3.87519e-168
4.04815e-168
3.85069e-168
1.21108e-168
4.55304e-176
2.79869e-173
5.07782e-166
1.53113e-165
1.60281e-165
1.53771e-165
1.45041e-165
1.35063e-165
1.24118e-165
1.12475e-165
1.00432e-165
8.8293e-166
7.63501e-166
6.48795e-166
5.41148e-166
4.42498e-166
3.54242e-166
2.77218e-166
2.11734e-166
1.57546e-166
1.13982e-166
8.00086e-167
5.43621e-167
3.56625e-167
2.25252e-167
1.36565e-167
7.92099e-168
4.37924e-168
2.29856e-168
1.14033e-168
5.32123e-169
2.32315e-169
9.43322e-170
3.53932e-170
1.21817e-170
3.81533e-171
1.07767e-171
2.71776e-172
6.0507e-173
1.17433e-173
1.95895e-174
2.76447e-175
3.2422e-176
3.09786e-177
2.35899e-178
1.39786e-179
6.28524e-181
2.09103e-182
5.03724e-184
8.69881e-186
1.09507e-187
1.06943e-189
8.9548e-192
7.0079e-194
5.34051e-196
4.28825e-198
3.72908e-200
3.23927e-202
2.80779e-204
2.42604e-206
2.08728e-208
1.78624e-210
1.51874e-212
1.2815e-214
1.07184e-216
8.87542e-219
7.26702e-221
5.87582e-223
4.68536e-225
3.67941e-227
2.84147e-229
2.15468e-231
1.60182e-233
1.1655e-235
8.28568e-238
5.74459e-240
3.8767e-242
2.54123e-244
1.61453e-246
9.91848e-249
5.87684e-251
3.34931e-253
1.83058e-255
9.56409e-258
4.75962e-260
2.24735e-262
1.00239e-264
4.20279e-267
1.6472e-269
5.99632e-272
2.01244e-274
6.17238e-277
1.71202e-279
4.2393e-282
9.22081e-285
1.72495e-287
2.69702e-290
3.38193e-293
3.18715e-296
2.00576e-299
6.32132e-303
1.75016e-301
5.56547e-298
8.85329e-295
9.40126e-292
7.50143e-289
4.79984e-286
2.56671e-283
1.18043e-280
4.76842e-278
1.7196e-275
5.60785e-273
1.67129e-270
4.59197e-268
1.17184e-265
2.79537e-263
6.2681e-261