/*--------------------------------*- C++ -*----------------------------------*\
| =========                 |                                                 |
| \\      /  F ield         | OpenFOAM: The Open Source CFD Toolbox           |
|  \\    /   O peration     | Version:  2412                                  |
|   \\  /    A nd           | Website:  www.openfoam.com                      |
|    \\/     M anipulation  |                                                 |
\*---------------------------------------------------------------------------*/
FoamFile
{
    version     2.0;
    format      ascii;
    arch        "LSB;label=32;scalar=64";
    class       surfaceScalarField;
    location    "1.06";
    object      alphaPhi0.water;
}
// * * * * * * * * * * * * * * * * * * * * * * * * * * * * * * * * * * * * * //

dimensions      [0 3 -1 0 0 0 0];

oriented        oriented;

internalField   nonuniform List<scalar> 
79600
(
2.3939e-217
-1.53252e-213
7.22456e-210
-2.91782e-206
7.59605e-209
-1.85056e-205
1.47886e-208
-2.48686e-205
2.16598e-208
-2.74027e-205
2.6294e-208
-2.66393e-205
2.89508e-208
-2.44965e-205
2.97948e-208
-2.16805e-205
2.90944e-208
-1.8602e-205
2.7278e-208
-1.55744e-205
2.4652e-208
-1.27284e-205
2.15042e-208
-1.01434e-205
1.81301e-208
-7.87837e-206
1.47754e-208
-5.95661e-206
1.16348e-208
-4.37766e-206
8.84453e-209
-3.12197e-206
6.48188e-209
-2.15622e-206
4.5736e-209
-1.43955e-206
3.10146e-209
-9.26964e-207
2.01718e-209
-5.74328e-207
1.25541e-209
-3.41491e-207
7.45685e-210
-1.94302e-207
4.21506e-210
-1.05463e-207
2.26013e-210
-5.44218e-208
1.14551e-210
-2.65992e-208
5.46645e-211
-1.22639e-208
2.44564e-211
-5.31045e-209
1.02097e-211
-2.14917e-209
3.95644e-212
-8.08606e-210
1.41505e-212
-2.81178e-210
4.64137e-213
-8.9782e-211
1.38635e-213
-2.61371e-211
3.74167e-214
-6.88254e-212
9.04654e-215
-1.62505e-212
1.94087e-215
-3.4074e-213
3.65626e-216
-6.27737e-214
5.9779e-217
-1.00413e-214
8.37394e-218
-1.37643e-215
9.90811e-219
-1.5935e-216
9.74783e-220
-1.53316e-217
7.83819e-221
-1.20443e-218
5.05616e-222
-7.57805e-220
2.5648e-223
-3.74007e-221
1.00211e-224
-1.41667e-222
2.95506e-226
-4.02926e-224
6.46274e-228
-8.43827e-226
1.03897e-229
-1.28577e-227
1.24039e-231
-1.43398e-229
1.14679e-233
-1.21455e-231
8.8254e-236
-8.35641e-234
6.07243e-238
-4.97605e-236
3.87993e-240
-2.59505e-238
2.31106e-242
-1.08763e-240
1.25264e-244
-2.01972e-243
7.54478e-247
5.04363e-250
5.00502e-249
8.50429e-252
3.31115e-251
9.09049e-254
2.18227e-253
8.31125e-256
1.43129e-255
7.00276e-258
9.33176e-258
5.5991e-260
6.04127e-260
4.30962e-262
3.87904e-262
3.2182e-264
2.46741e-264
2.34192e-266
1.55293e-266
1.66506e-268
9.65865e-269
1.15825e-270
5.92886e-271
7.8883e-273
3.58706e-273
5.26072e-275
2.13608e-275
3.43475e-277
1.2502e-277
2.19436e-279
7.18088e-280
1.37075e-281
4.04135e-282
8.36457e-284
2.2249e-284
4.98064e-286
1.19613e-286
2.89033e-288
6.26813e-289
1.63241e-290
3.19557e-291
8.95914e-293
1.58167e-293
4.76996e-295
7.58387e-296
2.45902e-297
3.51443e-298
1.22498e-299
1.57004e-300
5.8838e-302
6.74336e-303
2.71839e-304
2.7763e-305
1.20491e-306
1.09214e-307
5.10906e-309
4.09045e-310
2.06588e-311
1.45292e-312
7.9385e-314
4.87293e-315
2.88783e-316
1.53563e-317
9.90231e-319
4.52169e-320
3.18672e-321
1.23516e-322
9.88131e-324
0
0
0
0
0
0
0
0
0
0
0
0
0
0
0
0
0
0
0
0
0
0
0
0
0
0
0
0
0
0
0
0
0
0
0
0
0
0
0
0
0
0
0
0
-4.44659e-323
0
-1.70255e-320
4.94066e-324
-6.21598e-318
1.31421e-321
-2.10732e-315
4.37194e-319
-6.67608e-313
1.357e-316
-1.98744e-310
3.95136e-314
-5.58699e-308
1.08462e-311
-1.48958e-305
2.81853e-309
-3.78144e-303
6.96082e-307
-9.17258e-301
1.63949e-304
-2.13288e-298
3.69421e-302
-4.76835e-296
7.9862e-300
-1.02772e-293
1.66079e-297
-2.14083e-291
3.33026e-295
-4.32021e-289
6.45311e-293
-8.46433e-287
1.21078e-290
-1.61338e-284
2.20379e-288
-2.9976e-282
3.89784e-286
-5.43872e-280
6.70969e-284
-9.65289e-278
1.12563e-281
-1.67869e-275
1.84273e-279
-2.86493e-273
2.94727e-277
-4.80553e-271
4.60956e-275
-7.93373e-269
7.05409e-273
-1.29099e-266
1.05688e-270
-2.07325e-264
1.55095e-268
-3.29022e-262
2.22852e-266
-5.16633e-260
3.13277e-264
-8.03615e-258
4.30368e-262
-1.23974e-255
5.76365e-260
-1.899e-253
7.48858e-258
-2.89147e-251
9.36502e-256
-4.38114e-249
1.11177e-253
-6.61297e-247
1.21689e-251
-9.95419e-245
1.14194e-249
-1.49578e-242
6.88146e-248
-2.10609e-240
-1.40008e-241
-2.48734e-238
-6.76252e-239
-2.49861e-236
-1.24264e-236
-2.1359e-234
-1.63104e-234
-1.54446e-232
-1.68634e-232
-9.36062e-231
-1.41015e-230
-4.70409e-229
-9.59071e-229
-1.93882e-227
-5.2898e-227
-6.49272e-226
-2.35159e-225
-1.75563e-224
-8.37619e-224
-3.82606e-223
-2.38228e-222
-6.7381e-222
-5.41325e-221
-9.65175e-221
-9.87528e-220
-1.13532e-219
-1.45833e-218
-1.10913e-218
-1.76268e-217
-9.10859e-218
-1.76565e-216
-6.36503e-217
-1.4848e-215
-3.83078e-216
-1.06172e-214
-2.0087e-215
-6.53718e-214
-9.27608e-215
-3.50729e-213
-3.80926e-214
-1.65789e-212
-1.40366e-213
-6.9733e-212
-4.68013e-213
-2.634e-211
-1.42253e-212
-9.0113e-211
-3.96842e-212
-2.81345e-210
-1.02217e-211
-8.07197e-210
-2.44397e-211
-2.14117e-209
-5.45092e-211
-5.27991e-209
-1.1396e-210
-1.21642e-208
-2.24407e-210
-2.63132e-208
-4.17991e-210
-5.37097e-208
-7.39212e-210
-1.03903e-207
-1.24513e-209
-1.91249e-207
-2.00247e-209
-3.3607e-207
-3.08171e-209
-5.65284e-207
-4.54824e-209
-9.12414e-207
-6.44903e-209
-1.41673e-206
-8.801e-209
-2.12061e-206
-1.15815e-208
-3.06661e-206
-1.47198e-208
-4.29425e-206
-1.80915e-208
-5.83573e-206
-2.1519e-208
-7.71096e-206
-2.47685e-208
-9.92316e-206
-2.75686e-208
-1.24495e-205
-2.96477e-208
-1.52387e-205
-3.07554e-208
-1.82172e-205
-3.0699e-208
-2.12877e-205
-2.9358e-208
-2.43419e-205
-2.66776e-208
-2.72638e-205
-2.25716e-208
-2.99133e-205
-1.58998e-208
-3.19576e-205
-2.83536e-209
-3.05559e-205
-7.16e-218
-8.47018e-206
-4.7043e-214
2.71816e-213
-1.00385e-209
1.58418e-205
-3.19105e-202
7.87406e-205
-1.13635e-201
1.21016e-204
-1.35061e-201
1.54538e-204
-1.40024e-201
1.78501e-204
-1.35565e-201
1.92944e-204
-1.25827e-201
1.97477e-204
-1.12733e-201
1.93306e-204
-9.80935e-202
1.82067e-204
-8.31644e-202
1.65497e-204
-6.87569e-202
1.45406e-204
-5.54234e-202
1.23581e-204
-4.35348e-202
1.01603e-204
-3.32895e-202
8.07725e-205
-2.47491e-202
6.20383e-205
-1.78621e-202
4.59802e-205
-1.24928e-202
3.28397e-205
-8.45168e-203
2.25619e-205
-5.51884e-203
1.48818e-205
-3.47044e-203
9.40259e-206
-2.09623e-203
5.676e-206
-1.21283e-203
3.26444e-206
-6.70104e-204
1.78308e-206
-3.5238e-204
9.21736e-207
-1.75717e-204
4.4921e-207
-8.27589e-205
2.05525e-207
-3.66543e-205
8.78681e-208
-1.51938e-205
3.49236e-208
-5.86355e-206
1.2831e-208
-2.09455e-206
4.33045e-209
-6.88146e-207
1.33327e-209
-2.06475e-207
3.71606e-210
-5.61387e-208
9.29703e-211
-1.37127e-208
2.0684e-211
-2.9807e-209
4.04995e-212
-5.70511e-210
6.89923e-213
-9.50331e-211
1.00959e-213
-1.35985e-211
1.2513e-214
-1.64751e-212
1.29328e-215
-1.66317e-213
1.09585e-216
-1.37455e-214
7.47339e-218
-9.12288e-216
4.02163e-219
-4.76191e-217
1.67288e-220
-1.9121e-218
5.27096e-222
-5.77511e-220
1.2362e-223
-1.28501e-221
2.13862e-225
-2.07647e-223
2.75707e-227
-2.44108e-225
2.76608e-229
-2.15444e-227
2.33445e-231
-1.52289e-229
1.79922e-233
-9.22409e-232
1.3325e-235
-4.87712e-234
9.68089e-238
-2.07265e-236
6.94868e-240
-3.89735e-239
5.37474e-242
6.55984e-245
4.31975e-244
1.33877e-246
3.46235e-246
1.73375e-248
2.76464e-248
1.92105e-250
2.19683e-250
1.96121e-252
1.73527e-252
1.89987e-254
1.36102e-254
1.77162e-256
1.05876e-256
1.60269e-258
8.15924e-259
1.41289e-260
6.22155e-261
1.21695e-262
4.68815e-263
1.02557e-264
3.48659e-265
8.4622e-267
2.55575e-267
6.83742e-269
1.84396e-269
5.40871e-271
1.30761e-271
4.18663e-273
9.10006e-274
3.16872e-275
6.20539e-276
2.34287e-277
4.1394e-278
1.69039e-279
2.69648e-280
1.18866e-281
1.7122e-282
8.13496e-284
1.05772e-284
5.41006e-286
6.34393e-287
3.49025e-288
3.68606e-289
2.18028e-290
2.06999e-291
1.31612e-292
1.12068e-293
7.66039e-295
5.83341e-296
4.28891e-297
2.91078e-298
2.30384e-299
1.38785e-300
1.18394e-301
6.30065e-303
5.80247e-304
2.71293e-305
2.70273e-306
1.10308e-307
1.19186e-308
4.21467e-310
4.95471e-311
1.50484e-312
1.93229e-313
4.98902e-315
7.0306e-316
1.52446e-317
2.37152e-318
4.25588e-320
7.36158e-321
1.08694e-322
1.97626e-323
0
0
0
0
0
0
0
0
0
0
0
0
0
0
0
0
0
0
0
0
0
0
0
0
0
0
0
0
0
0
0
0
-1.97626e-323
0
-8.28054e-321
4.94066e-324
-3.27939e-318
1.60571e-321
-1.17435e-315
5.67163e-319
-3.84229e-313
1.82668e-316
-1.15869e-310
5.41421e-314
-3.24449e-308
1.48774e-311
-8.48987e-306
3.81406e-309
-2.08759e-303
9.17298e-307
-4.8474e-301
2.07975e-304
-1.06754e-298
4.46423e-302
-2.23856e-296
9.10717e-300
-4.48543e-294
1.77187e-297
-8.61561e-292
3.29806e-295
-1.5911e-289
5.88979e-293
-2.83281e-287
1.01177e-290
-4.87462e-285
1.6759e-288
-8.12609e-283
2.68251e-286
-1.3152e-280
4.15758e-284
-2.07091e-278
6.25101e-282
-3.17854e-276
9.13277e-280
-4.76417e-274
1.29862e-277
-6.98535e-272
1.79972e-275
-1.00357e-269
2.43389e-273
-1.41496e-267
3.21556e-271
-1.9608e-265
4.15418e-269
-2.67447e-263
5.25159e-267
-3.59548e-261
6.49952e-265
-4.77058e-259
7.87755e-263
-6.25516e-257
9.34912e-261
-8.1152e-255
1.08562e-258
-1.04299e-252
1.2317e-256
-1.32951e-250
1.36205e-254
-1.68278e-248
1.46149e-252
-2.11727e-246
1.50951e-250
-2.65102e-244
1.47963e-248
-3.30674e-242
1.33705e-246
-4.11337e-240
1.03536e-244
-5.10804e-238
5.13093e-243
-6.09743e-236
-2.41467e-237
-6.43284e-234
-1.13642e-234
-5.93914e-232
-2.05713e-232
-4.74349e-230
-2.65625e-230
-3.23522e-228
-2.69437e-228
-1.85862e-226
-2.20293e-226
-8.87176e-225
-1.45847e-224
-3.47421e-223
-7.79229e-223
-1.10491e-221
-3.33903e-221
-2.83601e-220
-1.14134e-219
-5.86562e-219
-3.10461e-218
-9.80735e-218
-6.73166e-217
-1.33525e-216
-1.17049e-215
-1.49538e-215
-1.64764e-214
-1.39375e-214
-1.90015e-213
-1.09447e-213
-1.81881e-212
-7.33069e-213
-1.46433e-211
-4.23891e-212
-1.0046e-210
-2.14018e-211
-5.94747e-210
-9.53524e-211
-3.07434e-209
-3.7855e-210
-1.40277e-208
-1.3511e-209
-5.70652e-208
-4.37083e-209
-2.08856e-207
-1.29105e-208
-6.93472e-207
-3.50564e-208
-2.10459e-206
-8.80322e-208
-5.87846e-206
-2.05546e-207
-1.52046e-205
-4.48501e-207
-3.66179e-205
-9.18843e-207
-8.25413e-205
-1.77516e-206
-1.74983e-204
-3.24713e-206
-3.50453e-204
-5.64398e-206
-6.65852e-204
-9.35066e-206
-1.20469e-203
-1.48053e-205
-2.08234e-203
-2.24564e-205
-3.44858e-203
-3.27016e-205
-5.48626e-203
-4.58083e-205
-8.40509e-203
-6.184e-205
-1.24286e-202
-8.05753e-205
-1.77785e-202
-1.0147e-204
-2.46496e-202
-1.23627e-204
-3.31901e-202
-1.45819e-204
-4.34742e-202
-1.6655e-204
-5.54797e-202
-1.84129e-204
-6.90713e-202
-1.96856e-204
-8.39739e-202
-2.03206e-204
-9.97872e-202
-2.02002e-204
-1.16012e-201
-1.92525e-204
-1.32082e-201
-1.74507e-204
-1.47396e-201
-1.47477e-204
-1.61264e-201
-1.04053e-204
-1.72021e-201
-1.88431e-205
-1.64682e-201
-5.64494e-214
-4.6385e-202
-3.08875e-210
4.95223e-210
-2.37116e-206
4.67962e-202
-1.00601e-198
2.18952e-201
-3.16234e-198
3.18798e-201
-3.49008e-198
3.93271e-201
-3.47272e-198
4.47615e-201
-3.3111e-198
4.811e-201
-3.05997e-198
4.92527e-201
-2.74675e-198
4.83868e-201
-2.40241e-198
4.58195e-201
-2.05039e-198
4.1924e-201
-1.70807e-198
3.71134e-201
-1.38836e-198
3.18076e-201
-1.1004e-198
2.63905e-201
-8.49577e-199
2.11884e-201
-6.38153e-199
1.64488e-201
-4.65671e-199
1.23323e-201
-3.29554e-199
8.91766e-202
-2.25782e-199
6.20869e-202
-1.49434e-199
4.15395e-202
-9.53322e-200
2.66478e-202
-5.84744e-200
1.63499e-202
-3.43905e-200
9.56774e-203
-1.93356e-200
5.3235e-203
-1.03584e-200
2.80663e-203
-5.26846e-201
1.39679e-203
-2.53409e-201
6.53481e-204
-1.14775e-201
2.86084e-204
-4.87206e-202
1.16603e-204
-1.92825e-202
4.40001e-205
-7.07492e-203
1.52769e-205
-2.3914e-203
4.84717e-206
-7.39495e-204
1.39485e-206
-2.07605e-204
3.61011e-207
-5.2465e-205
8.32629e-208
-1.18236e-205
1.69383e-208
-2.35155e-206
3.00494e-209
-4.07984e-207
4.5904e-210
-6.09547e-208
5.95436e-211
-7.73061e-209
6.4577e-212
-8.19135e-210
5.7572e-213
-7.12532e-211
4.14207e-214
-4.99109e-212
2.35751e-215
-2.75686e-213
1.03958e-216
-1.17419e-214
3.47821e-218
-3.76845e-216
8.66652e-220
-8.91565e-218
1.58996e-221
-1.52929e-219
2.16072e-223
-1.89713e-221
2.25925e-225
-1.74579e-223
1.95942e-227
-1.26579e-225
1.53677e-229
-7.75826e-228
1.15478e-231
-4.124e-230
8.5213e-234
-1.75899e-232
6.22925e-236
-3.33937e-235
4.89948e-238
9.10734e-241
3.99881e-240
1.89531e-242
3.2548e-242
2.49478e-244
2.63922e-244
2.80833e-246
2.12969e-246
2.91212e-248
1.70833e-248
2.86511e-250
1.36069e-250
2.71333e-252
1.07493e-252
2.49282e-254
8.41247e-255
2.23181e-256
6.51425e-257
1.95221e-258
4.98497e-259
1.67081e-260
3.76494e-261
1.40007e-262
2.80267e-263
1.14885e-264
2.05355e-265
9.2293e-267
1.47888e-267
7.25517e-269
1.04521e-269
5.57672e-271
7.2382e-272
4.18757e-273
4.90348e-274
3.06846e-275
3.24393e-276
2.19134e-277
2.09189e-278
1.52307e-279
1.3124e-280
1.02867e-281
7.99403e-283
6.73963e-284
4.7172e-285
4.2756e-286
2.69033e-287
2.62112e-288
1.47923e-289
1.54937e-290
7.81987e-292
8.80979e-293
3.96289e-294
4.80606e-295
1.919e-296
2.50834e-297
8.84813e-299
1.24853e-299
3.8694e-301
5.90635e-302
1.59793e-303
2.64534e-304
6.20107e-306
1.11691e-306
2.24881e-308
4.42411e-309
7.57261e-311
1.63497e-311
2.35031e-313
5.60169e-314
6.6649e-316
1.76624e-316
1.70881e-318
5.08063e-319
3.90806e-321
1.31916e-321
9.88131e-324
4.94066e-324
0
0
0
0
0
0
0
0
0
0
0
0
0
0
0
0
0
0
0
0
0
0
0
0
0
0
-5.2371e-322
0
-2.61054e-319
2.02567e-322
-1.14099e-316
8.81018e-320
-4.45103e-314
3.39316e-317
-1.56986e-311
1.17983e-314
-5.05874e-309
3.74246e-312
-1.50247e-306
1.09247e-309
-4.14353e-304
2.95653e-307
-1.06785e-301
7.46493e-305
-2.58605e-299
1.76821e-302
-5.91402e-297
3.94833e-300
-1.28275e-294
8.34706e-298
-2.64917e-292
1.6771e-295
-5.22789e-290
3.21364e-293
-9.88987e-288
5.8913e-291
-1.7988e-285
1.03619e-288
-3.15417e-283
1.75309e-286
-5.34552e-281
2.85985e-284
-8.77633e-279
4.50828e-282
-1.39896e-276
6.8815e-280
-2.16948e-274
1.01898e-277
-3.27948e-272
1.4662e-275
-4.84114e-270
2.05325e-273
-6.99091e-268
2.80242e-271
-9.89188e-266
3.73251e-269
-1.37362e-263
4.85642e-267
-1.87475e-261
6.17858e-265
-2.51848e-259
7.69216e-263
-3.33467e-257
9.37561e-261
-4.35776e-255
1.11903e-258
-5.6277e-253
1.30778e-256
-7.1911e-251
1.49547e-254
-9.10296e-249
1.6708e-252
-1.14289e-246
1.81916e-250
-1.42481e-244
1.92175e-248
-1.76573e-242
1.95428e-246
-2.17763e-240
1.88584e-244
-2.67547e-238
1.67709e-242
-3.27814e-236
1.27692e-240
-4.00976e-234
6.1904e-239
-4.713e-232
-1.88385e-233
-4.89672e-230
-8.66369e-231
-4.44523e-228
-1.55065e-228
-3.48127e-226
-1.97457e-226
-2.31982e-224
-1.96714e-224
-1.29659e-222
-1.57247e-222
-5.99286e-221
-1.01278e-220
-2.26176e-219
-5.23603e-219
-6.90299e-218
-2.15999e-217
-1.69467e-216
-7.07633e-216
-3.34513e-215
-1.83867e-214
-5.33265e-214
-3.80038e-213
-6.92296e-213
-6.29405e-212
-7.39924e-212
-8.44147e-211
-6.59088e-211
-9.28492e-210
-4.95525e-210
-8.48975e-209
-3.1842e-209
-6.5417e-208
-1.77005e-208
-4.30447e-207
-8.60881e-208
-2.44933e-206
-3.7022e-207
-1.21944e-205
-1.42146e-206
-5.37011e-205
-4.91574e-206
-2.11257e-204
-1.54346e-205
-7.4912e-204
-4.43232e-205
-2.41403e-203
-1.17191e-204
-7.12232e-203
-2.86996e-204
-1.93707e-202
-6.54546e-204
-4.88597e-202
-1.39719e-203
-1.14937e-201
-2.80415e-203
-2.5345e-201
-5.31398e-203
-5.26359e-201
-9.54522e-203
-1.03404e-200
-1.6308e-202
-1.92926e-200
-2.65826e-202
-3.43098e-200
-4.14515e-202
-5.83491e-200
-6.19846e-202
-9.51684e-200
-8.908e-202
-1.49263e-199
-1.23272e-201
-2.25677e-199
-1.64559e-201
-3.29668e-199
-2.12216e-201
-4.66314e-199
-2.64724e-201
-6.39913e-199
-3.19712e-201
-8.535e-199
-3.74045e-201
-1.1082e-198
-4.24035e-201
-1.40278e-198
-4.65642e-201
-1.73339e-198
-4.94907e-201
-2.0932e-198
-5.08296e-201
-2.47274e-198
-5.03093e-201
-2.86018e-198
-4.77711e-201
-3.24215e-198
-4.31661e-201
-3.60465e-198
-3.6399e-201
-3.93163e-198
-2.56748e-201
-4.18478e-198
-4.70936e-202
-4.00541e-198
-1.71582e-210
-1.14245e-198
-9.22081e-207
6.92645e-207
-3.75117e-203
7.63787e-199
-1.75412e-195
3.63291e-198
-5.39188e-195
5.18484e-198
-5.74239e-195
6.29593e-198
-5.58257e-195
7.11883e-198
-5.26699e-195
7.63203e-198
-4.84645e-195
7.82325e-198
-4.35241e-195
7.7138e-198
-3.81939e-195
7.34215e-198
-3.2761e-195
6.76021e-198
-2.74621e-195
6.02797e-198
-2.24842e-195
5.20822e-198
-1.79663e-195
4.35997e-198
-1.39959e-195
3.53483e-198
-1.06161e-195
2.77331e-198
-7.82938e-196
2.10319e-198
-5.60471e-196
1.53971e-198
-3.88756e-196
1.08627e-198
-2.60733e-196
7.37161e-199
-1.68715e-196
4.80125e-199
-1.0507e-196
2.99397e-199
-6.28052e-197
1.78261e-199
-3.59279e-197
1.01031e-199
-1.96057e-197
5.43222e-200
-1.01698e-197
2.76066e-200
-4.99512e-198
1.32063e-200
-2.31338e-198
5.91996e-201
-1.00553e-198
2.47431e-201
-4.0811e-199
9.58947e-202
-1.53796e-199
3.42526e-202
-5.34821e-200
1.12002e-202
-1.7045e-200
3.32785e-203
-4.94112e-201
8.91093e-204
-1.29199e-201
2.13079e-204
-3.01907e-202
4.50419e-205
-6.24011e-203
8.32268e-206
-1.12782e-203
1.3275e-206
-1.75977e-204
1.80261e-207
-2.33705e-205
2.05207e-208
-2.60025e-206
1.92559e-209
-2.3818e-207
1.46215e-210
-1.76188e-208
8.80622e-212
-1.03057e-209
4.11874e-213
-4.65999e-211
1.46419e-214
-1.59098e-212
3.87871e-216
-4.00816e-214
7.55275e-218
-7.31329e-216
1.08299e-219
-9.60231e-218
1.18053e-221
-9.24918e-220
1.05002e-223
-6.90558e-222
8.33087e-226
-4.29428e-224
6.29005e-228
-2.29859e-226
4.65239e-230
-9.85894e-229
3.40611e-232
-1.91185e-231
2.68391e-234
6.65924e-237
2.19868e-236
1.40325e-238
1.79629e-238
1.85779e-240
1.46204e-240
2.10103e-242
1.18424e-242
2.18799e-244
9.53553e-245
2.16154e-246
7.62411e-247
2.05532e-248
6.04611e-249
1.89588e-250
4.75001e-251
1.70416e-252
3.69249e-253
1.49662e-254
2.83667e-255
1.28599e-256
2.15083e-257
1.0819e-258
1.60742e-259
8.91308e-261
1.18244e-261
7.18902e-263
8.5493e-264
5.67402e-265
6.0664e-266
4.37897e-267
4.21793e-268
3.3015e-269
2.86893e-270
2.42901e-271
1.90565e-272
1.74174e-273
1.23388e-274
1.21551e-275
7.77265e-277
8.24292e-278
4.75383e-279
5.4227e-280
2.81672e-281
3.4543e-282
1.61308e-283
2.12638e-284
8.90602e-286
1.26214e-286
4.7277e-288
7.20647e-289
2.40587e-290
3.9478e-291
1.1699e-292
2.06903e-293
5.41687e-295
1.03419e-295
2.37885e-297
4.91298e-298
9.86536e-300
2.20973e-300
3.84465e-302
9.36942e-303
1.40018e-304
3.72703e-305
4.73502e-307
1.38323e-307
1.47588e-309
4.7594e-310
4.20313e-312
1.50708e-312
1.08225e-314
4.3537e-315
2.4873e-317
1.13546e-317
5.0202e-320
2.6393e-320
8.89318e-323
5.43472e-323
0
0
0
0
0
0
0
0
0
0
0
0
0
0
0
0
0
0
0
0
-9.88131e-324
0
-5.2371e-321
4.94066e-324
-3.0196e-318
3.23613e-321
-1.49649e-315
1.58801e-318
-6.51314e-313
6.83353e-316
-2.53011e-310
2.62082e-313
-8.88606e-308
9.07432e-311
-2.85143e-305
2.8663e-308
-8.43337e-303
8.33191e-306
-2.31603e-300
2.24537e-303
-5.94382e-298
5.64559e-301
-1.43344e-295
1.33168e-298
-3.26449e-293
2.96117e-296
-7.05129e-291
6.2341e-294
-1.45023e-288
1.24738e-291
-2.85009e-286
2.38034e-289
-5.36949e-284
4.34568e-287
-9.72619e-282
7.61188e-285
-1.69851e-279
1.28254e-282
-2.86681e-277
2.08366e-280
-4.68767e-275
3.27128e-278
-7.442e-273
4.973e-276
-1.14945e-270
7.33391e-274
-1.73059e-268
1.05101e-271
-2.54448e-266
1.46589e-269
-3.6598e-264
1.99266e-267
-5.158e-262
2.64333e-265
-7.13433e-260
3.42547e-263
-9.69898e-258
4.34055e-261
-1.29785e-255
5.38219e-259
-1.71178e-253
6.53401e-257
-2.22832e-251
7.76763e-255
-2.86664e-249
9.04128e-253
-3.649e-247
1.02973e-250
-4.60157e-245
1.14585e-248
-5.75549e-243
1.24251e-246
-7.14821e-241
1.30708e-244
-8.82546e-239
1.32355e-242
-1.08437e-236
1.27155e-240
-1.32734e-234
1.12521e-238
-1.62035e-232
8.51281e-237
-1.97473e-230
4.06796e-235
-2.3071e-228
-9.79716e-230
-2.37461e-226
-4.3639e-227
-2.12723e-224
-7.70074e-225
-1.63675e-222
-9.64929e-223
-1.06643e-220
-9.42125e-221
-5.79793e-219
-7.34584e-219
-2.59303e-217
-4.5911e-217
-9.42172e-216
-2.29111e-215
-2.7563e-214
-9.07754e-214
-6.46444e-213
-2.84422e-212
-1.21657e-211
-7.0462e-211
-1.84758e-210
-1.38624e-209
-2.28562e-209
-2.18425e-208
-2.33012e-208
-2.78867e-207
-1.98281e-207
-2.92345e-206
-1.4268e-206
-2.55211e-205
-8.79343e-206
-1.88131e-204
-4.69806e-205
-1.18687e-203
-2.20071e-204
-6.48926e-203
-9.13399e-204
-3.1111e-202
-3.39133e-203
-1.32207e-201
-1.13626e-202
-5.02887e-201
-3.46275e-202
-1.72754e-200
-9.66768e-202
-5.40289e-200
-2.48908e-201
-1.54971e-199
-5.945e-201
-4.10404e-199
-1.32438e-200
-1.00958e-198
-2.76537e-200
-2.31974e-198
-5.43646e-200
-5.00371e-198
-1.01041e-199
-1.01788e-197
-1.78211e-199
-1.96116e-197
-2.99286e-199
-3.59282e-197
-4.80029e-199
-6.28056e-197
-7.37283e-199
-1.05099e-196
-1.087e-198
-1.68843e-196
-1.54172e-198
-2.61095e-196
-2.10763e-198
-3.89603e-196
-2.78195e-198
-5.62241e-196
-3.55044e-198
-7.86366e-196
-4.38666e-198
-1.06793e-195
-5.25144e-198
-1.4108e-195
-6.09461e-198
-1.81577e-195
-6.85846e-198
-2.28e-195
-7.48153e-198
-2.79667e-195
-7.90499e-198
-3.35479e-195
-8.0773e-198
-3.93978e-195
-7.95933e-198
-4.53382e-195
-7.52901e-198
-5.11677e-195
-6.78163e-198
-5.6674e-195
-5.70511e-198
-6.16207e-195
-4.02173e-198
-6.54335e-195
-7.46983e-199
-6.25869e-195
-3.30758e-207
-1.80723e-195
-1.76992e-203
8.17149e-204
-4.59341e-200
8.94292e-196
-2.12822e-192
4.31147e-195
-6.53767e-192
6.1296e-195
-6.86409e-192
7.39949e-195
-6.5931e-192
8.33899e-195
-6.18003e-192
8.93334e-195
-5.67278e-192
9.17527e-195
-5.09947e-192
9.0799e-195
-4.4887e-192
8.6851e-195
-3.86793e-192
8.04484e-195
-3.26119e-192
7.22357e-195
-2.68839e-192
6.29046e-195
-2.16497e-192
5.31205e-195
-1.70122e-192
4.34817e-195
-1.30278e-192
3.44723e-195
-9.70857e-193
2.64404e-195
-7.02894e-193
1.95946e-195
-4.93532e-193
1.40071e-195
-3.35382e-193
9.64049e-196
-2.201e-193
6.37459e-196
-1.39155e-193
4.0398e-196
-8.45332e-194
2.44713e-196
-4.91982e-194
1.41269e-196
-2.73456e-194
7.74616e-197
-1.44654e-194
4.01968e-197
-7.25493e-195
1.96613e-197
-3.43547e-195
9.02427e-198
-1.52898e-195
3.86774e-198
-6.3635e-196
1.53954e-198
-2.46301e-196
5.65735e-199
-8.81176e-197
1.90653e-199
-2.89443e-197
5.84925e-200
-8.6643e-198
1.62052e-200
-2.34419e-198
4.01789e-201
-5.68031e-199
8.82645e-202
-1.22027e-199
1.69897e-202
-2.29786e-200
2.83015e-203
-3.74526e-201
4.0242e-204
-5.20972e-202
4.81031e-205
-6.08858e-203
4.75309e-206
-5.87533e-204
3.81126e-207
-4.59216e-205
2.43063e-208
-2.84638e-206
1.20679e-209
-1.36756e-207
4.56324e-211
-4.97232e-209
1.28706e-212
-1.33589e-210
2.66551e-214
-2.59817e-212
4.04456e-216
-3.62142e-214
4.61353e-218
-3.66595e-216
4.22372e-220
-2.83066e-218
3.39764e-222
-1.79185e-220
2.58001e-224
-9.67999e-223
1.9133e-226
-4.18568e-225
1.40277e-228
-8.36823e-228
1.10676e-230
3.38666e-233
9.10229e-233
7.2597e-235
7.46595e-235
9.67963e-237
6.10098e-237
1.1006e-238
4.96167e-239
1.15169e-240
4.01139e-241
1.14299e-242
3.22044e-243
1.09168e-244
2.56444e-245
1.01143e-246
2.02309e-247
9.13128e-249
1.57927e-249
8.05413e-251
1.21837e-251
6.9507e-253
9.27727e-254
5.87305e-255
6.96309e-256
4.85958e-257
5.14426e-258
3.93678e-259
3.73557e-260
3.12085e-261
2.66228e-262
2.41922e-263
1.85922e-264
1.83207e-265
1.2702e-266
1.35393e-267
8.47478e-269
9.75192e-270
5.51192e-271
6.83623e-272
3.48785e-273
4.65696e-274
2.14289e-275
3.07759e-276
1.2755e-277
1.96943e-278
7.33807e-280
1.21792e-280
4.07017e-282
7.26261e-283
2.17065e-284
4.16604e-285
1.10977e-286
2.29287e-287
5.42178e-289
1.20732e-289
2.52219e-291
6.06308e-292
1.11287e-293
2.89393e-294
4.63708e-296
1.30779e-296
1.81572e-298
5.57158e-299
6.64422e-301
2.22689e-301
2.25765e-303
8.30433e-304
7.07072e-306
2.87107e-306
2.02334e-308
9.13504e-309
5.23495e-311
2.65168e-311
1.20893e-313
6.94907e-314
2.45193e-316
1.62313e-316
4.27643e-319
3.32486e-319
6.22523e-322
5.82997e-322
0
0
0
0
0
0
0
0
0
0
0
0
0
0
0
0
-3.95253e-323
0
-3.3888e-320
4.44659e-323
-2.32619e-317
3.18129e-320
-1.33423e-314
1.80926e-317
-6.58052e-312
8.83524e-315
-2.85028e-309
3.78366e-312
-1.10192e-306
1.44415e-309
-3.85157e-304
4.97623e-307
-1.23003e-301
1.56431e-304
-3.62062e-299
4.52551e-302
-9.89604e-297
1.21377e-299
-2.52769e-294
3.03731e-297
-6.06717e-292
7.1305e-295
-1.37524e-289
1.57809e-292
-2.95662e-287
3.30672e-290
-6.05253e-285
6.58546e-288
-1.18397e-282
1.25083e-285
-2.22028e-280
2.27297e-283
-4.00329e-278
3.9629e-281
-6.95909e-276
6.64637e-279
-1.16924e-273
1.07485e-276
-1.90324e-271
1.67978e-274
-3.00794e-269
2.54202e-272
-4.62513e-267
3.7319e-270
-6.93261e-265
5.32406e-268
-1.0148e-262
7.39248e-266
-1.45322e-260
1.00041e-263
-2.03919e-258
1.32117e-261
-2.80833e-256
1.70453e-259
-3.80145e-254
2.15038e-257
-5.06512e-252
2.65471e-255
-6.65227e-250
3.20875e-253
-8.6232e-248
3.798e-251
-1.10471e-245
4.40151e-249
-1.40038e-243
4.991e-247
-1.75869e-241
5.52944e-245
-2.19073e-239
5.96934e-243
-2.70984e-237
6.25116e-241
-3.33224e-235
6.30046e-239
-4.07795e-233
6.02307e-237
-4.97196e-231
5.30008e-235
-6.04575e-229
3.9799e-233
-7.33936e-227
1.86716e-231
-8.51566e-225
-3.88761e-226
-8.67193e-223
-1.6643e-223
-7.6543e-221
-2.88686e-221
-5.77601e-219
-3.55087e-219
-3.67224e-217
-3.39001e-217
-1.93779e-215
-2.57199e-215
-8.3666e-214
-1.55591e-213
-2.92016e-212
-7.47572e-212
-8.17161e-211
-2.83794e-210
-1.82759e-209
-8.48588e-209
-3.2742e-208
-2.00072e-207
-4.73139e-207
-3.74092e-206
-5.57219e-206
-5.60142e-205
-5.41464e-205
-6.80138e-204
-4.39927e-204
-6.79106e-203
-3.02863e-203
-5.65725e-202
-1.7896e-202
-3.98811e-201
-9.18724e-202
-2.41151e-200
-4.14426e-201
-1.26662e-199
-1.65983e-200
-5.84669e-199
-5.9588e-200
-2.39724e-198
-1.93412e-199
-8.81602e-198
-5.72049e-199
-2.9337e-197
-1.55273e-198
-8.9043e-197
-3.89285e-198
-2.48296e-196
-9.06818e-198
-6.40287e-196
-1.97321e-197
-1.53616e-195
-4.03013e-197
-3.44767e-195
-7.76033e-197
-7.27413e-195
-1.41451e-196
-1.44939e-194
-2.44958e-196
-2.7387e-194
-4.04372e-196
-4.92626e-194
-6.3821e-196
-8.46493e-194
-9.65541e-196
-1.3939e-193
-1.40358e-195
-2.20576e-193
-1.96475e-195
-3.3632e-193
-2.65332e-195
-4.95302e-193
-3.46293e-195
-7.06107e-193
-4.37379e-195
-9.7651e-193
-5.35234e-195
-1.31244e-192
-6.35124e-195
-1.71726e-192
-7.31179e-195
-2.19081e-192
-8.16804e-195
-2.72887e-192
-8.85132e-195
-3.32283e-192
-9.29749e-195
-3.9597e-192
-9.45131e-195
-4.62298e-192
-9.27157e-195
-5.29283e-192
-8.73666e-195
-5.94679e-192
-7.84485e-195
-6.56166e-192
-6.58462e-195
-7.11214e-192
-4.63913e-195
-7.53476e-192
-8.72469e-196
-7.20124e-192
-4.69005e-204
-2.105e-192
-2.50055e-200
8.18074e-201
-4.61925e-197
8.26805e-193
-1.99566e-189
4.01127e-192
-6.1453e-189
5.69665e-192
-6.4167e-189
6.86004e-192
-6.12867e-189
7.72281e-192
-5.72731e-189
8.28118e-192
-5.25506e-189
8.52696e-192
-4.73194e-189
8.47078e-192
-4.17899e-189
8.14261e-192
-3.61769e-189
7.58726e-192
-3.06771e-189
6.85961e-192
-2.54595e-189
6.01997e-192
-2.06601e-189
5.12764e-192
-1.6374e-189
4.23721e-192
-1.26579e-189
3.39423e-192
-9.53074e-190
2.63282e-192
-6.97799e-190
1.97499e-192
-4.95931e-190
1.4304e-192
-3.41442e-190
9.98417e-193
-2.27243e-190
6.70198e-193
-1.45847e-190
4.31623e-193
-9.00351e-191
2.65996e-193
-5.33087e-191
1.564e-193
-3.01789e-191
8.74538e-194
-1.62795e-191
4.6338e-194
-8.33666e-192
2.31736e-194
-4.03624e-192
1.08905e-194
-1.83926e-192
4.78624e-195
-7.84946e-193
1.95669e-195
-3.12036e-193
7.39721e-196
-1.14851e-193
2.56923e-196
-3.88821e-194
8.13944e-197
-1.20191e-194
2.33328e-197
-3.36489e-195
5.99881e-198
-8.45548e-196
1.36964e-198
-1.88808e-196
2.74675e-199
-3.70478e-197
4.77941e-200
-6.30862e-198
7.11795e-201
-9.19357e-199
8.93689e-202
-1.12892e-199
9.30236e-203
-1.14807e-200
7.88074e-204
-9.48583e-202
5.32538e-205
-6.2344e-203
2.80908e-206
-3.18527e-204
1.13105e-207
-1.23467e-205
3.40147e-209
-3.54248e-207
7.50736e-211
-7.35845e-209
1.20894e-212
-1.09189e-210
1.44867e-214
-1.1662e-212
1.37079e-216
-9.35442e-215
1.12139e-218
-6.04942e-217
8.57893e-221
-3.30629e-219
6.38634e-223
-1.44489e-221
4.69356e-225
-3e-224
3.70923e-227
1.32803e-229
3.06553e-229
2.91242e-231
2.52688e-231
3.91907e-233
2.0752e-233
4.48688e-235
1.69617e-235
4.72395e-237
1.37828e-237
4.71541e-239
1.11219e-239
4.52907e-241
8.90212e-242
4.21935e-243
7.05949e-244
3.83014e-245
5.53976e-246
3.39676e-247
4.29642e-248
2.94739e-249
3.28897e-250
2.50404e-251
2.48182e-252
2.0833e-253
1.84348e-254
1.697e-255
1.34598e-256
1.35273e-257
9.64532e-259
1.05444e-259
6.77317e-261
8.02985e-262
4.65317e-263
5.96751e-264
3.12202e-265
4.32249e-266
2.04201e-267
3.04733e-268
1.29949e-269
2.08776e-270
8.02963e-272
1.38765e-272
4.80695e-274
8.9313e-275
2.78151e-276
5.55532e-277
1.55179e-278
3.33204e-279
8.32427e-281
1.92256e-281
4.28092e-283
1.06436e-283
2.1038e-285
5.6376e-286
9.84493e-288
2.848e-288
4.36978e-290
1.36748e-290
1.83169e-292
6.21681e-293
7.21536e-295
2.66447e-295
2.65621e-297
1.07138e-297
9.08014e-300
4.01947e-300
2.86106e-302
1.39809e-302
8.23693e-305
4.47544e-305
2.14412e-307
1.30704e-307
4.98179e-310
3.44622e-310
1.01659e-312
8.09883e-313
1.78393e-315
1.66918e-315
2.61614e-318
2.95425e-318
3.07803e-321
4.3626e-321
4.94066e-324
4.94066e-324
0
0
0
0
0
0
0
0
0
0
-1.33398e-322
0
-1.51431e-319
2.51973e-322
-1.28837e-316
2.14889e-319
-8.78924e-314
1.45554e-316
-5.01048e-311
8.22706e-314
-2.45616e-308
3.99303e-311
-1.0574e-305
1.69959e-308
-4.06311e-303
6.44755e-306
-1.41161e-300
2.2082e-303
-4.48091e-298
6.89962e-301
-1.31104e-295
1.98399e-298
-3.5619e-293
5.28916e-296
-9.04362e-291
1.3156e-293
-2.15781e-288
3.0701e-291
-4.8621e-286
6.75417e-289
-1.03913e-283
1.40686e-286
-2.11473e-281
2.78525e-284
-4.11256e-279
5.25911e-282
-7.66733e-277
9.5007e-280
-1.37446e-274
1.64677e-277
-2.37553e-272
2.74585e-275
-3.96844e-270
4.41494e-273
-6.42289e-268
6.86011e-271
-1.00935e-265
1.03221e-268
-1.5433e-263
1.50675e-266
-2.30034e-261
2.13742e-264
-3.34858e-259
2.95111e-262
-4.76883e-257
3.97133e-260
-6.65515e-255
5.21539e-258
-9.11553e-253
6.69141e-256
-1.22726e-250
8.39519e-254
-1.62647e-248
1.03072e-251
-2.12478e-246
1.23901e-249
-2.7398e-244
1.45856e-247
-3.49157e-242
1.68114e-245
-4.40314e-240
1.89589e-243
-5.50134e-238
2.08889e-241
-6.81787e-236
2.24263e-239
-8.39075e-234
2.33533e-237
-1.02662e-231
2.34011e-235
-1.25012e-229
2.22334e-233
-1.51668e-227
1.94288e-231
-1.83523e-225
1.44539e-229
-2.21713e-223
6.62415e-228
-2.55079e-221
-1.26261e-222
-2.56564e-219
-5.15852e-220
-2.22704e-217
-8.77073e-218
-1.64479e-215
-1.0564e-215
-1.01813e-213
-9.83791e-214
-5.20228e-212
-7.24496e-212