/*--------------------------------*- C++ -*----------------------------------*\
| =========                 |                                                 |
| \\      /  F ield         | OpenFOAM: The Open Source CFD Toolbox           |
|  \\    /   O peration     | Version:  2412                                  |
|   \\  /    A nd           | Website:  www.openfoam.com                      |
|    \\/     M anipulation  |                                                 |
\*---------------------------------------------------------------------------*/
FoamFile
{
    version     2.0;
    format      ascii;
    arch        "LSB;label=32;scalar=64";
    class       volScalarField;
    location    "1.06";
    object      p;
}
// * * * * * * * * * * * * * * * * * * * * * * * * * * * * * * * * * * * * * //

dimensions      [1 -1 -2 0 0 0 0];

internalField   nonuniform List<scalar> 
40000
(
0
-0.000104776
-0.000353179
-0.000774773
-0.00137382
-0.00214748
-0.00309299
-0.00420908
-0.0054942
-0.00694706
-0.00856638
-0.0103509
-0.0122995
-0.0144107
-0.0166832
-0.0191155
-0.0217057
-0.0244523
-0.0273531
-0.0304062
-0.0336094
-0.0369603
-0.0404567
-0.0440959
-0.0478754
-0.0517922
-0.0558436
-0.0600265
-0.0643378
-0.0687742
-0.0733323
-0.0780086
-0.0827995
-0.0877011
-0.0927095
-0.0978207
-0.103031
-0.108335
-0.113729
-0.119208
-0.124767
-0.130402
-0.136108
-0.141879
-0.147711
-0.153598
-0.159535
-0.165516
-0.171536
-0.177589
-0.18367
-0.189771
-0.195888
-0.202013
-0.208142
-0.214267
-0.220382
-0.226481
-0.232558
-0.238606
-0.244619
-0.250589
-0.256512
-0.262379
-0.268185
-0.273923
-0.279587
-0.285169
-0.290663
-0.296063
-0.301362
-0.306555
-0.311633
-0.316593
-0.321427
-0.326129
-0.330694
-0.335117
-0.33939
-0.34351
-0.34747
-0.351266
-0.354892
-0.358345
-0.36162
-0.364711
-0.367617
-0.370331
-0.372852
-0.375175
-0.377297
-0.379216
-0.380928
-0.382432
-0.383726
-0.384807
-0.385674
-0.386327
-0.386763
-0.386983
-0.386987
-0.386773
-0.386344
-0.385699
-0.384838
-0.383764
-0.382478
-0.380982
-0.379277
-0.377366
-0.375251
-0.372937
-0.370424
-0.367718
-0.364821
-0.361737
-0.35847
-0.355026
-0.351407
-0.34762
-0.343668
-0.339558
-0.335293
-0.33088
-0.326324
-0.32163
-0.316805
-0.311854
-0.306784
-0.301601
-0.29631
-0.290919
-0.285434
-0.27986
-0.274205
-0.268476
-0.262678
-0.256818
-0.250903
-0.244939
-0.238934
-0.232894
-0.226824
-0.220732
-0.214624
-0.208506
-0.202385
-0.196267
-0.190157
-0.184063
-0.177991
-0.171944
-0.165931
-0.159956
-0.154025
-0.148143
-0.142317
-0.13655
-0.130849
-0.125218
-0.119663
-0.114187
-0.108797
-0.103496
-0.0982886
-0.0931798
-0.0881734
-0.0832735
-0.078484
-0.0738088
-0.0692515
-0.0648155
-0.0605041
-0.0563207
-0.0522684
-0.0483505
-0.0445699
-0.0409291
-0.0374309
-0.0340776
-0.0308719
-0.0278161
-0.0249122
-0.0221625
-0.0195688
-0.0171326
-0.0148556
-0.0127396
-0.0107858
-0.00899581
-0.00737101
-0.00591189
-0.00461946
-0.00349492
-0.00253904
-0.00175248
-0.00113568
-0.000688104
-0.000410073
-0.000293966
-3.92388
-3.92398
-3.92423
-3.92465
-3.92526
-3.92603
-3.92698
-3.92809
-3.92938
-3.93083
-3.93245
-3.93424
-3.93619
-3.9383
-3.94057
-3.94301
-3.9456
-3.94835
-3.95125
-3.9543
-3.95751
-3.96086
-3.96436
-3.968
-3.97178
-3.9757
-3.97975
-3.98394
-3.98825
-3.99269
-3.99725
-4.00193
-4.00672
-4.01163
-4.01664
-4.02175
-4.02697
-4.03227
-4.03767
-4.04315
-4.04872
-4.05435
-4.06006
-4.06584
-4.07167
-4.07756
-4.0835
-4.08949
-4.09551
-4.10157
-4.10766
-4.11376
-4.11988
-4.12601
-4.13214
-4.13827
-4.14439
-4.1505
-4.15658
-4.16263
-4.16865
-4.17462
-4.18055
-4.18642
-4.19223
-4.19798
-4.20364
-4.20923
-4.21473
-4.22013
-4.22544
-4.23063
-4.23572
-4.24068
-4.24552
-4.25022
-4.25479
-4.25922
-4.2635
-4.26762
-4.27158
-4.27538
-4.27901
-4.28247
-4.28575
-4.28884
-4.29175
-4.29447
-4.29699
-4.29931
-4.30144
-4.30336
-4.30507
-4.30658
-4.30787
-4.30896
-4.30982
-4.31048
-4.31091
-4.31113
-4.31114
-4.31092
-4.31049
-4.30985
-4.30899
-4.30791
-4.30662
-4.30513
-4.30342
-4.30151
-4.29939
-4.29707
-4.29456
-4.29185
-4.28895
-4.28586
-4.28259
-4.27915
-4.27552
-4.27173
-4.26778
-4.26366
-4.2594
-4.25498
-4.25042
-4.24572
-4.24089
-4.23594
-4.23086
-4.22567
-4.22038
-4.21498
-4.20949
-4.20392
-4.19826
-4.19252
-4.18672
-4.18086
-4.17494
-4.16897
-4.16296
-4.15691
-4.15084
-4.14474
-4.13863
-4.13251
-4.12638
-4.12026
-4.11415
-4.10805
-4.10197
-4.09592
-4.0899
-4.08393
-4.07799
-4.07211
-4.06628
-4.06051
-4.0548
-4.04917
-4.04361
-4.03813
-4.03274
-4.02743
-4.02222
-4.01711
-4.0121
-4.0072
-4.00241
-3.99773
-3.99317
-3.98873
-3.98442
-3.98023
-3.97618
-3.97226
-3.96847
-3.96483
-3.96133
-3.95798
-3.95477
-3.95171
-3.94881
-3.94606
-3.94346
-3.94102
-3.93875
-3.93663
-3.93467
-3.93288
-3.93126
-3.9298
-3.9285
-3.92738
-3.92642
-3.92564
-3.92502
-3.92457
-3.9243
-3.92418
-7.84757
-7.84768
-7.84794
-7.84837
-7.84898
-7.84976
-7.85071
-7.85182
-7.85311
-7.85457
-7.85619
-7.85798
-7.85993
-7.86204
-7.86432
-7.86675
-7.86935
-7.8721
-7.87501
-7.87806
-7.88127
-7.88463
-7.88813
-7.89178
-7.89556
-7.89948
-7.90354
-7.90773
-7.91205
-7.9165
-7.92106
-7.92575
-7.93055
-7.93546
-7.94047
-7.9456
-7.95081
-7.95613
-7.96153
-7.96702
-7.97259
-7.97824
-7.98396
-7.98974
-7.99558
-8.00148
-8.00743
-8.01343
-8.01946
-8.02553
-8.03162
-8.03774
-8.04387
-8.05001
-8.05615
-8.06229
-8.06842
-8.07453
-8.08062
-8.08669
-8.09272
-8.0987
-8.10464
-8.11052
-8.11634
-8.1221
-8.12777
-8.13337
-8.13888
-8.1443
-8.14961
-8.15482
-8.15991
-8.16488
-8.16973
-8.17445
-8.17902
-8.18346
-8.18775
-8.19188
-8.19585
-8.19966
-8.2033
-8.20676
-8.21004
-8.21314
-8.21606
-8.21878
-8.22131
-8.22364
-8.22577
-8.22769
-8.22941
-8.23092
-8.23222
-8.2333
-8.23417
-8.23483
-8.23527
-8.23549
-8.23549
-8.23528
-8.23484
-8.2342
-8.23333
-8.23226
-8.23097
-8.22947
-8.22775
-8.22584
-8.22372
-8.22139
-8.21887
-8.21616
-8.21325
-8.21016
-8.20688
-8.20343
-8.1998
-8.196
-8.19204
-8.18791
-8.18364
-8.17921
-8.17464
-8.16993
-8.16509
-8.16013
-8.15505
-8.14985
-8.14454
-8.13914
-8.13364
-8.12805
-8.12238
-8.11663
-8.11082
-8.10494
-8.09901
-8.09304
-8.08702
-8.08096
-8.07488
-8.06877
-8.06265
-8.05651
-8.05038
-8.04425
-8.03812
-8.03202
-8.02593
-8.01987
-8.01384
-8.00785
-8.00191
-7.99602
-7.99018
-7.9844
-7.97869
-7.97304
-7.96748
-7.96199
-7.95659
-7.95128
-7.94606
-7.94094
-7.93593
-7.93102
-7.92622
-7.92154
-7.91697
-7.91253
-7.90821
-7.90402
-7.89996
-7.89604
-7.89225
-7.8886
-7.8851
-7.88174
-7.87853
-7.87547
-7.87256
-7.86981
-7.86721
-7.86477
-7.86249
-7.86037
-7.85841
-7.85662
-7.85499
-7.85353
-7.85224
-7.85111
-7.85015
-7.84936
-7.84875
-7.8483
-7.84803
-7.84791
-11.7711
-11.7712
-11.7715
-11.7719
-11.7725
-11.7733
-11.7743
-11.7754
-11.7767
-11.7781
-11.7798
-11.7815
-11.7835
-11.7856
-11.7879
-11.7903
-11.7929
-11.7957
-11.7986
-11.8017
-11.8049
-11.8082
-11.8118
-11.8154
-11.8192
-11.8231
-11.8272
-11.8314
-11.8357
-11.8402
-11.8448
-11.8494
-11.8543
-11.8592
-11.8642
-11.8693
-11.8746
-11.8799
-11.8853
-11.8908
-11.8964
-11.9021
-11.9078
-11.9136
-11.9194
-11.9254
-11.9313
-11.9373
-11.9434
-11.9495
-11.9556
-11.9617
-11.9678
-11.974
-11.9802
-11.9863
-11.9925
-11.9986
-12.0047
-12.0108
-12.0168
-12.0228
-12.0288
-12.0347
-12.0405
-12.0463
-12.052
-12.0576
-12.0631
-12.0686
-12.0739
-12.0791
-12.0842
-12.0892
-12.0941
-12.0988
-12.1034
-12.1079
-12.1122
-12.1163
-12.1203
-12.1241
-12.1278
-12.1312
-12.1345
-12.1376
-12.1406
-12.1433
-12.1458
-12.1482
-12.1503
-12.1522
-12.154
-12.1555
-12.1568
-12.1579
-12.1587
-12.1594
-12.1598
-12.1601
-12.1601
-12.1598
-12.1594
-12.1588
-12.1579
-12.1568
-12.1555
-12.154
-12.1523
-12.1504
-12.1482
-12.1459
-12.1434
-12.1407
-12.1377
-12.1346
-12.1314
-12.1279
-12.1242
-12.1204
-12.1165
-12.1123
-12.108
-12.1036
-12.099
-12.0943
-12.0894
-12.0844
-12.0793
-12.0741
-12.0688
-12.0634
-12.0579
-12.0523
-12.0466
-12.0408
-12.035
-12.0291
-12.0231
-12.0171
-12.0111
-12.005
-11.9989
-11.9928
-11.9867
-11.9805
-11.9744
-11.9682
-11.9621
-11.956
-11.9499
-11.9438
-11.9377
-11.9317
-11.9258
-11.9199
-11.914
-11.9082
-11.9025
-11.8968
-11.8913
-11.8858
-11.8804
-11.875
-11.8698
-11.8647
-11.8596
-11.8547
-11.8499
-11.8452
-11.8407
-11.8362
-11.8319
-11.8277
-11.8236
-11.8197
-11.8159
-11.8122
-11.8087
-11.8054
-11.8021
-11.7991
-11.7962
-11.7934
-11.7908
-11.7884
-11.7861
-11.7839
-11.782
-11.7802
-11.7786
-11.7771
-11.7758
-11.7747
-11.7737
-11.7729
-11.7723
-11.7719
-11.7716
-11.7715
-15.6945
-15.6946
-15.6949
-15.6953
-15.6959
-15.6967
-15.6977
-15.6988
-15.7001
-15.7015
-15.7032
-15.705
-15.7069
-15.709
-15.7113
-15.7138
-15.7164
-15.7191
-15.7221
-15.7251
-15.7284
-15.7317
-15.7352
-15.7389
-15.7427
-15.7466
-15.7507
-15.7549
-15.7593
-15.7637
-15.7683
-15.773
-15.7779
-15.7828
-15.7878
-15.793
-15.7982
-15.8036
-15.809
-15.8145
-15.8201
-15.8258
-15.8315
-15.8374
-15.8432
-15.8492
-15.8552
-15.8612
-15.8673
-15.8734
-15.8795
-15.8856
-15.8918
-15.898
-15.9042
-15.9103
-15.9165
-15.9227
-15.9288
-15.9349
-15.941
-15.947
-15.953
-15.9589
-15.9648
-15.9706
-15.9763
-15.9819
-15.9875
-15.9929
-15.9983
-16.0035
-16.0087
-16.0137
-16.0186
-16.0233
-16.0279
-16.0324
-16.0367
-16.0409
-16.0449
-16.0487
-16.0524
-16.0559
-16.0592
-16.0623
-16.0653
-16.068
-16.0706
-16.0729
-16.0751
-16.077
-16.0787
-16.0802
-16.0816
-16.0826
-16.0835
-16.0842
-16.0846
-16.0849
-16.0849
-16.0846
-16.0842
-16.0836
-16.0827
-16.0816
-16.0803
-16.0788
-16.0771
-16.0751
-16.073
-16.0706
-16.0681
-16.0654
-16.0624
-16.0593
-16.056
-16.0525
-16.0489
-16.045
-16.041
-16.0369
-16.0326
-16.0281
-16.0235
-16.0188
-16.0139
-16.0089
-16.0038
-15.9985
-15.9932
-15.9877
-15.9822
-15.9766
-15.9708
-15.9651
-15.9592
-15.9533
-15.9473
-15.9413
-15.9352
-15.9291
-15.923
-15.9169
-15.9107
-15.9045
-15.8984
-15.8922
-15.886
-15.8799
-15.8738
-15.8677
-15.8616
-15.8556
-15.8496
-15.8437
-15.8378
-15.832
-15.8262
-15.8206
-15.815
-15.8095
-15.804
-15.7987
-15.7934
-15.7883
-15.7833
-15.7783
-15.7735
-15.7688
-15.7642
-15.7598
-15.7554
-15.7512
-15.7471
-15.7432
-15.7394
-15.7357
-15.7322
-15.7288
-15.7256
-15.7225
-15.7196
-15.7168
-15.7142
-15.7118
-15.7095
-15.7074
-15.7054
-15.7036
-15.702
-15.7005
-15.6992
-15.6981
-15.6971
-15.6963
-15.6957
-15.6952
-15.695
-15.6948
-19.6177
-19.6178
-19.6181
-19.6185
-19.6191
-19.6199
-19.6209
-19.622
-19.6233
-19.6248
-19.6264
-19.6282
-19.6302
-19.6323
-19.6346
-19.637
-19.6397
-19.6424
-19.6454
-19.6484
-19.6517
-19.6551
-19.6586
-19.6623
-19.6661
-19.67
-19.6741
-19.6783
-19.6827
-19.6872
-19.6918
-19.6965
-19.7013
-19.7063
-19.7114
-19.7165
-19.7218
-19.7272
-19.7326
-19.7381
-19.7438
-19.7495
-19.7552
-19.7611
-19.767
-19.7729
-19.779
-19.785
-19.7911
-19.7972
-19.8034
-19.8096
-19.8158
-19.822
-19.8282
-19.8344
-19.8406
-19.8468
-19.8529
-19.8591
-19.8652
-19.8712
-19.8772
-19.8832
-19.8891
-19.8949
-19.9007
-19.9063
-19.9119
-19.9174
-19.9228
-19.9281
-19.9332
-19.9383
-19.9432
-19.9479
-19.9526
-19.9571
-19.9614
-19.9656
-19.9697
-19.9735
-19.9772
-19.9807
-19.984
-19.9872
-19.9901
-19.9929
-19.9955
-19.9978
-20
-20.002
-20.0037
-20.0052
-20.0065
-20.0076
-20.0085
-20.0092
-20.0096
-20.0099
-20.0099
-20.0097
-20.0092
-20.0086
-20.0077
-20.0066
-20.0053
-20.0038
-20.002
-20.0001
-19.9979
-19.9956
-19.993
-19.9903
-19.9873
-19.9842
-19.9808
-19.9773
-19.9737
-19.9698
-19.9658
-19.9616
-19.9573
-19.9528
-19.9481
-19.9434
-19.9385
-19.9334
-19.9283
-19.923
-19.9176
-19.9122
-19.9066
-19.9009
-19.8952
-19.8894
-19.8835
-19.8775
-19.8715
-19.8655
-19.8594
-19.8533
-19.8471
-19.8409
-19.8348
-19.8286
-19.8223
-19.8161
-19.81
-19.8038
-19.7976
-19.7915
-19.7854
-19.7794
-19.7734
-19.7674
-19.7615
-19.7557
-19.7499
-19.7442
-19.7386
-19.7331
-19.7276
-19.7223
-19.717
-19.7118
-19.7068
-19.7018
-19.697
-19.6923
-19.6877
-19.6832
-19.6788
-19.6746
-19.6705
-19.6665
-19.6627
-19.6591
-19.6555
-19.6521
-19.6489
-19.6458
-19.6429
-19.6401
-19.6375
-19.635
-19.6327
-19.6306
-19.6286
-19.6268
-19.6252
-19.6237
-19.6224
-19.6213
-19.6203
-19.6195
-19.6189
-19.6185
-19.6182
-19.6181
-23.5407
-23.5408
-23.5411
-23.5415
-23.5422
-23.543
-23.5439
-23.5451
-23.5464
-23.5478
-23.5495
-23.5513
-23.5533
-23.5554
-23.5577
-23.5602
-23.5628
-23.5656
-23.5685
-23.5716
-23.5748
-23.5782
-23.5818
-23.5855
-23.5893
-23.5933
-23.5974
-23.6016
-23.606
-23.6105
-23.6151
-23.6199
-23.6247
-23.6297
-23.6348
-23.64
-23.6453
-23.6506
-23.6561
-23.6617
-23.6673
-23.6731
-23.6789
-23.6847
-23.6907
-23.6967
-23.7027
-23.7088
-23.7149
-23.7211
-23.7273
-23.7335
-23.7397
-23.746
-23.7522
-23.7584
-23.7647
-23.7709
-23.7771
-23.7833
-23.7894
-23.7955
-23.8015
-23.8075
-23.8135
-23.8193
-23.8251
-23.8308
-23.8364
-23.842
-23.8474
-23.8527
-23.8579
-23.863
-23.8679
-23.8727
-23.8774
-23.8819
-23.8863
-23.8905
-23.8946
-23.8985
-23.9022
-23.9057
-23.9091
-23.9123
-23.9152
-23.918
-23.9206
-23.923
-23.9252
-23.9271
-23.9289
-23.9304
-23.9318
-23.9329
-23.9338
-23.9344
-23.9349
-23.9351
-23.9351
-23.9349
-23.9344
-23.9338
-23.9329
-23.9318
-23.9305
-23.9289
-23.9272
-23.9252
-23.9231
-23.9207
-23.9181
-23.9153
-23.9124
-23.9092
-23.9059
-23.9023
-23.8986
-23.8947
-23.8907
-23.8865
-23.8821
-23.8776
-23.8729
-23.8681
-23.8632
-23.8581
-23.8529
-23.8476
-23.8422
-23.8367
-23.8311
-23.8254
-23.8196
-23.8138
-23.8078
-23.8019
-23.7958
-23.7897
-23.7836
-23.7774
-23.7712
-23.765
-23.7588
-23.7526
-23.7463
-23.7401
-23.7339
-23.7277
-23.7215
-23.7153
-23.7092
-23.7031
-23.6971
-23.6911
-23.6852
-23.6793
-23.6735
-23.6678
-23.6621
-23.6566
-23.6511
-23.6457
-23.6404
-23.6353
-23.6302
-23.6252
-23.6203
-23.6156
-23.611
-23.6065
-23.6021
-23.5979
-23.5937
-23.5898
-23.5859
-23.5823
-23.5787
-23.5753
-23.5721
-23.569
-23.566
-23.5632
-23.5606
-23.5582
-23.5558
-23.5537
-23.5517
-23.5499
-23.5483
-23.5468
-23.5455
-23.5443
-23.5434
-23.5426
-23.542
-23.5415
-23.5412
-23.5411
-27.4636
-27.4637
-27.464
-27.4644
-27.465
-27.4658
-27.4668
-27.4679
-27.4693
-27.4707
-27.4724
-27.4742
-27.4762
-27.4783
-27.4806
-27.4831
-27.4858
-27.4885
-27.4915
-27.4946
-27.4979
-27.5013
-27.5048
-27.5085
-27.5124
-27.5164
-27.5205
-27.5248
-27.5292
-27.5337
-27.5383
-27.5431
-27.548
-27.553
-27.5581
-27.5633
-27.5686
-27.574
-27.5796
-27.5852
-27.5908
-27.5966
-27.6024
-27.6083
-27.6143
-27.6203
-27.6264
-27.6325
-27.6387
-27.6449
-27.6511
-27.6574
-27.6636
-27.6699
-27.6762
-27.6825
-27.6888
-27.695
-27.7013
-27.7075
-27.7137
-27.7198
-27.7259
-27.732
-27.7379
-27.7438
-27.7497
-27.7554
-27.7611
-27.7666
-27.7721
-27.7775
-27.7827
-27.7878
-27.7928
-27.7976
-27.8024
-27.8069
-27.8113
-27.8156
-27.8197
-27.8236
-27.8274
-27.8309
-27.8343
-27.8375
-27.8405
-27.8433
-27.8459
-27.8483
-27.8505
-27.8525
-27.8543
-27.8558
-27.8572
-27.8583
-27.8592
-27.8599
-27.8603
-27.8606
-27.8606
-27.8603
-27.8599
-27.8592
-27.8583
-27.8572
-27.8559
-27.8543
-27.8526
-27.8506
-27.8484
-27.846
-27.8434
-27.8406
-27.8376
-27.8344
-27.8311
-27.8275
-27.8238
-27.8198
-27.8158
-27.8115
-27.8071
-27.8025
-27.7978
-27.793
-27.788
-27.7829
-27.7777
-27.7723
-27.7669
-27.7613
-27.7557
-27.7499
-27.7441
-27.7382
-27.7322
-27.7262
-27.7201
-27.714
-27.7078
-27.7016
-27.6954
-27.6891
-27.6829
-27.6766
-27.6703
-27.664
-27.6578
-27.6515
-27.6453
-27.6391
-27.6329
-27.6268
-27.6208
-27.6147
-27.6088
-27.6029
-27.597
-27.5913
-27.5856
-27.58
-27.5745
-27.5691
-27.5638
-27.5586
-27.5535
-27.5485
-27.5436
-27.5388
-27.5342
-27.5296
-27.5252
-27.521
-27.5169
-27.5129
-27.509
-27.5053
-27.5017
-27.4983
-27.4951
-27.492
-27.489
-27.4862
-27.4836
-27.4811
-27.4788
-27.4766
-27.4746
-27.4728
-27.4712
-27.4697
-27.4684
-27.4672
-27.4663
-27.4655
-27.4648
-27.4644
-27.4641
-27.464
-31.3863
-31.3864
-31.3867
-31.3871
-31.3877
-31.3885
-31.3895
-31.3907
-31.392
-31.3935
-31.3951
-31.3969
-31.3989
-31.4011
-31.4034
-31.4059
-31.4086
-31.4114
-31.4143
-31.4175
-31.4207
-31.4242
-31.4277
-31.4315
-31.4353
-31.4394
-31.4435
-31.4478
-31.4522
-31.4568
-31.4614
-31.4662
-31.4711
-31.4762
-31.4813
-31.4866
-31.4919
-31.4974
-31.5029
-31.5085
-31.5143
-31.5201
-31.5259
-31.5319
-31.5379
-31.5439
-31.5501
-31.5562
-31.5624
-31.5687
-31.575
-31.5813
-31.5876
-31.5939
-31.6002
-31.6066
-31.6129
-31.6192
-31.6255
-31.6318
-31.638
-31.6442
-31.6503
-31.6564
-31.6624
-31.6684
-31.6743
-31.6801
-31.6858
-31.6914
-31.6969
-31.7023
-31.7076
-31.7128
-31.7178
-31.7227
-31.7275
-31.7321
-31.7365
-31.7408
-31.745
-31.7489
-31.7527
-31.7563
-31.7597
-31.763
-31.766
-31.7688
-31.7715
-31.7739
-31.7761
-31.7781
-31.7799
-31.7815
-31.7828
-31.784
-31.7849
-31.7856
-31.786
-31.7862
-31.7862
-31.786
-31.7856
-31.7849
-31.784
-31.7829
-31.7815
-31.78
-31.7782
-31.7762
-31.774
-31.7716
-31.7689
-31.7661
-31.7631
-31.7599
-31.7564
-31.7528
-31.7491
-31.7451
-31.741
-31.7367
-31.7322
-31.7276
-31.7229
-31.718
-31.713
-31.7078
-31.7025
-31.6972
-31.6917
-31.686
-31.6803
-31.6746
-31.6687
-31.6627
-31.6567
-31.6506
-31.6445
-31.6383
-31.6321
-31.6258
-31.6196
-31.6133
-31.6069
-31.6006
-31.5943
-31.588
-31.5816
-31.5754
-31.5691
-31.5628
-31.5566
-31.5505
-31.5444
-31.5383
-31.5323
-31.5264
-31.5205
-31.5147
-31.509
-31.5034
-31.4978
-31.4924
-31.487
-31.4818
-31.4766
-31.4716
-31.4667
-31.4619
-31.4572
-31.4527
-31.4483
-31.444
-31.4398
-31.4358
-31.4319
-31.4282
-31.4246
-31.4212
-31.4179
-31.4148
-31.4118
-31.409
-31.4064
-31.4039
-31.4016
-31.3994
-31.3974
-31.3956
-31.3939
-31.3924
-31.3911
-31.3899
-31.389
-31.3882
-31.3875
-31.3871
-31.3868
-31.3867
-35.3088
-35.3089
-35.3092
-35.3096
-35.3103
-35.3111
-35.3121
-35.3132
-35.3145
-35.316
-35.3177
-35.3195
-35.3215
-35.3237
-35.326
-35.3285
-35.3312
-35.334
-35.337
-35.3402
-35.3435
-35.3469
-35.3505
-35.3543
-35.3581
-35.3622
-35.3664
-35.3707
-35.3751
-35.3797
-35.3844
-35.3892
-35.3942
-35.3992
-35.4044
-35.4097
-35.4151
-35.4206
-35.4262
-35.4318
-35.4376
-35.4434
-35.4493
-35.4553
-35.4614
-35.4675
-35.4737
-35.4799
-35.4861
-35.4924
-35.4988
-35.5051
-35.5115
-35.5179
-35.5243
-35.5307
-35.537
-35.5434
-35.5498
-35.5561
-35.5624
-35.5686
-35.5748
-35.581
-35.587
-35.5931
-35.599
-35.6048
-35.6106
-35.6163
-35.6219
-35.6273
-35.6327
-35.6379
-35.643
-35.6479
-35.6527
-35.6574
-35.6619
-35.6662
-35.6704
-35.6744
-35.6782
-35.6819
-35.6853
-35.6886
-35.6917
-35.6945
-35.6972
-35.6997
-35.7019
-35.7039
-35.7058
-35.7073
-35.7087
-35.7099
-35.7108
-35.7115
-35.7119
-35.7122
-35.7122
-35.7119
-35.7115
-35.7108
-35.7099
-35.7088
-35.7074
-35.7058
-35.704
-35.702
-35.6997
-35.6973
-35.6946
-35.6918
-35.6887
-35.6855
-35.682
-35.6784
-35.6746
-35.6706
-35.6664
-35.662
-35.6576
-35.6529
-35.6481
-35.6432
-35.6381
-35.6329
-35.6275
-35.6221
-35.6165
-35.6109
-35.6051
-35.5993
-35.5933
-35.5873
-35.5812
-35.5751
-35.5689
-35.5627
-35.5564
-35.5501
-35.5437
-35.5374
-35.531
-35.5246
-35.5182
-35.5119
-35.5055
-35.4992
-35.4928
-35.4865
-35.4803
-35.4741
-35.4679
-35.4618
-35.4558
-35.4498
-35.4439
-35.438
-35.4323
-35.4266
-35.421
-35.4156
-35.4102
-35.4049
-35.3997
-35.3946
-35.3897
-35.3849
-35.3802
-35.3756
-35.3711
-35.3668
-35.3627
-35.3586
-35.3547
-35.351
-35.3474
-35.3439
-35.3406
-35.3375
-35.3345
-35.3317
-35.329
-35.3265
-35.3242
-35.322
-35.32
-35.3181
-35.3165
-35.315
-35.3136
-35.3125
-35.3115
-35.3107
-35.3101
-35.3096
-35.3093
-35.3092
-39.2311
-39.2312
-39.2315
-39.232
-39.2326
-39.2334
-39.2344
-39.2356
-39.2369
-39.2384
-39.2401
-39.2419
-39.244
-39.2461
-39.2485
-39.251
-39.2537
-39.2565
-39.2595
-39.2627
-39.266
-39.2695
-39.2731
-39.2769
-39.2808
-39.2849
-39.2891
-39.2934
-39.2979
-39.3025
-39.3073
-39.3121
-39.3171
-39.3222
-39.3274
-39.3327
-39.3382
-39.3437
-39.3493
-39.355
-39.3608
-39.3667
-39.3727
-39.3787
-39.3848
-39.391
-39.3972
-39.4035
-39.4098
-39.4162
-39.4225
-39.429
-39.4354
-39.4418
-39.4483
-39.4547
-39.4612
-39.4676
-39.474
-39.4804
-39.4868
-39.4931
-39.4993
-39.5055
-39.5117
-39.5178
-39.5238
-39.5297
-39.5355
-39.5413
-39.5469
-39.5524
-39.5578
-39.5631
-39.5682
-39.5733
-39.5781
-39.5828
-39.5874
-39.5918
-39.596
-39.6001
-39.6039
-39.6076
-39.6111
-39.6144
-39.6176
-39.6205
-39.6232
-39.6256
-39.6279
-39.63
-39.6318
-39.6334
-39.6348
-39.636
-39.6369
-39.6376
-39.6381
-39.6383
-39.6383
-39.6381
-39.6376
-39.6369
-39.636
-39.6349
-39.6335
-39.6319
-39.63
-39.628
-39.6257
-39.6232
-39.6206
-39.6177
-39.6146
-39.6113
-39.6078
-39.6041
-39.6002
-39.5962
-39.592
-39.5876
-39.583
-39.5783
-39.5734
-39.5684
-39.5633
-39.558
-39.5526
-39.5471
-39.5415
-39.5358
-39.53
-39.524
-39.5181
-39.512
-39.5058
-39.4996
-39.4934
-39.4871
-39.4807
-39.4744
-39.468
-39.4615
-39.4551
-39.4487
-39.4422
-39.4358
-39.4293
-39.4229
-39.4166
-39.4102
-39.4039
-39.3976
-39.3914
-39.3853
-39.3792
-39.3731
-39.3672
-39.3613
-39.3555
-39.3498
-39.3442
-39.3386
-39.3332
-39.3279
-39.3227
-39.3176
-39.3126
-39.3077
-39.303
-39.2984
-39.2939
-39.2896
-39.2854
-39.2813
-39.2774
-39.2736
-39.27
-39.2665
-39.2632
-39.26
-39.257
-39.2542
-39.2515
-39.249
-39.2466
-39.2444
-39.2424
-39.2405
-39.2389
-39.2374
-39.236
-39.2349
-39.2339
-39.2331
-39.2324
-39.232
-39.2317
-39.2316
-43.1533
-43.1534
-43.1537
-43.1542
-43.1548
-43.1556
-43.1566
-43.1578
-43.1591
-43.1606
-43.1623
-43.1642
-43.1662
-43.1684
-43.1708
-43.1733
-43.176
-43.1789
-43.1819
-43.1851
-43.1884
-43.1919
-43.1956
-43.1994
-43.2033
-43.2074
-43.2117
-43.216
-43.2206
-43.2252
-43.23
-43.2349
-43.2399
-43.245
-43.2503
-43.2557
-43.2611
-43.2667
-43.2724
-43.2782
-43.284
-43.29
-43.296
-43.3021
-43.3082
-43.3145
-43.3207
-43.3271
-43.3334
-43.3399
-43.3463
-43.3528
-43.3593
-43.3658
-43.3723
-43.3788
-43.3853
-43.3918
-43.3983
-43.4048
-43.4112
-43.4176
-43.4239
-43.4302
-43.4364
-43.4426
-43.4487
-43.4546
-43.4605
-43.4664
-43.4721
-43.4776
-43.4831
-43.4885
-43.4937
-43.4987
-43.5037
-43.5085
-43.5131
-43.5175
-43.5218
-43.5259
-43.5298
-43.5336
-43.5371
-43.5405
-43.5436
-43.5466
-43.5493
-43.5518
-43.5542
-43.5562
-43.5581
-43.5597
-43.5611
-43.5623
-43.5633
-43.564
-43.5644
-43.5647
-43.5647
-43.5645
-43.564
-43.5633
-43.5623
-43.5612
-43.5598
-43.5582
-43.5563
-43.5542
-43.5519
-43.5494
-43.5467
-43.5437
-43.5406
-43.5373
-43.5337
-43.53
-43.5261
-43.522
-43.5177
-43.5132
-43.5086
-43.5039
-43.4989
-43.4939
-43.4887
-43.4833
-43.4779
-43.4723
-43.4666
-43.4608
-43.4549
-43.4489
-43.4429
-43.4367
-43.4305
-43.4242
-43.4179
-43.4115
-43.4051
-43.3987
-43.3922
-43.3857
-43.3792
-43.3727
-43.3662
-43.3597
-43.3532
-43.3467
-43.3403
-43.3339
-43.3275
-43.3212
-43.3149
-43.3087
-43.3025
-43.2964
-43.2904
-43.2845
-43.2786
-43.2729
-43.2672
-43.2616
-43.2561
-43.2508
-43.2455
-43.2404
-43.2354
-43.2305
-43.2257
-43.221
-43.2165
-43.2121
-43.2079
-43.2038
-43.1999
-43.1961
-43.1924
-43.1889
-43.1856
-43.1824
-43.1794
-43.1765
-43.1738
-43.1713
-43.1689
-43.1667
-43.1646
-43.1628
-43.1611
-43.1596
-43.1582
-43.1571
-43.1561
-43.1553
-43.1546
-43.1541
-43.1539
-43.1537
-47.0753
-47.0754
-47.0757
-47.0762
-47.0768
-47.0776
-47.0786
-47.0798
-47.0812
-47.0827
-47.0844
-47.0863
-47.0883
-47.0905
-47.0929
-47.0955
-47.0982
-47.1011
-47.1041
-47.1073
-47.1107
-47.1142
-47.1179
-47.1217
-47.1257
-47.1298
-47.1341
-47.1385
-47.1431
-47.1478
-47.1526
-47.1575
-47.1626
-47.1678
-47.1731
-47.1785
-47.184
-47.1896
-47.1954
-47.2012
-47.2071
-47.2131
-47.2192
-47.2253
-47.2316
-47.2378
-47.2442
-47.2506
-47.257
-47.2635
-47.27
-47.2766
-47.2832
-47.2897
-47.2963
-47.3029
-47.3095
-47.3161
-47.3227
-47.3292
-47.3357
-47.3421
-47.3486
-47.3549
-47.3612
-47.3675
-47.3736
-47.3797
-47.3857
-47.3915
-47.3973
-47.403
-47.4085
-47.414
-47.4192
-47.4244
-47.4294
-47.4342
-47.4389
-47.4434
-47.4478
-47.4519
-47.4559
-47.4597
-47.4633
-47.4667
-47.4699
-47.4729
-47.4757
-47.4783
-47.4806
-47.4827
-47.4846
-47.4863
-47.4877
-47.4889
-47.4899
-47.4906
-47.4911
-47.4913
-47.4913
-47.4911
-47.4906
-47.4899
-47.4889
-47.4877
-47.4863
-47.4847
-47.4828
-47.4807
-47.4783
-47.4758
-47.473
-47.47
-47.4668
-47.4635
-47.4599
-47.4561
-47.4521
-47.4479
-47.4436
-47.4391
-47.4344
-47.4296
-47.4246
-47.4194
-47.4142
-47.4087
-47.4032
-47.3976
-47.3918
-47.3859
-47.3799
-47.3739
-47.3677
-47.3615
-47.3552
-47.3489
-47.3425
-47.336
-47.3295
-47.323
-47.3164
-47.3099
-47.3033
-47.2967
-47.2901
-47.2835
-47.277
-47.2704
-47.2639
-47.2574
-47.251
-47.2446
-47.2383
-47.232
-47.2258
-47.2196
-47.2136
-47.2076
-47.2017
-47.1958
-47.1901
-47.1845
-47.179
-47.1735
-47.1682
-47.1631
-47.158
-47.1531
-47.1482
-47.1436
-47.139
-47.1346
-47.1303
-47.1262
-47.1222
-47.1184
-47.1147
-47.1112
-47.1078
-47.1046
-47.1015
-47.0987
-47.0959
-47.0934
-47.091
-47.0888
-47.0867
-47.0849
-47.0831
-47.0816
-47.0803
-47.0791
-47.0781
-47.0773
-47.0766
-47.0762
-47.0759
-47.0757
-50.9971
-50.9972
-50.9975
-50.998
-50.9987
-50.9995
-51.0005
-51.0017
-51.003
-51.0046
-51.0063
-51.0082
-51.0102
-51.0125
-51.0149
-51.0175
-51.0202
-51.0231
-51.0262
-51.0294
-51.0328
-51.0364
-51.0401
-51.0439
-51.048
-51.0521
-51.0564
-51.0609
-51.0655
-51.0702
-51.075
-51.08
-51.0852
-51.0904
-51.0957
-51.1012
-51.1068
-51.1125
-51.1183
-51.1241
-51.1301
-51.1362
-51.1423
-51.1485
-51.1548
-51.1612
-51.1676
-51.1741
-51.1806
-51.1871
-51.1937
-51.2004
-51.207
-51.2137
-51.2203
-51.227
-51.2337
-51.2404
-51.247
-51.2536
-51.2602
-51.2668
-51.2733
-51.2797
-51.2861
-51.2924
-51.2987
-51.3048
-51.3109
-51.3168
-51.3227
-51.3285
-51.3341
-51.3396
-51.3449
-51.3502
-51.3552
-51.3602
-51.3649
-51.3695
-51.3739
-51.3782
-51.3822
-51.3861
-51.3897
-51.3932
-51.3964
-51.3995
-51.4023
-51.4049
-51.4073
-51.4094
-51.4114
-51.413
-51.4145
-51.4157
-51.4167
-51.4174
-51.4179
-51.4182
-51.4182
-51.4179
-51.4174
-51.4167
-51.4157
-51.4145
-51.4131
-51.4114
-51.4095
-51.4074
-51.405
-51.4024
-51.3996
-51.3965
-51.3933
-51.3899
-51.3862
-51.3823
-51.3783
-51.3741
-51.3697
-51.3651
-51.3603
-51.3554
-51.3504
-51.3451
-51.3398
-51.3343
-51.3287
-51.3229
-51.3171
-51.3111
-51.3051
-51.2989
-51.2927
-51.2864
-51.28
-51.2736
-51.2671
-51.2605
-51.2539
-51.2473
-51.2407
-51.234
-51.2274
-51.2207
-51.214
-51.2074
-51.2008
-51.1941
-51.1875
-51.181
-51.1745
-51.168
-51.1616
-51.1553
-51.149
-51.1428
-51.1366
-51.1306
-51.1246
-51.1187
-51.1129
-51.1073
-51.1017
-51.0962
-51.0909
-51.0856
-51.0805
-51.0755
-51.0707
-51.0659
-51.0614
-51.0569
-51.0526
-51.0484
-51.0444
-51.0405
-51.0368
-51.0333
-51.0299
-51.0266
-51.0236
-51.0207
-51.0179
-51.0153
-51.0129
-51.0107
-51.0086
-51.0067
-51.005
-51.0035
-51.0021
-51.0009
-50.9999
-50.9991
-50.9984
-50.998
-50.9977
-50.9976
-54.9188
-54.9189
-54.9192
-54.9197
-54.9203
-54.9211
-54.9222
-54.9234
-54.9247
-54.9263
-54.928
-54.9299
-54.932
-54.9342
-54.9367
-54.9393
-54.942
-54.945
-54.9481
-54.9513
-54.9548
-54.9583
-54.9621
-54.966
-54.97
-54.9742
-54.9786
-54.9831
-54.9877
-54.9925
-54.9974
-55.0024
-55.0076
-55.0129
-55.0183
-55.0238
-55.0295
-55.0352
-55.0411
-55.047
-55.053
-55.0592
-55.0654
-55.0717
-55.078
-55.0845
-55.091
-55.0975
-55.1041
-55.1107
-55.1174
-55.1241
-55.1309
-55.1376
-55.1444
-55.1511
-55.1579
-55.1646
-55.1714
-55.1781
-55.1848
-55.1914
-55.198
-55.2045
-55.211
-55.2174
-55.2238
-55.23
-55.2362
-55.2422
-55.2482
-55.254
-55.2598
-55.2653
-55.2708
-55.2761
-55.2813
-55.2863
-55.2911
-55.2958
-55.3003
-55.3046
-55.3087
-55.3126
-55.3163
-55.3198
-55.3232
-55.3262
-55.3291
-55.3318
-55.3342
-55.3364
-55.3383
-55.3401
-55.3415
-55.3428
-55.3438
-55.3445
-55.345
-55.3453
-55.3453
-55.345
-55.3445
-55.3438
-55.3428
-55.3416
-55.3401
-55.3384
-55.3364
-55.3343
-55.3319
-55.3292
-55.3263
-55.3233
-55.32
-55.3165
-55.3127
-55.3088
-55.3047
-55.3004
-55.2959
-55.2913
-55.2864
-55.2814
-55.2763
-55.271
-55.2655
-55.26
-55.2543
-55.2484
-55.2425
-55.2364
-55.2303
-55.224
-55.2177
-55.2113
-55.2048
-55.1983
-55.1917
-55.1851
-55.1784
-55.1717
-55.165
-55.1582
-55.1515
-55.1447
-55.138
-55.1312
-55.1245
-55.1178
-55.1111
-55.1045
-55.0979
-55.0914
-55.0849
-55.0785
-55.0721
-55.0658
-55.0596
-55.0535
-55.0475
-55.0415
-55.0357
-55.0299
-55.0243
-55.0188
-55.0134
-55.0081
-55.0029
-54.9979
-54.993
-54.9882
-54.9836
-54.9791
-54.9747
-54.9705
-54.9665
-54.9626
-54.9588
-54.9552
-54.9518
-54.9485
-54.9454
-54.9425
-54.9397
-54.9371
-54.9347
-54.9325
-54.9304
-54.9285
-54.9267
-54.9252
-54.9238
-54.9226
-54.9216
-54.9208
-54.9201
-54.9196
-54.9193
-54.9192
-58.8402
-58.8403
-58.8406
-58.8411
-58.8418
-58.8426
-58.8437
-58.8449
-58.8462
-58.8478
-58.8496
-58.8515
-58.8536
-58.8558
-58.8583
-58.8609
-58.8637
-58.8667
-58.8698
-58.8731
-58.8765
-58.8802
-58.8839
-58.8879
-58.892
-58.8962
-58.9006
-58.9051
-58.9098
-58.9146
-58.9196
-58.9247
-58.9299
-58.9353
-58.9407
-58.9463
-58.952
-58.9578
-58.9637
-58.9698
-58.9759
-58.9821
-58.9884
-58.9947
-59.0012
-59.0077
-59.0142
-59.0209
-59.0276
-59.0343
-59.0411
-59.0479
-59.0547
-59.0615
-59.0684
-59.0752
-59.0821
-59.0889
-59.0958
-59.1026
-59.1094
-59.1161
-59.1228
-59.1295
-59.136
-59.1425
-59.149
-59.1553
-59.1616
-59.1678
-59.1738
-59.1797
-59.1856
-59.1912
-59.1968
-59.2022
-59.2074
-59.2125
-59.2174
-59.2222
-59.2268
-59.2312
-59.2353
-59.2393
-59.2431
-59.2467
-59.2501
-59.2532
-59.2562
-59.2589
-59.2613
-59.2636
-59.2656
-59.2673
-59.2688
-59.2701
-59.2711
-59.2718
-59.2723
-59.2726
-59.2726
-59.2724
-59.2719
-59.2711
-59.2701
-59.2689
-59.2674
-59.2656
-59.2636
-59.2614
-59.2589
-59.2563
-59.2533
-59.2502
-59.2468
-59.2433
-59.2395
-59.2355
-59.2313
-59.2269
-59.2224
-59.2176
-59.2127
-59.2076
-59.2024
-59.197
-59.1914
-59.1858
-59.18
-59.174
-59.168
-59.1618
-59.1556
-59.1492
-59.1428
-59.1363
-59.1297
-59.1231
-59.1164
-59.1097
-59.1029
-59.0961
-59.0893
-59.0824
-59.0756
-59.0687
-59.0619
-59.0551
-59.0482
-59.0414
-59.0347
-59.028
-59.0213
-59.0147
-59.0081
-59.0016
-58.9952
-58.9888
-58.9825
-58.9763
-58.9702
-58.9642
-58.9583
-58.9525
-58.9468
-58.9412
-58.9357
-58.9304
-58.9252
-58.9201
-58.9151
-58.9103
-58.9056
-58.9011
-58.8967
-58.8925
-58.8884
-58.8844
-58.8806
-58.877
-58.8736
-58.8703
-58.8671
-58.8642
-58.8614
-58.8588
-58.8563
-58.854
-58.8519
-58.85
-58.8483
-58.8467
-58.8453
-58.8441
-58.8431
-58.8422
-58.8416
-58.8411
-58.8408
-58.8407
-62.7615
-62.7616
-62.7619
-62.7624
-62.7631
-62.7639
-62.765
-62.7662
-62.7676
-62.7692
-62.7709
-62.7729
-62.775
-62.7773
-62.7797
-62.7824
-62.7852
-62.7882
-62.7914
-62.7947
-62.7982
-62.8018
-62.8056
-62.8096
-62.8138
-62.818
-62.8225
-62.8271
-62.8318
-62.8367
-62.8417
-62.8468
-62.8521
-62.8575
-62.8631