/*--------------------------------*- C++ -*----------------------------------*\
| =========                 |                                                 |
| \\      /  F ield         | OpenFOAM: The Open Source CFD Toolbox           |
|  \\    /   O peration     | Version:  2412                                  |
|   \\  /    A nd           | Website:  www.openfoam.com                      |
|    \\/     M anipulation  |                                                 |
\*---------------------------------------------------------------------------*/
FoamFile
{
    version     2.0;
    format      ascii;
    arch        "LSB;label=32;scalar=64";
    class       volScalarField;
    location    "1.06";
    object      p_rgh;
}
// * * * * * * * * * * * * * * * * * * * * * * * * * * * * * * * * * * * * * //

dimensions      [1 -1 -2 0 0 0 0];

internalField   nonuniform List<scalar> 
40000
(
1.962
1.9619
1.96165
1.96123
1.96063
1.95985
1.95891
1.95779
1.95651
1.95505
1.95343
1.95165
1.9497
1.94759
1.94532
1.94288
1.94029
1.93755
1.93465
1.93159
1.92839
1.92504
1.92154
1.9179
1.91412
1.91021
1.90616
1.90197
1.89766
1.89323
1.88867
1.88399
1.8792
1.8743
1.86929
1.86418
1.85897
1.85367
1.84827
1.84279
1.83723
1.8316
1.82589
1.82012
1.81429
1.8084
1.80247
1.79648
1.79046
1.78441
1.77833
1.77223
1.76611
1.75999
1.75386
1.74773
1.74162
1.73552
1.72944
1.72339
1.71738
1.71141
1.70549
1.69962
1.69381
1.68808
1.68241
1.67683
1.67134
1.66594
1.66064
1.65545
1.65037
1.64541
1.64057
1.63587
1.63131
1.62688
1.62261
1.61849
1.61453
1.61073
1.60711
1.60365
1.60038
1.59729
1.59438
1.59167
1.58915
1.58683
1.5847
1.58278
1.58107
1.57957
1.57827
1.57719
1.57633
1.57567
1.57524
1.57502
1.57501
1.57523
1.57566
1.5763
1.57716
1.57824
1.57952
1.58102
1.58272
1.58463
1.58675
1.58906
1.59158
1.59428
1.59718
1.60026
1.60353
1.60697
1.61059
1.61438
1.61833
1.62244
1.62671
1.63112
1.63568
1.64037
1.64519
1.65015
1.65522
1.6604
1.66569
1.67108
1.67657
1.68214
1.68779
1.69352
1.69932
1.70518
1.7111
1.71706
1.72307
1.72911
1.73518
1.74127
1.74738
1.75349
1.75962
1.76573
1.77184
1.77794
1.78401
1.79006
1.79607
1.80204
1.80798
1.81386
1.81968
1.82545
1.83115
1.83678
1.84234
1.84781
1.8532
1.8585
1.86371
1.86882
1.87383
1.87873
1.88352
1.88819
1.89275
1.89718
1.9015
1.90568
1.90973
1.91365
1.91743
1.92107
1.92457
1.92792
1.93113
1.93418
1.93709
1.93984
1.94243
1.94487
1.94714
1.94926
1.95121
1.953
1.95463
1.95609
1.95738
1.95851
1.95946
1.96025
1.96086
1.96131
1.96159
1.96171
1.96212
1.96202
1.96177
1.96135
1.96074
1.95997
1.95902
1.95791
1.95662
1.95517
1.95355
1.95176
1.94981
1.9477
1.94543
1.94299
1.9404
1.93765
1.93475
1.9317
1.92849
1.92514
1.92164
1.918
1.91422
1.9103
1.90625
1.90206
1.89775
1.89331
1.88875
1.88407
1.87928
1.87437
1.86936
1.86425
1.85903
1.85373
1.84833
1.84285
1.83728
1.83165
1.82594
1.82016
1.81433
1.80844
1.8025
1.79651
1.79049
1.78443
1.77834
1.77224
1.76612
1.75999
1.75386
1.74773
1.74161
1.7355
1.72942
1.72337
1.71735
1.71138
1.70545
1.69958
1.69377
1.68802
1.68236
1.67677
1.67127
1.66587
1.66056
1.65537
1.65028
1.64532
1.64048
1.63578
1.63121
1.62678
1.6225
1.61838
1.61442
1.61062
1.60699
1.60353
1.60025
1.59716
1.59425
1.59153
1.58901
1.58669
1.58456
1.58264
1.58093
1.57942
1.57813
1.57704
1.57618
1.57552
1.57509
1.57487
1.57486
1.57508
1.57551
1.57615
1.57701
1.57809
1.57938
1.58087
1.58258
1.58449
1.58661
1.58893
1.59144
1.59415
1.59705
1.60014
1.60341
1.60685
1.61048
1.61427
1.61822
1.62234
1.6266
1.63102
1.63558
1.64028
1.64511
1.65006
1.65514
1.66033
1.66562
1.67102
1.67651
1.68208
1.68774
1.69348
1.69928
1.70514
1.71106
1.71703
1.72304
1.72909
1.73516
1.74126
1.74737
1.75349
1.75962
1.76574
1.77185
1.77795
1.78403
1.79008
1.7961
1.80207
1.80801
1.81389
1.81972
1.82549
1.8312
1.83683
1.84239
1.84787
1.85326
1.85857
1.86378
1.86889
1.8739
1.8788
1.88359
1.88827
1.89283
1.89727
1.90158
1.90577
1.90982
1.91374
1.91753
1.92117
1.92467
1.92802
1.93123
1.93429
1.93719
1.93994
1.94254
1.94498
1.94725
1.94937
1.95133
1.95312
1.95474
1.9562
1.9575
1.95862
1.95958
1.96036
1.96098
1.96143
1.9617
1.96182
1.96243
1.96232
1.96206
1.96163
1.96102
1.96024
1.95929
1.95818
1.95689
1.95543
1.95381
1.95202
1.95007
1.94796
1.94568
1.94325
1.94065
1.9379
1.93499
1.93194
1.92873
1.92537
1.92187
1.91822
1.91444
1.91052
1.90646
1.90227
1.89795
1.8935
1.88894
1.88425
1.87945
1.87454
1.86953
1.8644
1.85919
1.85387
1.84847
1.84298
1.83741
1.83176
1.82604
1.82026
1.81442
1.80852
1.80257
1.79657
1.79054
1.78447
1.77838
1.77226
1.76613
1.75999
1.75385
1.74771
1.74158
1.73547
1.72938
1.72331
1.71728
1.7113
1.70536
1.69948
1.69366
1.6879
1.68223
1.67663
1.67112
1.6657
1.66039
1.65518
1.65009
1.64512
1.64027
1.63555
1.63098
1.62654
1.62225
1.61812
1.61415
1.61034
1.6067
1.60324
1.59996
1.59686
1.59394
1.59122
1.58869
1.58636
1.58423
1.58231
1.58059
1.57908
1.57778
1.5767
1.57583
1.57517
1.57473
1.57451
1.57451
1.57472
1.57516
1.5758
1.57667
1.57774
1.57903
1.58053
1.58225
1.58416
1.58628
1.58861
1.59113
1.59384
1.59675
1.59984
1.60312
1.60657
1.6102
1.614
1.61796
1.62209
1.62636
1.63079
1.63536
1.64007
1.64491
1.64987
1.65495
1.66015
1.66546
1.67086
1.67636
1.68195
1.68762
1.69337
1.69918
1.70506
1.71099
1.71696
1.72298
1.72904
1.73512
1.74123
1.74735
1.75349
1.75962
1.76575
1.77188
1.77798
1.78407
1.79013
1.79616
1.80215
1.80809
1.81398
1.81982
1.8256
1.83131
1.83696
1.84252
1.84801
1.85341
1.85872
1.86394
1.86906
1.87407
1.87898
1.88378
1.88846
1.89303
1.89747
1.90179
1.90598
1.91004
1.91396
1.91775
1.9214
1.9249
1.92826
1.93147
1.93453
1.93744
1.94019
1.94279
1.94523
1.94751
1.94963
1.95159
1.95338
1.95501
1.95647
1.95776
1.95889
1.95985
1.96064
1.96125
1.9617
1.96197
1.96209
1.9629
1.96279
1.96252
1.96208
1.96147
1.96069
1.95974
1.95862
1.95732
1.95587
1.95424
1.95245
1.9505
1.94838
1.9461
1.94366
1.94106
1.9383
1.93539
1.93233
1.92911
1.92575
1.92224
1.91859
1.9148
1.91087
1.9068
1.9026
1.89827
1.89382
1.88925
1.88455
1.87974
1.87482
1.86979
1.86466
1.85943
1.85411
1.84869
1.84319
1.8376
1.83195
1.82622
1.82042
1.81456
1.80865
1.80268
1.79667
1.79063
1.78454
1.77843
1.7723
1.76616
1.76
1.75384
1.74769
1.74154
1.73541
1.7293
1.72322
1.71717
1.71117
1.70522
1.69932
1.69348
1.68771
1.68201
1.6764
1.67087
1.66544
1.66011
1.65489
1.64978
1.64479
1.63992
1.63519
1.6306
1.62615
1.62185
1.6177
1.61372
1.6099
1.60625
1.60277
1.59947
1.59636
1.59344
1.59071
1.58817
1.58583
1.58369
1.58176
1.58004
1.57852
1.57722
1.57613
1.57526
1.5746
1.57416
1.57394
1.57394
1.57415
1.57459
1.57523
1.5761
1.57718
1.57848
1.57998
1.5817
1.58362
1.58575
1.58808
1.59061
1.59334
1.59625
1.59936
1.60265
1.60611
1.60975
1.61357
1.61754
1.62168
1.62597
1.63041
1.635
1.63972
1.64458
1.64956
1.65466
1.65987
1.66519
1.67062
1.67613
1.68174
1.68743
1.69319
1.69902
1.70491
1.71086
1.71685
1.72289
1.72896
1.73507
1.74119
1.74733
1.75348
1.75963
1.76578
1.77192
1.77804
1.78414
1.79022
1.79626
1.80226
1.80822
1.81413
1.81998
1.82577
1.8315
1.83715
1.84273
1.84823
1.85364
1.85897
1.86419
1.86932
1.87435
1.87927
1.88408
1.88877
1.89335
1.8978
1.90213
1.90632
1.91039
1.91432
1.91812
1.92177
1.92528
1.92865
1.93186
1.93493
1.93784
1.9406
1.9432
1.94565
1.94793
1.95005
1.95201
1.95381
1.95544
1.9569
1.9582
1.95933
1.96029
1.96108
1.9617
1.96214
1.96242
1.96254
1.96353
1.96342
1.96314
1.9627
1.96209
1.9613
1.96035
1.95922
1.95793
1.95647
1.95484
1.95304
1.95108
1.94896
1.94667
1.94423
1.94162
1.93886
1.93594
1.93287
1.92965
1.92627
1.92276
1.9191
1.91529
1.91135
1.90727
1.90306
1.89873
1.89426
1.88967
1.88497
1.88014
1.87521
1.87017
1.86502
1.85977
1.85443
1.849
1.84348
1.83788
1.8322
1.82645
1.82064
1.81476
1.80883
1.80284
1.79681
1.79075
1.78464
1.77851
1.77236
1.76619
1.76001
1.75383
1.74765
1.74148
1.73533
1.7292
1.72309
1.71702
1.711
1.70502
1.69909
1.69323
1.68744
1.68172
1.67608
1.67053
1.66507
1.65972
1.65447
1.64934
1.64433
1.63944
1.63469
1.63008
1.62561
1.62129
1.61712
1.61312
1.60928
1.60561
1.60212
1.59881
1.59568
1.59274
1.59
1.58745
1.5851
1.58295
1.58101
1.57928
1.57775
1.57644
1.57535
1.57447
1.57381
1.57337
1.57315
1.57314
1.57336
1.5738
1.57445
1.57532
1.5764
1.57771
1.57922
1.58095
1.58288
1.58502
1.58736
1.5899
1.59264
1.59557
1.59869
1.60199
1.60548
1.60914
1.61297
1.61696
1.62112
1.62543
1.62989
1.6345
1.63924
1.64412
1.64912
1.65424
1.65948
1.66483
1.67027
1.67582
1.68144
1.68716
1.69294
1.6988
1.70471
1.71068
1.7167
1.72276
1.72886
1.73498
1.74113
1.74729
1.75346
1.75964
1.76581
1.77197
1.77812
1.78424
1.79034
1.7964
1.80242
1.8084
1.81433
1.8202
1.82601
1.83175
1.83743
1.84302
1.84854
1.85397
1.85931
1.86455
1.8697
1.87474
1.87967
1.88449
1.8892
1.89378
1.89825
1.90259
1.9068
1.91088
1.91482
1.91862
1.92229
1.92581
1.92918
1.9324
1.93548
1.9384
1.94116
1.94377
1.94622
1.94851
1.95064
1.9526
1.9544
1.95604
1.95751
1.95881
1.95994
1.9609
1.96169
1.96231
1.96276
1.96303
1.96315
1.96433
1.96421
1.96394
1.96349
1.96287
1.96209
1.96113
1.96
1.9587
1.95723
1.9556
1.9538
1.95183
1.9497
1.94741
1.94495
1.94234
1.93957
1.93664
1.93356
1.93033
1.92694
1.92341
1.91974
1.91593
1.91197
1.90788
1.90366
1.8993
1.89482
1.89022
1.88549
1.88065
1.8757
1.87064
1.86547
1.86021
1.85485
1.84939
1.84385
1.83823
1.83253
1.82676
1.82092
1.81502
1.80906
1.80305
1.79699
1.7909
1.78477
1.77861
1.77243
1.76623
1.76003
1.75382
1.74761
1.74141
1.73522
1.72906
1.72293
1.71683
1.71077
1.70476
1.69881
1.69291
1.68709
1.68134
1.67567
1.67009
1.66461
1.65922
1.65395
1.64879
1.64375
1.63883
1.63405
1.62941
1.62491
1.62057
1.61638
1.61235
1.60849
1.6048
1.60129
1.59795
1.59481
1.59185
1.58909
1.58652
1.58416
1.582
1.58004
1.5783
1.57677
1.57545
1.57435
1.57347
1.5728
1.57236
1.57213
1.57213
1.57235
1.57279
1.57344
1.57432
1.57541
1.57672
1.57825
1.57998
1.58193
1.58408
1.58644
1.58899
1.59175
1.5947
1.59784
1.60116
1.60467
1.60835
1.6122
1.61622
1.6204
1.62474
1.62923
1.63386
1.63863
1.64353
1.64857
1.65372
1.65899
1.66436
1.66984
1.67541
1.68107
1.68681
1.69263
1.69851
1.70446
1.71046
1.71651
1.7226
1.72873
1.73488
1.74106
1.74725
1.75345
1.75965
1.76585
1.77204
1.77822
1.78437
1.79049
1.79658
1.80263
1.80863
1.81458
1.82048
1.82631
1.83208
1.83778
1.8434
1.84893
1.85438
1.85974
1.86501
1.87017
1.87523
1.88018
1.88502
1.88974
1.89435
1.89883
1.90318
1.90741
1.9115
1.91545
1.91927
1.92294
1.92647
1.92986
1.93309
1.93618
1.93911
1.94188
1.9445
1.94696
1.94925
1.95139
1.95336
1.95516
1.9568
1.95827
1.95958
1.96071
1.96168
1.96247
1.96309
1.96354
1.96382
1.96394
1.9653
1.96518
1.9649
1.96445
1.96383
1.96304
1.96208
1.96094
1.95964
1.95817
1.95653
1.95472
1.95274
1.9506
1.9483
1.94584
1.94321
1.94043
1.93749
1.9344
1.93116
1.92776
1.92422
1.92053
1.9167
1.91273
1.90862
1.90438
1.90001
1.89551
1.89088
1.88614
1.88128
1.8763
1.87122
1.86603
1.86074
1.85535
1.84987
1.84431
1.83866
1.83293
1.82713
1.82126
1.81533
1.80934
1.8033
1.79721
1.79109
1.78492
1.77873
1.77252
1.76629
1.76005
1.7538
1.74756
1.74132
1.7351
1.7289
1.72273
1.71659
1.7105
1.70445
1.69846
1.69253
1.68667
1.68088
1.67517
1.66956
1.66404
1.65862
1.65331
1.64811
1.64303
1.63809
1.63327
1.6286
1.62407
1.61969
1.61547
1.61142
1.60753
1.60381
1.60027
1.59691
1.59374
1.59076
1.58798
1.5854
1.58301
1.58084
1.57887
1.57711
1.57557
1.57424
1.57313
1.57224
1.57157
1.57112
1.5709
1.57089
1.57111
1.57155
1.57222
1.5731
1.5742
1.57552
1.57706
1.57881
1.58077
1.58294
1.58531
1.58789
1.59066
1.59363
1.5968
1.60014
1.60368
1.60738
1.61127
1.61531
1.61953
1.62389
1.62841
1.63308
1.63789
1.64282
1.64789
1.65308
1.65838
1.66379
1.66931
1.67491
1.68061
1.68639
1.69224
1.69816
1.70415
1.71019
1.71627
1.7224
1.72856
1.73476
1.74097
1.7472
1.75343
1.75967
1.76591
1.77213
1.77834
1.78452
1.79068
1.7968
1.80288
1.80891
1.8149
1.82082
1.82669
1.83248
1.83821
1.84385
1.84941
1.85489
1.86027
1.86556
1.87075
1.87583
1.8808
1.88566
1.89041
1.89503
1.89953
1.9039
1.90814
1.91225
1.91622
1.92006
1.92375
1.92729
1.93069
1.93393
1.93703
1.93997
1.94276
1.94538
1.94785
1.95015
1.9523
1.95428
1.95609
1.95773
1.95921
1.96052
1.96166
1.96262
1.96342
1.96404
1.9645
1.96477
1.96489
1.96643
1.96631
1.96604
1.96558
1.96496
1.96416
1.9632
1.96206
1.96075
1.95927
1.95762
1.9558
1.95382
1.95167
1.94936
1.94688
1.94425
1.94145
1.9385
1.93539
1.93213
1.92872
1.92516
1.92146
1.91761
1.91362
1.90949
1.90523
1.90084
1.89631
1.89167
1.8869
1.88201
1.87701
1.8719
1.86668
1.86137
1.85595
1.85044
1.84484
1.83916
1.8334
1.82757
1.82167
1.8157
1.80967
1.8036
1.79747
1.79131
1.78511
1.77888
1.77262
1.76635
1.76007
1.75378
1.74749
1.74122
1.73495
1.72871
1.7225
1.71632
1.71018
1.70409
1.69805
1.69208
1.68617
1.68034
1.67459
1.66893
1.66336
1.6579
1.65255
1.64731
1.6422
1.63721
1.63235
1.62764
1.62308
1.61866
1.61441
1.61031
1.60639
1.60264
1.59907
1.59569
1.59249
1.58948
1.58667
1.58407
1.58166
1.57947
1.57748
1.57571
1.57415
1.57281
1.57169
1.5708
1.57012
1.56967
1.56944
1.56944
1.56966
1.5701
1.57077
1.57166
1.57277
1.5741
1.57565
1.57742
1.5794
1.58158
1.58398
1.58658
1.58938
1.59238
1.59557
1.59895
1.60251
1.60625
1.61016
1.61425
1.61849
1.6229
1.62746
1.63216
1.63701
1.64198
1.64709
1.65232
1.65767
1.66312
1.66868
1.67433
1.68007
1.68589
1.69179
1.69775
1.70378
1.70987
1.716
1.72217
1.72837
1.73461
1.74086
1.74713
1.75341
1.75969
1.76597
1.77223
1.77848
1.7847
1.7909
1.79706
1.80318
1.80925
1.81527
1.82123
1.82713
1.83295
1.83871
1.84439
1.84998
1.85549
1.8609
1.86622
1.87143
1.87654
1.88154
1.88642
1.89119
1.89584
1.90036
1.90475
1.90902
1.91314
1.91713
1.92098
1.92469
1.92825
1.93167
1.93493
1.93804
1.94099
1.94379
1.94643
1.9489
1.95122
1.95337
1.95536
1.95718
1.95883
1.96031
1.96163
1.96277
1.96374
1.96454
1.96517
1.96562
1.9659
1.96602
1.96774
1.96762
1.96734
1.96689
1.96626
1.96546
1.96448
1.96334
1.96202
1.96053
1.95888
1.95705
1.95506
1.9529
1.95058
1.94809
1.94544
1.94263
1.93966
1.93654
1.93326
1.92983
1.92625
1.92253
1.91866
1.91465
1.9105
1.90621
1.90179
1.89725
1.89257
1.88778
1.88286
1.87783
1.87269
1.86744
1.86209
1.85664
1.8511
1.84546
1.83975
1.83395
1.82808
1.82213
1.81613
1.81006
1.80394
1.79777
1.79156
1.78532
1.77904
1.77274
1.76642
1.76009
1.75376
1.74743
1.7411
1.73479
1.72849
1.72223
1.716
1.70981
1.70367
1.69758
1.69155
1.6856
1.67971
1.67391
1.6682
1.66259
1.65708
1.65168
1.64639
1.64123
1.63619
1.63129
1.62654
1.62193
1.61747
1.61317
1.60904
1.60508
1.60129
1.59769
1.59427
1.59104
1.588
1.58517
1.58253
1.5801
1.57789
1.57588
1.57409
1.57252
1.57116
1.57003
1.56912
1.56844
1.56798
1.56775
1.56775
1.56797
1.56842
1.5691
1.57
1.57112
1.57247
1.57403
1.57582
1.57781
1.58003
1.58245
1.58507
1.5879
1.59093
1.59415
1.59756
1.60116
1.60494
1.60889
1.61301
1.6173
1.62175
1.62635
1.6311
1.63599
1.64102
1.64617
1.65145
1.65684
1.66235
1.66795
1.67366
1.67945
1.68532
1.69127
1.69728
1.70336
1.7095
1.71568
1.7219
1.72816
1.73444
1.74075
1.74707
1.75339
1.75972
1.76604
1.77235
1.77865
1.78492
1.79116
1.79736
1.80352
1.80963
1.81569
1.8217
1.82763
1.8335
1.83929
1.84501
1.85064
1.85618
1.86163
1.86697
1.87222
1.87736
1.88239
1.8873
1.8921
1.89677
1.90132
1.90574
1.91002
1.91417
1.91819
1.92206
1.92578
1.92936
1.93279
1.93607
1.9392
1.94217
1.94498
1.94763
1.95012
1.95245
1.95461
1.95661
1.95843
1.96009
1.96159
1.96291
1.96405
1.96503
1.96583
1.96646
1.96692
1.9672
1.96732
1.96922
1.9691
1.96882
1.96836
1.96773
1.96692
1.96594
1.96479
1.96347
1.96197
1.96031
1.95847
1.95646
1.95429
1.95196
1.94945
1.94679
1.94396
1.94098
1.93784
1.93454
1.93109
1.92749
1.92374
1.91985
1.91581
1.91164
1.90733
1.90288
1.8983
1.8936
1.88877
1.88382
1.87876
1.87359
1.8683
1.86291
1.85743
1.85184
1.84617
1.84041
1.83457
1.82865
1.82267
1.81661
1.8105
1.80433
1.79812
1.79186
1.78556
1.77923
1.77288
1.76651
1.76013
1.75374
1.74735
1.74097
1.7346
1.72825
1.72193
1.71564
1.70939
1.70319
1.69705
1.69096
1.68495
1.67901
1.67315
1.66738
1.66171
1.65615
1.65069
1.64535
1.64013
1.63504
1.63009
1.62528
1.62062
1.61612
1.61177
1.6076
1.60359
1.59976
1.59612
1.59266
1.58939
1.58632
1.58345
1.58079
1.57833
1.57609
1.57406
1.57225
1.57066
1.56929
1.56814
1.56723
1.56654
1.56607
1.56584
1.56584
1.56606
1.56652
1.5672
1.56811
1.56925
1.57061
1.57219
1.574
1.57602
1.57825
1.5807
1.58336
1.58622
1.58928
1.59254
1.59599
1.59963
1.60345
1.60745
1.61162
1.61595
1.62045
1.6251
1.6299
1.63484
1.63992
1.64513
1.65046
1.65591
1.66147
1.66713
1.67289
1.67874
1.68467
1.69068
1.69675
1.70289
1.70908
1.71532
1.7216
1.72791
1.73425
1.74061
1.74699
1.75337
1.75975
1.76613
1.77249
1.77884
1.78516
1.79145
1.7977
1.80391
1.81007
1.81618
1.82223
1.82821
1.83412
1.83996
1.84571
1.85138
1.85696
1.86245
1.86783
1.87312
1.87829
1.88335
1.8883
1.89312
1.89783
1.9024
1.90685
1.91116
1.91534
1.91938
1.92327
1.92702
1.93062
1.93407
1.93737
1.94051
1.9435
1.94633
1.94899
1.9515
1.95384
1.95601
1.95802
1.95986
1.96153
1.96303
1.96435
1.96551
1.96649
1.9673
1.96793
1.96839
1.96867
1.96879
1.97087
1.97075
1.97047
1.97001
1.96937
1.96856
1.96757
1.96642
1.96508
1.96358
1.9619
1.96005
1.95804
1.95585
1.9535
1.95098
1.9483
1.94546
1.94245
1.93929
1.93597
1.9325
1.92888
1.9251
1.92118
1.91712
1.91292
1.90857
1.9041
1.89949
1.89475
1.88989
1.8849
1.8798
1.87459
1.86926
1.86383
1.8583
1.85268
1.84696
1.84115
1.83527
1.8293
1.82326
1.81716
1.811
1.80477
1.7985
1.79219
1.78584
1.77945
1.77304
1.76661
1.76017
1.75372
1.74726
1.74082
1.73439
1.72797
1.72159
1.71524
1.70892
1.70266
1.69645
1.6903
1.68422
1.67822
1.6723
1.66647
1.66073
1.6551
1.64958
1.64418
1.6389
1.63375
1.62874
1.62388
1.61916
1.61461
1.61021
1.60598
1.60193
1.59805
1.59436
1.59086
1.58755
1.58444
1.58154
1.57884
1.57635
1.57408
1.57202
1.57019
1.56858
1.56719
1.56603
1.5651
1.5644
1.56393
1.5637
1.56369
1.56392
1.56438
1.56507
1.566
1.56715
1.56853
1.57013
1.57196
1.57401
1.57627
1.57875
1.58144
1.58434
1.58744
1.59074
1.59423
1.59792
1.60178
1.60583
1.61005
1.61444
1.61899
1.6237
1.62855
1.63355
1.63869
1.64396
1.64936
1.65487
1.66049
1.66622
1.67204
1.67795
1.68395
1.69002
1.69616
1.70236
1.70861
1.71492
1.72126
1.72764
1.73404
1.74047
1.7469
1.75335
1.75979
1.76623
1.77265
1.77906
1.78543
1.79178
1.79809
1.80435
1.81057
1.81673
1.82283
1.82886
1.83482
1.8407
1.8465
1.85222
1.85784
1.86337
1.8688
1.87412
1.87933
1.88443
1.88941
1.89427
1.89901
1.90362
1.9081
1.91244
1.91665
1.92071
1.92463
1.9284
1.93203
1.9355
1.93882
1.94199
1.94499
1.94784
1.95052
1.95304
1.95539
1.95758
1.9596
1.96145
1.96313
1.96464
1.96597
1.96714
1.96812
1.96894
1.96957
1.97003
1.97032
1.97044
1.9727
1.97258
1.97229
1.97183
1.97119
1.97037
1.96938
1.96821
1.96687
1.96535
1.96367
1.96181
1.95978
1.95758
1.95521
1.95267
1.94997
1.94711
1.94408
1.9409
1.93756
1.93406
1.93041
1.92661
1.92266
1.91857
1.91433
1.90996
1.90544
1.9008
1.89602
1.89112
1.8861
1.88096
1.8757
1.87033
1.86486
1.85928
1.8536
1.84784
1.84198
1.83604
1.83002
1.82393
1.81777
1.81154
1.80527
1.79893
1.79256
1.78614
1.77969
1.77322
1.76672
1.76021
1.75369
1.74717
1.74066
1.73416
1.72767
1.72122
1.71479
1.70841
1.70207
1.69579
1.68957
1.68342
1.67735
1.67135
1.66545
1.65965
1.65395
1.64836
1.64289
1.63754
1.63233
1.62725
1.62233
1.61755
1.61293
1.60847
1.60419
1.60008
1.59615
1.59241
1.58886
1.58551
1.58236
1.57941
1.57667
1.57415
1.57185
1.56976
1.5679
1.56627
1.56486
1.56369
1.56274
1.56203
1.56156
1.56132
1.56131
1.56155
1.56201
1.56272
1.56365
1.56482
1.56622
1.56784
1.5697
1.57177
1.57407
1.57659
1.57931
1.58225
1.5854
1.58874
1.59228
1.59602
1.59994
1.60404
1.60831
1.61276
1.61737
1.62214
1.62706
1.63213
1.63733
1.64267
1.64813
1.65371
1.6594
1.6652
1.67109
1.67708
1.68315
1.68929
1.6955
1.70177
1.7081
1.71448
1.72089
1.72734
1.73381
1.74031
1.74681
1.75333
1.75984
1.76634
1.77283
1.7793
1.78574
1.79215
1.79852
1.80484
1.81112
1.81734
1.82349
1.82958
1.83559
1.84153
1.84738
1.85314
1.85882
1.86439
1.86986
1.87523
1.88048
1.88563
1.89065
1.89555
1.90032
1.90497
1.90948
1.91385
1.91809
1.92218
1.92613
1.92994
1.93359
1.93709
1.94043
1.94361
1.94664
1.94951
1.95221
1.95475
1.95712
1.95932
1.96135
1.96322
1.96491
1.96642
1.96777
1.96894
1.96993
1.97075
1.97139
1.97185
1.97214
1.97226
1.9747
1.97458
1.97429
1.97382
1.97318
1.97236
1.97136
1.97018
1.96883
1.9673
1.9656
1.96373
1.96168
1.95947
1.95708
1.95453
1.95181
1.94892
1.94587
1.94266
1.9393
1.93577
1.93209
1.92826
1.92428
1.92016
1.91588
1.91147
1.90692
1.90224
1.89742
1.89248
1.88741
1.88223
1.87692
1.87151
1.86598
1.86035
1.85462
1.8488
1.84289
1.83689
1.83081
1.82466
1.81844
1.81215
1.80581
1.79941
1.79297
1.78648
1.77996
1.77342
1.76685
1.76026
1.75367
1.74708
1.74049
1.73391
1.72735
1.72081
1.71431
1.70785
1.70144
1.69507
1.68877
1.68254
1.67639
1.67032
1.66434
1.65846
1.65268
1.64701
1.64147
1.63605
1.63076
1.62562
1.62062
1.61577
1.61109
1.60657
1.60222
1.59805
1.59406
1.59027
1.58667
1.58326
1.58006
1.57707
1.5743
1.57173
1.56939
1.56728
1.56539
1.56373
1.5623
1.56111
1.56015
1.55943
1.55895
1.5587
1.5587
1.55893
1.55941
1.56012
1.56107
1.56226
1.56368
1.56533
1.56721
1.56932
1.57165
1.57421
1.57698
1.57996
1.58315
1.58655
1.59014
1.59393
1.59791
1.60207
1.60641
1.61092
1.6156
1.62043
1.62543
1.63056
1.63584
1.64125
1.64679
1.65244
1.65821
1.66409
1.67006
1.67612
1.68227
1.68849
1.69478
1.70113
1.70754
1.71399
1.72049
1.72701
1.73357
1.74014
1.74672
1.75331
1.75989
1.76647
1.77303
1.77957
1.78608
1.79256
1.799
1.80539
1.81172
1.818
1.82422
1.83037
1.83644
1.84244
1.84834
1.85416
1.85989
1.86551
1.87104
1.87645
1.88175
1.88694
1.89201
1.89695
1.90176
1.90645
1.911
1.91541
1.91968
1.92381
1.92779
1.93162
1.9353
1.93882
1.94219
1.9454
1.94845
1.95134
1.95406
1.95662
1.95901
1.96122
1.96327
1.96515
1.96685
1.96838
1.96973
1.97091
1.97191
1.97274
1.97338
1.97385
1.97414
1.97426
1.97688
1.97676
1.97647
1.976
1.97535
1.97452
1.97351
1.97233
1.97096
1.96943
1.96771
1.96582
1.96376
1.96153
1.95912
1.95655
1.9538
1.9509
1.94782
1.94459
1.94119
1.93764
1.93393
1.93006
1.92605
1.92189
1.91758
1.91313
1.90854
1.90381
1.89895
1.89396
1.88885
1.88361
1.87826
1.87279
1.86721
1.86152
1.85574
1.84985
1.84388
1.83782
1.83168
1.82546
1.81917
1.81282
1.8064
1.79993
1.79341
1.78686
1.78026
1.77364
1.76699
1.76033
1.75365
1.74698
1.7403
1.73364
1.727
1.72038
1.71379
1.70724
1.70074
1.69429
1.68791
1.68159
1.67535
1.66919
1.66313
1.65716
1.6513
1.64555
1.63992
1.63442
1.62906
1.62383
1.61876
1.61384
1.60908
1.60449
1.60007
1.59584
1.59179
1.58793
1.58427
1.58081
1.57756
1.57452
1.5717
1.5691
1.56672
1.56456
1.56264
1.56096
1.5595
1.55829
1.55732
1.55658
1.55609
1.55585
1.55584
1.55608
1.55656
1.55729
1.55826
1.55946
1.56091
1.56259
1.5645
1.56664
1.56901
1.57161
1.57442
1.57746
1.5807
1.58415
1.5878
1.59165
1.59569
1.59992
1.60433
1.60891
1.61366
1.61857
1.62364
1.62886
1.63421
1.63971
1.64532
1.65106
1.65692
1.66288
1.66893
1.67508
1.68132
1.68762
1.694
1.70044
1.70693
1.71347
1.72005
1.72666
1.7333
1.73995
1.74662
1.75329
1.75995
1.76661
1.77325
1.77987
1.78645
1.79301
1.79952
1.80598
1.81239
1.81874
1.82502
1.83124
1.83737
1.84343
1.8494
1.85528
1.86106
1.86674
1.87232
1.87778
1.88314
1.88837
1.89349
1.89847
1.90333
1.90806
1.91265
1.9171
1.92141
1.92557
1.92959
1.93345
1.93716
1.94072
1.94411
1.94735
1.95043
1.95334
1.95608
1.95866
1.96106
1.9633
1.96536
1.96725
1.96897
1.97051
1.97187
1.97306
1.97407
1.9749
1.97555
1.97602
1.97631
1.97643
1.97924
1.97911
1.97882
1.97835
1.97769
1.97686
1.97584
1.97465
1.97327
1.97172
1.96999
1.96809
1.96601
1.96376
1.96133
1.95873
1.95597
1.95303
1.94993
1.94667
1.94324
1.93966
1.93591
1.93202
1.92796
1.92376
1.91941
1.91492
1.91029
1.90551
1.90061
1.89557
1.8904
1.88511
1.8797
1.87418
1.86854
1.86279
1.85695
1.851
1.84496
1.83883
1.83262
1.82633
1.81997
1.81354
1.80705
1.8005
1.7939
1.78727
1.78059
1.77388
1.76715
1.7604
1.75364
1.74687
1.74011
1.73336
1.72662
1.71991
1.71323
1.70659
1.69999
1.69345
1.68697
1.68056
1.67423
1.66798
1.66182
1.65576
1.6498
1.64397
1.63825
1.63266
1.62721
1.6219
1.61674
1.61174
1.6069
1.60223
1.59774
1.59344
1.58932
1.58539
1.58167
1.57815
1.57484
1.57175
1.56888
1.56623
1.56381
1.56162
1.55966
1.55795
1.55647
1.55523
1.55424
1.5535
1.553
1.55275
1.55274
1.55299
1.55348
1.55421
1.5552
1.55643
1.5579
1.55961
1.56155
1.56373
1.56615
1.56879
1.57165
1.57474
1.57804
1.58155
1.58527
1.58918
1.59329
1.59759
1.60207
1.60673
1.61156
1.61656
1.62171
1.62701
1.63245
1.63803
1.64374
1.64957
1.65552
1.66157
1.66772
1.67396
1.68029
1.68669
1.69316
1.69969
1.70628
1.71291
1.71958
1.72629
1.73301
1.73976
1.74651
1.75327
1.76002
1.76677
1.77349
1.78019
1.78686
1.7935
1.80009
1.80663
1.81311
1.81954
1.82589
1.83218
1.83839
1.84451
1.85054
1.85649
1.86233
1.86807
1.87371
1.87923
1.88464
1.88993
1.89509
1.90013
1.90504
1.90981
1.91444
1.91893
1.92328
1.92748
1.93154
1.93544
1.93918
1.94277
1.94619
1.94946
1.95256
1.9555
1.95826
1.96086
1.96329
1.96555
1.96763
1.96953
1.97126
1.97282
1.97419
1.97539
1.9764
1.97724
1.9779
1.97837
1.97866
1.97879
1.98178
1.98165
1.98136
1.98088
1.98022
1.97937
1.97835
1.97714
1.97576
1.97419
1.97245
1.97053
1.96843
1.96616
1.96371
1.96109
1.9583
1.95534
1.95221
1.94891
1.94545
1.94183
1.93805
1.93412
1.93003
1.92578
1.92139
1.91685
1.91217
1.90735
1.90239
1.8973
1.89208
1.88673
1.88127
1.87568
1.86998
1.86417
1.85825
1.85224
1.84613
1.83993
1.83364
1.82727
1.82083
1.81432
1.80775
1.80112
1.79444
1.78771
1.78095
1.77415
1.76732
1.76048
1.75362
1.74676
1.7399
1.73305
1.72622
1.71941
1.71263
1.70588
1.69919
1.69255
1.68597
1.67945
1.67302
1.66667
1.66041
1.65425
1.6482
1.64226
1.63644
1.63076
1.62522
1.61981
1.61457
1.60948
1.60455
1.5998
1.59523
1.59085
1.58665
1.58266
1.57886
1.57528
1.57191
1.56876
1.56583
1.56313
1.56067
1.55844
1.55644
1.55469
1.55319
1.55193
1.55092
1.55016
1.54965
1.54939
1.54939
1.54964
1.55014
1.55089
1.5519
1.55315
1.55464
1.55639
1.55837
1.56059
1.56305
1.56574
1.56866
1.57181
1.57517
1.57874
1.58253
1.58651
1.5907
1.59508
1.59964
1.60438
1.6093
1.61438
1.61962
1.62502
1.63055
1.63623
1.64203
1.64796
1.65401
1.66016
1.66641
1.67275
1.67918
1.68568
1.69225
1.69889
1.70558
1.71231
1.71908
1.72588
1.73271
1.73955
1.7464
1.75326
1.76011
1.76694
1.77376
1.78055
1.78731
1.79403
1.80071
1.80733
1.8139
1.8204
1.82684
1.8332
1.83948
1.84568
1.85178
1.85779
1.86371
1.86951
1.87521
1.88079
1.88626
1.89161
1.89683
1.90192
1.90687
1.91169
1.91637
1.92091
1.9253
1.92955
1.93364
1.93758
1.94136
1.94498
1.94844
1.95173
1.95486
1.95782
1.96062
1.96324
1.96569
1.96796
1.97006
1.97199
1.97373
1.9753
1.97669
1.97789
1.97892
1.97976
1.98042
1.9809
1.9812
1.98132
1.9845
1.98437
1.98407
1.98359
1.98292
1.98207
1.98104
1.97982
1.97842
1.97684
1.97508
1.97314
1.97103
1.96873
1.96626
1.96361
1.96079
1.95781
1.95465
1.95132
1.94783
1.94417
1.94035
1.93638
1.93224
1.92795
1.92352
1.91893
1.9142
1.90932
1.90431
1.89916
1.89388
1.88848
1.88294
1.87729
1.87152
1.86565
1.85966
1.85357
1.84738
1.84111
1.83474
1.82829
1.82177
1.81517
1.80851
1.80179
1.79502
1.7882
1.78133
1.77444
1.76752
1.76057
1.75362
1.74665
1.73969
1.73273
1.72579
1.71887
1.71199
1.70514
1.69833
1.69158
1.68489
1.67827
1.67172
1.66526
1.6589
1.65263
1.64647
1.64043
1.63451
1.62872
1.62308
1.61758
1.61223
1.60705
1.60203
1.59719
1.59253
1.58806
1.58379
1.57971
1.57585
1.57219
1.56876
1.56554
1.56256
1.55981
1.55729
1.55501
1.55298
1.5512
1.54966
1.54838
1.54734
1.54657
1.54605
1.54579
1.54579
1.54604
1.54655
1.54732
1.54834
1.54962
1.55115
1.55292
1.55495
1.55722
1.55973
1.56247
1.56545
1.56865
1.57208
1.57573
1.57958
1.58365
1.58792
1.59238
1.59703
1.60186
1.60687
1.61205
1.61738
1.62288
1.62852
1.63429
1.6402
1.64624
1.65239
1.65865
1.66501
1.67146
1.67799
1.68461
1.69129
1.69803
1.70483
1.71167
1.71855
1.72546
1.73239
1.73934
1.74629
1.75325
1.7602
1.76714
1.77405
1.78094
1.78779
1.79461
1.80138
1.80809
1.81475
1.82134
1.82785
1.8343
1.84066
1.84693
1.85312
1.8592
1.86518
1.87106
1.87682
1.88247
1.888
1.89341
1.89869
1.90383
1.90885
1.91372
1.91845
1.92304
1.92747
1.93176
1.93589
1.93987
1.94369
1.94735
1.95084
1.95417
1.95733
1.96032
1.96314
1.96579
1.96826
1.97056
1.97268
1.97462
1.97638
1.97796
1.97936
1.98058
1.98161
1.98246
1.98313
1.98362
1.98391
1.98404
1.9874
1.98727
1.98697
1.98648
1.98581
1.98495
1.98391
1.98268
1.98127
1.97967
1.97789
1.97594
1.9738
1.97148
1.96898
1.96631
1.96346
1.96044
1.95725
1.95389
1.95036
1.94667
1.94281
1.93879
1.93461
1.93028
1.92579
1.92115
1.91637
1.91144
1.90636
1.90116
1.89581
1.89034
1.88474
1.87902
1.87318
1.86723
1.86117
1.855
1.84873
1.84237
1.83592
1.82938
1.82277
1.81608
1.80933
1.80251
1.79564
1.78872
1.78176
1.77476
1.76773
1.76068
1.75361
1.74654
1.73947
1.7324
1.72534
1.71831
1.71131
1.70434
1.69742
1.69055
1.68375
1.67701
1.67035
1.66377
1.65729
1.6509
1.64463
1.63847
1.63244
1.62655
1.62079
1.61518
1.60973
1.60445
1.59933
1.59439
1.58964
1.58508
1.58072
1.57656
1.57261
1.56889
1.56538
1.5621
1.55905
1.55624
1.55367
1.55135
1.54927
1.54745
1.54588
1.54457
1.54351
1.54272
1.54219
1.54192
1.54192
1.54218
1.5427
1.54349
1.54453
1.54584
1.5474
1.54921
1.55128
1.5536
1.55616
1.55896
1.562
1.56527
1.56877
1.57249
1.57643
1.58058
1.58494
1.58949
1.59423
1.59916
1.60427
1.60955
1.61499
1.62059
1.62634
1.63223
1.63825
1.6444
1.65066
1.65703
1.66351
1.67008
1.67673
1.68346
1.69026
1.69712
1.70403
1.71099
1.71799
1.72501
1.73206
1.73912
1.74618
1.75325
1.76031
1.76735
1.77437
1.78136
1.78832
1.79523
1.8021
1.80891
1.81566
1.82234
1.82895
1.83548
1.84193
1.84828
1.85455
1.86071
1.86677
1.87272
1.87855
1.88427
1.88987
1.89534
1.90068
1.90589
1.91096
1.91588
1.92067
1.92531
1.92979
1.93413
1.93831
1.94233
1.94619
1.94988
1.95341
1.95677
1.95997
1.96299
1.96584
1.96851
1.97101
1.97333
1.97547
1.97743
1.97921
1.9808
1.98222
1.98344
1.98449
1.98535
1.98602
1.98651
1.98681
1.98694
1.99049
1.99036
1.99006
1.98956
1.98888
1.98802
1.98696
1.98572
1.98429
1.98268
1.98089
1.97891
1.97675
1.9744
1.97188
1.96918
1.9663
1.96325
1.96003
1.95663
1.95306
1.94932
1.94542
1.94136
1.93713
1.93275
1.92821
1.92352
1.91868
1.91369
1.90855
1.90328
1.89787
1.89233
1.88666
1.88087
1.87495
1.86892
1.86278
1.85653
1.85018
1.84373
1.83718
1.83056
1.82385
1.81706
1.81021
1.80329
1.79631
1.78929
1.78222
1.77511
1.76797
1.7608
1.75362
1.74643
1.73924
1.73205
1.72487
1.71772
1.71059
1.7035
1.69646
1.68946
1.68253
1.67567
1.66888
1.66218
1.65557
1.64907
1.64267
1.63639
1.63024
1.62423
1.61836
1.61263
1.60707
1.60167
1.59645
1.59141
1.58656
1.5819
1.57744
1.5732