/*--------------------------------*- C++ -*----------------------------------*\
| =========                 |                                                 |
| \\      /  F ield         | OpenFOAM: The Open Source CFD Toolbox           |
|  \\    /   O peration     | Version:  2412                                  |
|   \\  /    A nd           | Website:  www.openfoam.com                      |
|    \\/     M anipulation  |                                                 |
\*---------------------------------------------------------------------------*/
FoamFile
{
    version     2.0;
    format      ascii;
    arch        "LSB;label=32;scalar=64";
    class       surfaceScalarField;
    location    "1.06";
    object      phi;
}
// * * * * * * * * * * * * * * * * * * * * * * * * * * * * * * * * * * * * * //

dimensions      [0 3 -1 0 0 0 0];

oriented        oriented;

internalField   nonuniform List<scalar> 
79600
(
1.62506e-11
-1.63703e-11
2.74854e-11
-1.12344e-11
4.52155e-11
-1.77291e-11
6.50313e-11
-1.98148e-11
8.59467e-11
-2.09147e-11
1.06951e-10
-2.10038e-11
1.27774e-10
-2.08243e-11
1.48361e-10
-2.0588e-11
1.6868e-10
-2.03204e-11
1.88758e-10
-2.00804e-11
2.08614e-10
-1.98589e-11
2.28253e-10
-1.96401e-11
2.47677e-10
-1.94245e-11
2.66886e-10
-1.92084e-11
2.85877e-10
-1.89886e-11
3.04641e-10
-1.87624e-11
3.23169e-10
-1.85263e-11
3.41451e-10
-1.82802e-11
3.59476e-10
-1.80232e-11
3.77233e-10
-1.77539e-11
3.94707e-10
-1.74717e-11
4.11887e-10
-1.71762e-11
4.28756e-10
-1.68669e-11
4.45302e-10
-1.65438e-11
4.6151e-10
-1.62066e-11
4.77366e-10
-1.58551e-11
4.92856e-10
-1.54894e-11
5.07966e-10
-1.51093e-11
5.22683e-10
-1.4715e-11
5.36991e-10
-1.43065e-11
5.50877e-10
-1.38838e-11
5.64325e-10
-1.34468e-11
5.77322e-10
-1.29954e-11
5.89852e-10
-1.25294e-11
6.01902e-10
-1.20487e-11
6.13457e-10
-1.15532e-11
6.24501e-10
-1.10428e-11
6.35021e-10
-1.0518e-11
6.45e-10
-9.97868e-12
6.54424e-10
-9.42494e-12
6.63278e-10
-8.85661e-12
6.71549e-10
-8.27345e-12
6.79222e-10
-7.67531e-12
6.86284e-10
-7.06254e-12
6.9272e-10
-6.43583e-12
6.98516e-10
-5.79598e-12
7.0366e-10
-5.14367e-12
7.08139e-10
-4.47936e-12
7.11942e-10
-3.80329e-12
7.15059e-10
-3.11587e-12
7.17478e-10
-2.41777e-12
7.19189e-10
-1.70971e-12
7.20183e-10
-9.92314e-13
7.20448e-10
-2.65086e-13
7.19977e-10
4.70038e-13
7.18766e-10
1.21009e-12
7.16808e-10
1.95661e-12
7.14097e-10
2.7083e-12
7.1063e-10
3.46535e-12
7.06401e-10
4.22686e-12
7.01408e-10
4.99204e-12
6.95648e-10
5.76005e-12
6.89119e-10
6.52989e-12
6.8182e-10
7.30031e-12
6.73751e-10
8.06997e-12
6.64914e-10
8.83764e-12
6.55312e-10
9.60218e-12
6.4495e-10
1.03624e-11
6.33834e-10
1.11172e-11
6.2197e-10
1.18651e-11
6.09365e-10
1.26047e-11
5.96029e-10
1.33351e-11
5.81972e-10
1.40552e-11
5.67206e-10
1.47642e-11
5.51743e-10
1.54613e-11
5.35597e-10
1.61451e-11
5.18783e-10
1.68141e-11
5.01316e-10
1.74668e-11
4.83213e-10
1.81017e-11
4.64494e-10
1.87178e-11
4.45178e-10
1.93136e-11
4.25289e-10
1.98881e-11
4.04848e-10
2.04399e-11
3.83881e-10
2.09679e-11
3.62412e-10
2.14709e-11
3.40466e-10
2.19478e-11
3.1807e-10
2.23973e-11
2.95251e-10
2.28184e-11
2.7204e-10
2.32104e-11
2.48466e-10
2.35726e-11
2.24561e-10
2.39046e-11
2.00355e-10
2.42057e-11
1.75881e-10
2.44749e-11
1.51169e-10
2.47114e-11
1.26255e-10
2.49145e-11
1.01169e-10
2.50844e-11
7.59475e-11
2.52211e-11
5.06227e-11
2.53242e-11
2.5229e-11
2.53931e-11
-1.98484e-13
2.54275e-11
-2.56253e-11
2.54276e-11
-5.10177e-11
2.53934e-11
-7.63416e-11
2.53247e-11
-1.01563e-10
2.52219e-11
-1.26647e-10
2.50853e-11
-1.51562e-10
2.49155e-11
-1.76273e-10
2.47126e-11
-2.00747e-10
2.44764e-11
-2.24954e-10
2.42077e-11
-2.4886e-10
2.39073e-11
-2.72434e-10
2.35755e-11
-2.95646e-10
2.32132e-11
-3.18467e-10
2.28216e-11
-3.40867e-10
2.2401e-11
-3.62819e-10
2.19517e-11
-3.84295e-10
2.14755e-11
-4.05267e-10
2.09733e-11
-4.25712e-10
2.04456e-11
-4.45605e-10
1.98939e-11
-4.64923e-10
1.93198e-11
-4.83646e-10
1.87245e-11
-5.01753e-10
1.81091e-11
-5.19227e-10
1.74748e-11
-5.3605e-10
1.6823e-11
-5.52207e-10
1.61552e-11
-5.6768e-10
1.54726e-11
-5.82457e-10
1.4776e-11
-5.96526e-10
1.40669e-11
-6.09873e-10
1.3347e-11
-6.2249e-10
1.26166e-11
-6.34367e-10
1.18768e-11
-6.45499e-10
1.11296e-11
-6.55877e-10
1.03767e-11
-6.65495e-10
9.61776e-12
-6.74352e-10
8.85466e-12
-6.82444e-10
8.08984e-12
-6.89767e-10
7.3234e-12
-6.96322e-10
6.55552e-12
-7.02111e-10
5.78833e-12
-7.07133e-10
5.0227e-12
-7.1139e-10
4.25804e-12
-7.14885e-10
3.49534e-12
-7.1762e-10
2.73587e-12
-7.196e-10
1.98034e-12
-7.2083e-10
1.22986e-12
-7.21315e-10
4.8569e-13
-7.21061e-10
-2.51853e-13
-7.20079e-10
-9.80659e-13
-7.18381e-10
-1.6972e-12
-7.15977e-10
-2.40232e-12
-7.12881e-10
-3.09582e-12
-7.09104e-10
-3.77788e-12
-7.04657e-10
-4.44813e-12
-6.99551e-10
-5.10606e-12
-6.93798e-10
-5.75248e-12
-6.8741e-10
-6.38787e-12
-6.80399e-10
-7.01192e-12
-6.72777e-10
-7.62384e-12
-6.64556e-10
-8.22258e-12
-6.55749e-10
-8.80819e-12
-6.46371e-10
-9.37987e-12
-6.36436e-10
-9.93562e-12
-6.25961e-10
-1.04751e-11
-6.14962e-10
-1.09987e-11
-6.03457e-10
-1.15064e-11
-5.91459e-10
-1.19983e-11
-5.78985e-10
-1.24756e-11
-5.66048e-10
-1.29383e-11
-5.52662e-10
-1.33862e-11
-5.38841e-10
-1.38204e-11
-5.24599e-10
-1.42424e-11
-5.09951e-10
-1.46511e-11
-4.94908e-10
-1.5043e-11
-4.79491e-10
-1.54177e-11
-4.6372e-10
-1.57731e-11
-4.47611e-10
-1.6109e-11
-4.31183e-10
-1.64299e-11
-4.14445e-10
-1.67384e-11
-3.97407e-10
-1.70368e-11
-3.80081e-10
-1.73261e-11
-3.62479e-10
-1.76037e-11
-3.44612e-10
-1.78659e-11
-3.26501e-10
-1.811e-11
-3.08165e-10
-1.83349e-11
-2.89623e-10
-1.85414e-11
-2.7089e-10
-1.87325e-11
-2.51979e-10
-1.89117e-11
-2.329e-10
-1.90796e-11
-2.13659e-10
-1.92377e-11
-1.94267e-10
-1.93867e-11
-1.74742e-10
-1.95229e-11
-1.551e-10
-1.96428e-11
-1.35353e-10
-1.97446e-11
-1.15522e-10
-1.98311e-11
-9.56199e-11
-1.99027e-11
-7.56596e-11
-1.99591e-11
-5.56742e-11
-1.99878e-11
-3.57166e-11
-1.99455e-11
-1.61178e-11
-1.95605e-11
-1.60801e-11
2.76979e-11
-4.40677e-11
5.22376e-11
-3.57724e-11
7.41117e-11
-3.96017e-11
9.65605e-11
-4.22626e-11
1.19471e-10
-4.38248e-11
1.4288e-10
-4.44141e-11
1.66615e-10
-4.45623e-11
1.90484e-10
-4.44603e-11
2.14386e-10
-4.42265e-11
2.38234e-10
-4.39314e-11
2.61972e-10
-4.35989e-11
2.85567e-10
-4.32354e-11
3.0899e-10
-4.28457e-11
3.32215e-10
-4.24313e-11
3.55222e-10
-4.19918e-11
3.77988e-10
-4.15259e-11
4.00497e-10
-4.10321e-11
4.2273e-10
-4.05096e-11
4.44669e-10
-3.99576e-11
4.66295e-10
-3.93755e-11
4.87591e-10
-3.87628e-11
5.08538e-10
-3.8119e-11
5.29118e-10
-3.74437e-11
5.49313e-10
-3.67363e-11
5.69104e-10
-3.59964e-11
5.88474e-10
-3.52237e-11
6.07405e-10
-3.4418e-11
6.25879e-10
-3.35797e-11
6.43876e-10
-3.27087e-11
6.61377e-10
-3.18051e-11
6.78365e-10
-3.08688e-11
6.94819e-10
-2.98996e-11
7.10723e-10
-2.88972e-11
7.26057e-10
-2.78614e-11
7.40803e-10
-2.67924e-11
7.54943e-10
-2.56904e-11
7.68458e-10
-2.45554e-11
7.81328e-10
-2.33879e-11
7.93535e-10
-2.21878e-11
8.05062e-10
-2.09549e-11
8.15891e-10
-1.96891e-11
8.26005e-10
-1.83905e-11
8.35389e-10
-1.70596e-11
8.44023e-10
-1.56974e-11
8.51893e-10
-1.43049e-11
8.5898e-10
-1.28833e-11
8.6527e-10
-1.14336e-11
8.70748e-10
-9.9566e-12
8.75399e-10
-8.45312e-12
8.7921e-10
-6.92445e-12
8.82166e-10
-5.37208e-12
8.84255e-10
-3.7976e-12
8.85465e-10
-2.20251e-12
8.85786e-10
-5.88409e-13
8.85209e-10
1.04443e-12
8.83723e-10
2.69276e-12
8.8132e-10
4.35686e-12
8.77991e-10
6.0343e-12
8.73731e-10
7.72346e-12
8.68535e-10
9.42243e-12
8.62398e-10
1.11292e-11
8.55319e-10
1.28416e-11
8.47293e-10
1.45573e-11
8.38321e-10
1.62739e-11
8.28403e-10
1.79889e-11
8.17542e-10
1.96997e-11
8.05742e-10
2.14037e-11
7.93007e-10
2.30982e-11
7.79345e-10
2.47804e-11
7.64761e-10
2.64476e-11
7.49266e-10
2.80971e-11
7.32872e-10
2.97266e-11
7.1559e-10
3.13339e-11
6.97436e-10
3.29164e-11
6.78425e-10
3.44711e-11
6.58575e-10
3.59951e-11
6.37902e-10
3.74852e-11
6.16429e-10
3.89385e-11
5.94175e-10
4.03526e-11
5.71166e-10
4.17247e-11
5.47426e-10
4.30521e-11
5.22981e-10
4.43319e-11
4.97861e-10
4.55612e-11
4.72094e-10
4.6737e-11
4.4571e-10
4.78569e-11
4.18741e-10
4.89185e-11
3.91218e-10
4.99198e-11
3.63177e-10
5.08589e-11
3.34652e-10
5.17341e-11
3.05681e-10
5.25435e-11
2.76301e-10
5.32852e-11
2.4655e-10
5.39571e-11
2.16467e-10
5.45576e-11
1.86092e-10
5.50857e-11
1.55465e-10
5.55404e-11
1.24627e-10
5.59213e-11
9.36191e-11
5.62277e-11
6.24844e-11
5.64585e-11
3.12648e-11
5.66127e-11
2.9468e-15
5.66897e-11
-3.12581e-11
5.66896e-11
-6.2476e-11
5.66127e-11
-9.36094e-11
5.64592e-11
-1.24616e-10
5.62299e-11
-1.55453e-10
5.59249e-11
-1.8608e-10
5.5545e-11
-2.16455e-10
5.50907e-11
-2.46539e-10
5.45624e-11
-2.7629e-10
5.39611e-11
-3.05671e-10
5.32893e-11
-3.34642e-10
5.25484e-11
-3.63166e-10
5.17396e-11
-3.91208e-10
5.08649e-11
-4.18732e-10
4.99263e-11
-4.45704e-10
4.89252e-11
-4.72091e-10
4.78636e-11
-4.97861e-10
4.67443e-11
-5.22982e-10
4.55692e-11
-5.47426e-10
4.43408e-11
-5.71166e-10
4.3062e-11
-5.94174e-10
4.17355e-11
-6.16428e-10
4.0364e-11
-6.37903e-10
3.89503e-11
-6.58579e-10
3.74974e-11
-6.78433e-10
3.60082e-11
-6.97449e-10
3.44857e-11
-7.15606e-10
3.29323e-11
-7.3289e-10
3.13501e-11
-7.49288e-10
2.97429e-11
-7.64787e-10
2.81134e-11
-7.79374e-10
2.64633e-11
-7.93043e-10
2.47956e-11
-8.05785e-10
2.31147e-11
-8.17591e-10
2.14227e-11
-8.28458e-10
1.97206e-11
-8.38383e-10
1.80124e-11
-8.47363e-10
1.63014e-11
-8.55394e-10
1.45885e-11
-8.6248e-10
1.28755e-11
-8.68623e-10
1.11653e-11
-8.73823e-10
9.4598e-12
-8.78088e-10
7.76065e-12
-8.8142e-10
6.06983e-12
-8.83828e-10
4.38915e-12
-8.85319e-10
2.72136e-12
-8.85901e-10
1.06931e-12
-8.85584e-10
-5.65876e-13
-8.8438e-10
-2.18251e-12
-8.82298e-10
-3.77776e-12
-8.79351e-10
-5.34966e-12
-8.7555e-10
-6.89734e-12
-8.70908e-10
-8.42037e-12
-8.6544e-10
-9.91762e-12
-8.59158e-10
-1.13878e-11
-8.52079e-10
-1.28315e-11
-8.44219e-10
-1.42492e-11
-8.35595e-10
-1.5639e-11
-8.26222e-10
-1.69996e-11
-8.16117e-10
-1.83301e-11
-8.05298e-10
-1.96297e-11
-7.93781e-10
-2.08978e-11
-7.81583e-10
-2.21329e-11
-7.68725e-10
-2.33348e-11
-7.55224e-10
-2.45019e-11
-7.41097e-10
-2.56343e-11
-7.26364e-10
-2.67324e-11
-7.11043e-10
-2.7798e-11
-6.95153e-10
-2.88302e-11
-6.7871e-10
-2.98282e-11
-6.61737e-10
-3.07954e-11
-6.4425e-10
-3.17305e-11
-6.26269e-10
-3.26339e-11
-6.07814e-10
-3.35024e-11
-5.88901e-10
-3.43341e-11
-5.69547e-10
-3.51283e-11
-5.49769e-10
-3.58849e-11
-5.29588e-10
-3.66098e-11
-5.09024e-10
-3.73042e-11
-4.88093e-10
-3.79676e-11
-4.66816e-10
-3.86042e-11
-4.45209e-10
-3.92106e-11
-4.23287e-10
-3.97836e-11
-4.01071e-10
-4.03243e-11
-3.78577e-10
-4.08284e-11
-3.55822e-10
-4.12961e-11
-3.32823e-10
-4.17316e-11
-3.09594e-10
-4.21356e-11
-2.86156e-10
-4.25134e-11
-2.62525e-10
-4.28658e-11
-2.38717e-10
-4.31898e-11
-2.14754e-10
-4.34857e-11
-1.90652e-10
-4.37464e-11
-1.66422e-10
-4.39711e-11
-1.42082e-10
-4.41645e-11
-1.17648e-10
-4.43322e-11
-9.3131e-11
-4.44764e-11
-6.85483e-11
-4.45879e-11
-4.39406e-11
-4.46072e-11
-1.96365e-11
-4.39356e-11
-3.56933e-11
2.22418e-11
-6.63086e-11
4.97728e-11
-6.33015e-11
7.46516e-11
-6.44792e-11
9.88832e-11
-6.64937e-11
1.22924e-10
-6.78661e-11
1.46995e-10
-6.84866e-11
1.71149e-10
-6.87196e-11
1.95339e-10
-6.86526e-11
2.19516e-10
-6.84067e-11
2.43635e-10
-6.80519e-11
2.67653e-10
-6.76183e-11
2.91539e-10
-6.71207e-11
3.15262e-10
-6.65679e-11
3.38796e-10
-6.59644e-11
3.62118e-10
-6.53121e-11
3.85205e-10
-6.46117e-11
4.08038e-10
-6.38628e-11
4.30597e-10
-6.30653e-11
4.52862e-10
-6.22191e-11
4.74814e-10
-6.13239e-11
4.96434e-10
-6.03796e-11
5.17703e-10
-5.93856e-11
5.38603e-10
-5.83414e-11
5.59114e-10
-5.72464e-11
5.7922e-10
-5.60999e-11
5.98899e-10
-5.49018e-11
6.18135e-10
-5.36519e-11
6.36909e-10
-5.23505e-11
6.552e-10
-5.09974e-11
6.72989e-10
-4.95926e-11
6.90257e-10
-4.81359e-11
7.06986e-10
-4.66269e-11
7.23155e-10
-4.50656e-11
7.38747e-10
-4.34519e-11
7.53743e-10
-4.17861e-11
7.68123e-10
-4.00683e-11
7.81868e-10
-3.82989e-11
7.94958e-10
-3.64782e-11
8.07375e-10
-3.46062e-11
8.19102e-10
-3.26829e-11
8.3012e-10
-3.07085e-11
8.40413e-10
-2.86835e-11
8.49962e-10
-2.6609e-11
8.58752e-10
-2.44861e-11
8.66763e-10
-2.23165e-11
8.73981e-10
-2.01013e-11
8.80388e-10
-1.78419e-11
8.85971e-10
-1.55394e-11
8.90714e-10
-1.31956e-11
8.94603e-10
-1.08124e-11
8.97623e-10
-8.39193e-12
8.99761e-10
-5.93661e-12
9.01005e-10
-3.44861e-12
9.01345e-10
-9.3012e-13
9.0077e-10
1.61759e-12
8.9927e-10
4.19194e-12
8.96835e-10
6.79037e-12
8.93459e-10
9.40995e-12
8.89135e-10
1.20477e-11
8.83858e-10
1.47005e-11
8.77624e-10
1.73652e-11
8.7043e-10
2.00385e-11
8.62272e-10
2.27167e-11
8.53151e-10
2.53963e-11
8.43068e-10
2.80733e-11
8.32024e-10
3.0744e-11
8.20024e-10
3.34041e-11
8.07072e-10
3.60497e-11
7.93175e-10
3.86764e-11
7.78341e-10
4.12802e-11
7.62578e-10
4.38571e-11
7.459e-10
4.64032e-11
7.28319e-10
4.89143e-11
7.09849e-10
5.1386e-11
6.90506e-10
5.38136e-11
6.70308e-10
5.61925e-11
6.49273e-10
5.85185e-11
6.27422e-10
6.07873e-11
6.04778e-10
6.29948e-11
5.81365e-10
6.51368e-11
5.57207e-10
6.72087e-11
5.32333e-10
6.92061e-11
5.0677e-10
7.11245e-11
4.80548e-10
7.29596e-11
4.53698e-10
7.47079e-11
4.26252e-10
7.63658e-11
3.98243e-10
7.79301e-11
3.69706e-10
7.93975e-11
3.40676e-10
8.07648e-11
3.11191e-10
8.2029e-11
2.81289e-10
8.3187e-11
2.51009e-10
8.42364e-11
2.20391e-10
8.51748e-11
1.89474e-10
8.60008e-11
1.58301e-10
8.67127e-11
1.26914e-10
8.7309e-11
9.53525e-11
8.77879e-11
6.36613e-11
8.81483e-11
3.18836e-11
8.83889e-11
6.29912e-14
8.85092e-11
-3.17568e-11
8.85094e-11
-6.35323e-11
8.83895e-11
-9.52211e-11
8.81499e-11
-1.26781e-10
8.77914e-11
-1.58168e-10
8.73144e-11
-1.89341e-10
8.67195e-11
-2.20258e-10
8.60083e-11
-2.50877e-10
8.51823e-11
-2.81157e-10
8.4243e-11
-3.11059e-10
8.31932e-11
-3.40543e-10
8.20358e-11
-3.69571e-10
8.07723e-11
-3.98109e-10
7.94053e-11
-4.26119e-10
7.79384e-11
-4.53566e-10
7.63745e-11
-4.80418e-10
7.47166e-11
-5.06641e-10
7.29685e-11
-5.32205e-10
7.11341e-11
-5.57078e-10
6.92169e-11
-5.81234e-10
6.7221e-11
-6.04646e-10
6.51503e-11
-6.27289e-10
6.30091e-11
-6.49141e-10
6.08018e-11
-6.70176e-10
5.85331e-11
-6.90376e-10
5.62071e-11
-7.09721e-10
5.38287e-11
-7.28193e-10
5.14021e-11
-7.45775e-10
4.89312e-11
-7.62454e-10
4.64203e-11
-7.78218e-10
4.38745e-11
-7.93053e-10
4.12976e-11
-8.06952e-10
3.8693e-11
-8.19907e-10
3.60665e-11
-8.3191e-10
3.34229e-11
-8.42955e-10
3.07649e-11
-8.53041e-10
2.80963e-11
-8.62165e-10
2.54226e-11
-8.70323e-10
2.27468e-11
-8.77517e-10
2.00711e-11
-8.83751e-10
1.73995e-11
-8.89027e-10
1.4736e-11
-8.93349e-10
1.20836e-11
-8.96725e-10
9.44532e-12
-8.99159e-10
6.82423e-12
-9.00661e-10
4.22373e-12
-9.01238e-10
1.64742e-12
-9.009e-10
-9.02571e-13
-8.99658e-10
-3.42258e-12
-8.97523e-10
-5.91111e-12
-8.94508e-10
-8.36481e-12
-8.90625e-10
-1.07819e-11
-8.85886e-10
-1.31606e-11
-8.80304e-10
-1.54993e-11
-8.73897e-10
-1.77964e-11
-8.66678e-10
-2.00511e-11
-8.58665e-10
-2.22629e-11
-8.49875e-10
-2.44302e-11
-8.40324e-10
-2.65516e-11
-8.30032e-10
-2.8626e-11
-8.19013e-10
-3.0651e-11
-8.07285e-10
-3.26263e-11
-7.94868e-10
-3.45514e-11
-7.81779e-10
-3.6425e-11
-7.68036e-10
-3.82451e-11
-7.53658e-10
-4.00117e-11
-7.38665e-10
-4.17269e-11
-7.23073e-10
-4.33901e-11
-7.06902e-10
-4.50012e-11
-6.90173e-10
-4.65601e-11
-6.72903e-10
-4.80671e-11
-6.55113e-10
-4.95216e-11
-6.36822e-10
-5.09247e-11
-6.1805e-10
-5.22763e-11
-5.98813e-10
-5.35729e-11
-5.79126e-10
-5.48131e-11
-5.59012e-10
-5.60001e-11
-5.38486e-10
-5.71342e-11
-5.17568e-10
-5.82187e-11
-4.96282e-10
-5.92563e-11
-4.74643e-10
-6.02443e-11
-4.52668e-10
-6.11827e-11
-4.30379e-10
-6.20725e-11
-4.07788e-10
-6.29102e-11
-3.84915e-10
-6.36965e-11
-3.61779e-10
-6.44325e-11
-3.38392e-10
-6.51167e-11
-3.14773e-10
-6.57518e-11
-2.90941e-10
-6.63421e-11
-2.66914e-10
-6.68876e-11
-2.42713e-10
-6.73898e-11
-2.18353e-10
-6.78457e-11
-1.93851e-10
-6.82502e-11
-1.69221e-10
-6.86027e-11
-1.44476e-10
-6.89076e-11
-1.19635e-10
-6.91692e-11
-9.4709e-11
-6.93847e-11
-6.97064e-11
-6.95537e-11
-4.46746e-11
-6.96142e-11
-2.00213e-11
-6.86189e-11
-5.57144e-11
1.99224e-11
-8.62299e-11
4.69556e-11
-9.0333e-11
7.29239e-11
-9.04465e-11
9.79685e-11
-9.15384e-11
1.22597e-10
-9.24959e-11
1.4711e-10
-9.30017e-11
1.71549e-10
-9.31611e-11
1.95925e-10
-9.30308e-11
2.20236e-10
-9.27188e-11
2.44456e-10
-9.22734e-11
2.6856e-10
-9.17223e-11
2.9252e-10
-9.10813e-11
3.16313e-10
-9.03605e-11
3.39914e-10
-8.95656e-11
3.63302e-10
-8.86997e-11
3.86456e-10
-8.77644e-11
4.09355e-10
-8.67605e-11
4.31981e-10
-8.56885e-11
4.54313e-10
-8.45487e-11
4.76332e-10
-8.33411e-11
4.9802e-10
-8.20655e-11
5.19357e-10
-8.07214e-11
5.40326e-10
-7.93083e-11
5.60906e-10
-7.78254e-11
5.81081e-10
-7.62725e-11
6.0083e-10
-7.46491e-11
6.20134e-10
-7.29552e-11
6.38976e-10
-7.11907e-11
6.57335e-10
-6.93554e-11
6.75193e-10
-6.7449e-11
6.92529e-10
-6.54714e-11
7.09325e-10
-6.34223e-11
7.25562e-10
-6.13017e-11
7.4122e-10
-5.91095e-11
7.56282e-10
-5.6846e-11
7.70727e-10
-5.45116e-11
7.84535e-10
-5.21066e-11
7.97689e-10
-4.96313e-11
8.10169e-10
-4.7086e-11
8.21957e-10
-4.44709e-11
8.33036e-10
-4.17867e-11
8.43388e-10
-3.90342e-11
8.52994e-10
-3.62147e-11
8.61838e-10
-3.33298e-11
8.69902e-10
-3.03812e-11
8.7717e-10
-2.73704e-11
8.83626e-10
-2.4299e-11
8.89256e-10
-2.11689e-11
8.94042e-10
-1.79823e-11
8.97971e-10
-1.47419e-11
9.01029e-10
-1.14505e-11
9.03201e-10
-8.11107e-12
9.04477e-10
-4.72631e-12
9.04846e-10
-1.29975e-12
9.04295e-10
2.16788e-12
9.02816e-10
5.67221e-12
9.00398e-10
9.20883e-12
8.97036e-10
1.27741e-11
8.92721e-10
1.63641e-11
8.87448e-10
1.99746e-11
8.81215e-10
2.36014e-11
8.74016e-10
2.72398e-11
8.65849e-10
3.0885e-11
8.56715e-10
3.45322e-11
8.46612e-10
3.8176e-11
8.35545e-10
4.18111e-11
8.23516e-10
4.54324e-11
8.1053e-10
4.90342e-11
7.96594e-10
5.2611e-11
7.81716e-10
5.61572e-11
7.65905e-10
5.9667e-11
7.49173e-10
6.31348e-11
7.31532e-10
6.65545e-11
7.12998e-10
6.992e-11
6.93586e-10
7.32252e-11
6.73313e-10
7.64643e-11
6.52199e-10
7.96315e-11
6.30265e-10
8.27212e-11
6.07532e-10
8.57273e-11
5.84024e-10
8.86439e-11
5.59767e-10
9.14646e-11
5.34788e-10
9.41838e-11
5.09116e-10
9.67958e-11
4.82781e-10
9.92952e-11
4.55814e-10
1.01677e-10
4.28246e-10
1.03936e-10
4.00112e-10
1.06067e-10
3.71446e-10
1.08065e-10
3.42284e-10
1.09928e-10
3.12663e-10
1.11649e-10
2.82622e-10
1.13226e-10
2.52201e-10
1.14656e-10
2.2144e-10
1.15935e-10
1.90379e-10
1.17062e-10
1.5906e-10
1.18032e-10
1.27524e-10
1.18845e-10
9.58135e-11
1.19497e-10
6.39715e-11
1.19987e-10
3.20427e-11
1.20315e-10
7.09651e-14
1.2048e-10
-3.19e-11
1.2048e-10
-6.38264e-11
1.20318e-10
-9.56654e-11
1.19991e-10
-1.27374e-10
1.19502e-10
-1.5891e-10
1.18851e-10
-1.9023e-10
1.1804e-10
-2.21293e-10
1.1707e-10
-2.52056e-10
1.15945e-10
-2.82476e-10
1.14666e-10
-3.12515e-10
1.13236e-10
-3.42134e-10
1.11659e-10
-3.71294e-10
1.09937e-10
-3.9996e-10
1.08074e-10
-4.28095e-10
1.06075e-10
-4.55664e-10
1.03945e-10
-4.82632e-10
1.01687e-10
-5.08969e-10
9.93059e-11
-5.34641e-10
9.68078e-11
-5.59618e-10
9.41973e-11
-5.83874e-10
9.14795e-11
-6.07381e-10
8.86597e-11
-6.30114e-10
8.57437e-11
-6.5205e-10
8.27377e-11
-6.73165e-10
7.96479e-11
-6.93439e-10
7.64802e-11
-7.12853e-10
7.32407e-11
-7.31389e-10
6.9936e-11
-7.4903e-10
6.65714e-11
-7.65762e-10
6.3152e-11
-7.81574e-10
5.96843e-11
-7.96454e-10
5.61747e-11
-8.1039e-10
5.26284e-11
-8.23376e-10
4.90514e-11
-8.35407e-10
4.54506e-11
-8.46476e-10
4.18316e-11
-8.56578e-10
3.81986e-11
-8.65714e-10
3.45573e-11
-8.73882e-10
3.09133e-11
-8.8108e-10
2.72704e-11
-8.87314e-10
2.36334e-11
-8.92585e-10
2.00077e-11
-8.96898e-10
1.63975e-11
-9.00261e-10
1.28074e-11
-9.02678e-10
9.2419e-12
-9.04158e-10
5.70492e-12
-9.0471e-10
2.20023e-12
-9.04343e-10
-1.26862e-12
-9.03069e-10
-4.69621e-12
-9.00897e-10
-8.08152e-12
-8.97842e-10
-1.14203e-11
-8.93917e-10
-1.47094e-11
-8.89132e-10
-1.79459e-11
-8.83503e-10
-2.11279e-11
-8.77046e-10
-2.42539e-11
-8.69777e-10
-2.73217e-11
-8.6171e-10
-3.03297e-11
-8.52865e-10
-3.32768e-11
-8.43257e-10
-3.61615e-11
-8.32905e-10
-3.89812e-11
-8.21825e-10
-4.17331e-11
-8.10035e-10
-4.44168e-11
-7.97555e-10
-4.70327e-11
-7.84401e-10
-4.95784e-11
-7.70592e-10
-5.20536e-11
-7.56147e-10
-5.44574e-11
-7.41085e-10
-5.67898e-11
-7.25426e-10
-5.90511e-11
-7.09186e-10
-6.12406e-11
-6.92388e-10
-6.33605e-11
-6.75047e-10
-6.54074e-11
-6.57185e-10
-6.73832e-11
-6.38824e-10
-6.92885e-11
-6.19978e-10
-7.11215e-11
-6.00668e-10
-7.28828e-11
-5.8091e-10
-7.45705e-11
-5.60723e-10
-7.6186e-11
-5.40126e-10
-7.77306e-11
-5.19138e-10
-7.92059e-11
-4.97779e-10
-8.06148e-11
-4.76066e-10
-8.19561e-11
-4.54018e-10
-8.32289e-11
-4.31653e-10
-8.44343e-11
-4.08987e-10
-8.55714e-11
-3.86042e-10
-8.66402e-11
-3.62833e-10
-8.76401e-11
-3.39375e-10
-8.85727e-11
-3.15688e-10
-8.94393e-11
-2.91786e-10
-9.02412e-11
-2.6769e-10
-9.09821e-11
-2.43419e-10
-9.166e-11
-2.18986e-10
-9.22743e-11
-1.9441e-10
-9.28247e-11
-1.69705e-10
-9.33089e-11
-1.44884e-10
-9.37318e-11
-1.19967e-10
-9.40951e-11
-9.49777e-11
-9.43899e-11
-6.99166e-11
-9.46089e-11
-4.48206e-11
-9.46872e-11
-2.01072e-11
-9.33389e-11
-7.58262e-11
1.92747e-11
-1.05504e-10
4.55021e-11
-1.16559e-10
7.1569e-11
-1.16513e-10
9.70517e-11
-1.17022e-10
1.22124e-10
-1.1757e-10
1.46964e-10
-1.17844e-10
1.71636e-10
-1.17835e-10
1.96201e-10
-1.17596e-10
2.20658e-10
-1.17177e-10
2.44998e-10
-1.16613e-10
2.69202e-10
-1.15927e-10
2.9325e-10
-1.15131e-10
3.17123e-10
-1.14234e-10
3.408e-10
-1.13243e-10
3.64261e-10
-1.1216e-10
3.87486e-10
-1.10989e-10
4.10456e-10
-1.09729e-10
4.33151e-10
-1.08382e-10
4.55552e-10
-1.06949e-10
4.77641e-10
-1.05429e-10
4.99399e-10
-1.03823e-10
5.20807e-10
-1.02128e-10
5.41846e-10
-1.00347e-10
5.62498e-10
-9.84762e-11
5.82743e-10
-9.6517e-11
6.02563e-10
-9.44687e-11
6.2194e-10
-9.2331e-11
6.40853e-10
-9.01036e-11
6.59285e-10
-8.7786e-11
6.77214e-10
-8.5378e-11
6.94623e-10
-8.28795e-11
7.11491e-10
-8.02903e-11
7.278e-10
-7.76103e-11
7.43531e-10
-7.48395e-11
7.58664e-10
-7.19782e-11
7.7318e-10
-6.90267e-11
7.8706e-10
-6.59854e-11
8.00285e-10
-6.28549e-11
8.12835e-10
-5.96355e-11
8.24693e-10
-5.6328e-11
8.35841e-10
-5.29332e-11
8.4626e-10
-4.94522e-11
8.55932e-10
-4.58866e-11
8.6484e-10
-4.22381e-11
8.72967e-10
-3.85087e-11
8.80296e-10
-3.47002e-11
8.86811e-10
-3.08148e-11
8.92496e-10
-2.68547e-11
8.97337e-10
-2.2823e-11
9.01317e-10
-1.87229e-11
9.04423e-10
-1.45578e-11
9.06641e-10
-1.03309e-11
9.0796e-10
-6.04595e-12
9.08368e-10
-1.70775e-12
9.07854e-10
2.68365e-12
9.06407e-10
7.12119e-12
9.04018e-10
1.15994e-11
9.0068e-10
1.61141e-11
8.96385e-10
2.06604e-11
8.91128e-10
2.52329e-11
8.84906e-10
2.98264e-11
8.77713e-10
3.44349e-11
8.69547e-10
3.90522e-11
8.60408e-10
4.3672e-11
8.50296e-10
4.82878e-11
8.39213e-10
5.2893e-11
8.27163e-10
5.74812e-11
8.14151e-10
6.20454e-11
8.00183e-10
6.65784e-11
7.85267e-10
7.10729e-11
7.69413e-10
7.55213e-11
7.52632e-10
7.99162e-11
7.34936e-10
8.42499e-11
7.16341e-10
8.8515e-11
6.96861e-10
9.2704e-11
6.76516e-10
9.68096e-11
6.55323e-10
1.00824e-10
6.33305e-10
1.04741e-10
6.10481e-10
1.08551e-10
5.86877e-10
1.12248e-10
5.62517e-10
1.15823e-10
5.3743e-10
1.1927e-10
5.11644e-10
1.22581e-10
4.85189e-10
1.2575e-10
4.58097e-10
1.2877e-10
4.304e-10
1.31635e-10
4.02132e-10
1.34336e-10
3.73327e-10
1.36871e-10
3.44022e-10
1.39231e-10
3.14256e-10
1.41414e-10
2.84065e-10
1.43415e-10
2.53492e-10
1.45229e-10
2.22576e-10
1.46852e-10
1.91358e-10
1.48281e-10
1.5988e-10
1.49512e-10
1.28182e-10
1.50542e-10
9.63089e-11
1.51368e-10
6.4303e-11
1.5199e-10
3.22096e-11
1.52407e-10
7.29463e-14
1.52616e-10
-3.20633e-11
1.52617e-10
-6.4155e-11
1.5241e-10
-9.61583e-11
1.51995e-10
-1.2803e-10
1.51374e-10
-1.59728e-10
1.50548e-10
-1.91208e-10
1.4952e-10
-2.22428e-10
1.4829e-10
-2.53346e-10
1.46863e-10
-2.83919e-10
1.45242e-10
-3.14107e-10
1.43428e-10
-3.43872e-10
1.41427e-10
-3.73175e-10
1.39243e-10
-4.01978e-10
1.3688e-10
-4.30246e-10
1.34345e-10
-4.57944e-10
1.31643e-10
-4.85036e-10
1.28781e-10
-5.11492e-10
1.25762e-10
-5.37277e-10
1.22595e-10
-5.62364e-10
1.19286e-10
-5.86723e-10
1.1584e-10
-6.10327e-10
1.12265e-10
-6.33152e-10
1.08569e-10
-6.55173e-10
1.04758e-10
-6.76368e-10
1.00842e-10
-6.96715e-10
9.68268e-11
-7.16195e-10
9.27209e-11
-7.34792e-10
8.85319e-11
-7.52489e-10
8.42673e-11
-7.69271e-10
7.99335e-11
-7.85126e-10
7.55379e-11
-8.00043e-10
7.10893e-11
-8.14011e-10
6.65955e-11
-8.27022e-10
6.20631e-11
-8.39072e-10
5.74998e-11
-8.50155e-10
5.29138e-11
-8.60267e-10
4.83108e-11
-8.69406e-10
4.36968e-11
-8.77573e-10
3.9079e-11
-8.84767e-10
3.44636e-11
-8.90989e-10
2.98566e-11
-8.96245e-10
2.52643e-11
-9.00539e-10
2.06921e-11
-9.03877e-10
1.61458e-11
-9.06266e-10
1.16313e-11
-9.07713e-10
7.15334e-12
-9.08229e-10
2.71637e-12
-9.07824e-10
-1.67442e-12
-9.06506e-10
-6.01389e-12
-9.04288e-10
-1.0299e-11
-9.01183e-10
-1.45254e-11
-8.97204e-10
-1.86888e-11
-8.92365e-10
-2.27854e-11
-8.8668e-10
-2.68132e-11
-8.80165e-10
-3.07701e-11
-8.72835e-10
-3.46527e-11
-8.64707e-10
-3.84591e-11
-8.55798e-10
-4.21878e-11
-8.46126e-10
-4.58365e-11
-8.35706e-10
-4.94018e-11
-8.24558e-10
-5.28821e-11
-8.12699e-10
-5.62761e-11
-8.00149e-10
-5.95841e-11
-7.86923e-10
-6.28036e-11
-7.73042e-10
-6.59345e-11
-7.58526e-10
-6.89758e-11
-7.43391e-10
-7.19249e-11
-7.27658e-10
-7.47842e-11
-7.11347e-10
-7.7553e-11
-6.94475e-10
-8.02321e-11
-6.7706e-10
-8.282e-11
-6.59127e-10
-8.53176e-11
-6.4069e-10
-8.77254e-11
-6.21772e-10
-9.00415e-11
-6.02389e-10
-9.22666e-11
-5.82559e-10
-9.44008e-11
-5.62301e-10
-9.64427e-11
-5.41633e-10
-9.83958e-11
-5.20576e-10
-1.00263e-10
-4.99147e-10
-1.02042e-10
-4.77363e-10
-1.03737e-10
-4.55246e-10
-1.05346e-10
-4.32811e-10
-1.06868e-10
-4.10078e-10
-1.08302e-10
-3.87066e-10
-1.09652e-10
-3.63791e-10
-1.10915e-10
-3.40268e-10
-1.12094e-10
-3.16514e-10
-1.1319e-10
-2.92548e-10
-1.14206e-10
-2.68385e-10
-1.15142e-10
-2.44048e-10
-1.15999e-10
-2.1955e-10
-1.16773e-10
-1.94905e-10
-1.17464e-10
-1.70133e-10
-1.18078e-10
-1.45246e-10
-1.18615e-10
-1.20263e-10
-1.19075e-10
-9.52119e-11
-1.19449e-10
-7.0106e-11
-1.19731e-10
-4.49603e-11
-1.19822e-10
-2.01821e-11
-1.18115e-10
-9.60023e-11
1.91961e-11
-1.24699e-10
4.49524e-11
-1.42315e-10
7.09475e-11
-1.42509e-10
9.65914e-11
-1.42668e-10
1.21895e-10
-1.42876e-10
1.46951e-10
-1.42901e-10
1.71832e-10
-1.42716e-10
1.96574e-10
-1.42336e-10
2.21183e-10
-1.41785e-10
2.45654e-10
-1.41084e-10
2.69974e-10
-1.40248e-10
2.94129e-10
-1.39287e-10
3.18101e-10
-1.38208e-10
3.41873e-10
-1.37015e-10
3.65426e-10
-1.35713e-10
3.88741e-10
-1.34303e-10
4.11799e-10
-1.32787e-10
4.34582e-10
-1.31165e-10
4.57071e-10
-1.29438e-10
4.79247e-10
-1.27606e-10
5.01093e-10
-1.25669e-10
5.22588e-10
-1.23625e-10
5.43716e-10
-1.21474e-10
5.64457e-10
-1.19217e-10
5.84792e-10
-1.16852e-10
6.04702e-10
-1.14379e-10
6.24168e-10
-1.11797e-10
6.43172e-10
-1.09107e-10
6.61693e-10
-1.06307e-10
6.79714e-10
-1.03398e-10
6.97213e-10
-1.00378e-10
7.14173e-10
-9.72493e-11
7.30572e-10
-9.40099e-11
7.46394e-10
-9.06605e-11
7.61617e-10
-8.7201e-11
7.76223e-10
-8.36319e-11
7.90193e-10
-7.99539e-11
8.03506e-10
-7.61675e-11
8.16145e-10
-7.22734e-11
8.28091e-10
-6.82726e-11
8.39324e-10
-6.41661e-11
8.49828e-10
-5.99552e-11
8.59583e-10
-5.56417e-11
8.68572e-10
-5.12276e-11
8.76777e-10
-4.6715e-11
8.84183e-10
-4.21062e-11
8.90773e-10
-3.7404e-11
8.9653e-10
-3.26113e-11
9.01439e-10
-2.77317e-11
9.05485e-10
-2.27687e-11
9.08652e-10
-1.77263e-11
9.10929e-10
-1.26085e-11
9.12302e-10
-7.41939e-12
9.1276e-10
-2.16482e-12
9.12292e-10
3.1538e-12
9.10887e-10
8.52826e-12
9.08535e-10
1.39527e-11
9.05228e-10
1.94217e-11
9.0096e-10
2.49297e-11
8.95724e-10
3.04702e-11
8.89516e-10
3.60365e-11
8.82332e-10
4.16212e-11
8.74168e-10
4.72168e-11
8.65025e-10
5.28158e-11
8.54901e-10
5.84104e-11
8.43801e-10
6.39929e-11
8.31727e-10
6.95554e-11
8.18683e-10
7.50893e-11
8.04677e-10
8.05856e-11
7.89715e-10
8.60352e-11
7.73807e-10
9.14291e-11
7.56965e-10
9.67581e-11
7.39201e-10
1.02013e-10
7.2053e-10
1.07186e-10
7.00967e-10
1.12267e-10
6.80531e-10
1.17247e-10
6.59241e-10
1.22117e-10
6.37116e-10
1.26868e-10
6.14179e-10
1.31489e-10
5.90453e-10
1.35973e-10
5.65964e-10
1.4031e-10
5.40741e-10
1.44491e-10
5.14813e-10
1.48509e-10
4.88208e-10
1.52354e-10
4.6096e-10
1.56019e-10
4.33101e-10
1.59493e-10
4.04664e-10
1.62772e-10
3.75686e-10
1.65847e-10
3.46204e-10
1.68713e-10
3.16255e-10
1.71363e-10
2.85879e-10
1.73792e-10
2.55115e-10
1.75994e-10
2.24004e-10
1.77965e-10
1.92589e-10
1.79698e-10
1.6091e-10
1.81192e-10
1.29009e-10
1.82442e-10
9.6931e-11
1.83445e-10
6.47193e-11
1.842e-10
3.24189e-11
1.84705e-10
7.46403e-14
1.84959e-10
-3.22695e-11
1.8496e-10
-6.45687e-11
1.84708e-10
-9.67784e-11
1.84205e-10
-1.28855e-10
1.83451e-10
-1.60756e-10
1.82449e-10
-1.92436e-10
1.812e-10
-2.23854e-10
1.79708e-10
-2.54967e-10
1.77976e-10
-2.85731e-10
1.76007e-10
-3.16107e-10
1.73805e-10
-3.46055e-10
1.71375e-10
-3.75537e-10
1.68724e-10
-4.04513e-10
1.65858e-10
-4.32948e-10
1.62782e-10
-4.60806e-10
1.59504e-10
-4.88055e-10
1.5603e-10
-5.14659e-10
1.52368e-10
-5.40587e-10
1.48525e-10
-5.6581e-10
1.44509e-10
-5.90298e-10
1.40328e-10
-6.14024e-10
1.35991e-10
-6.36963e-10
1.31507e-10
-6.59089e-10
1.26885e-10
-6.80383e-10
1.22135e-10
-7.00821e-10
1.17266e-10
-7.20384e-10
1.12286e-10
-7.39057e-10
1.07205e-10
-7.56823e-10
1.02032e-10
-7.73666e-10
9.67757e-11
-7.89574e-10
9.14456e-11
-8.04537e-10
8.60512e-11
-8.18543e-10
8.06024e-11
-8.31585e-10
7.51075e-11
-8.43658e-10
6.9575e-11
-8.54758e-10
6.40143e-11
-8.64881e-10
5.84338e-11
-8.74025e-10
5.28406e-11
-8.82189e-10
4.72428e-11
-8.89374e-10
4.16488e-11
-8.95583e-10
3.60656e-11
-9.00818e-10
3.05006e-11
-9.05086e-10
2.49609e-11
-9.08392e-10
1.94533e-11
-9.10745e-10
1.39843e-11
-9.12151e-10
8.55997e-12
-9.12621e-10
3.18606e-12
-9.12165e-10
-2.13129e-12
-9.10792e-10
-7.38686e-12
-9.08516e-10
-1.25757e-11
-9.05349e-10
-1.76929e-11
-9.01304e-10
-2.27333e-11
-8.96396e-10
-2.76936e-11
-8.9064e-10
-3.25704e-11
-8.84051e-10
-3.73608e-11
-8.76645e-10
-4.20607e-11
-8.68439e-10
-4.66675e-11
-8.5945e-10
-5.11791e-11
-8.49695e-10
-5.55929e-11
-8.39191e-10
-5.99059e-11
-8.27956e-10
-6.41168e-11
-8.16011e-10
-6.82234e-11
-8.03371e-10
-7.22246e-11
-7.90057e-10
-7.61197e-11
-7.76087e-10
-7.99064e-11
-7.61478e-10
-8.35833e-11
-7.46253e-10
-8.71496e-11
-7.30428e-10
-9.06068e-11
-7.14026e-10
-9.39565e-11
-6.97063e-10
-9.71958e-11
-6.79558e-10
-1.00325e-10
-6.61533e-10
-1.03345e-10
-6.43004e-10
-1.06252e-10
-6.23995e-10
-1.09051e-10
-6.04523e-10