/*--------------------------------*- C++ -*----------------------------------*\
| =========                 |                                                 |
| \\      /  F ield         | OpenFOAM: The Open Source CFD Toolbox           |
|  \\    /   O peration     | Version:  2412                                  |
|   \\  /    A nd           | Website:  www.openfoam.com                      |
|    \\/     M anipulation  |                                                 |
\*---------------------------------------------------------------------------*/
FoamFile
{
    version     2.0;
    format      ascii;
    arch        "LSB;label=32;scalar=64";
    class       volVectorField;
    location    "1.06";
    object      U;
}
// * * * * * * * * * * * * * * * * * * * * * * * * * * * * * * * * * * * * * //

dimensions      [0 1 -1 0 0 0 0];

internalField   nonuniform List<vector> 
40000
(
(1.21023e-05 -3.00205e-06 0)
(1.9676e-05 -2.71326e-08 0)
(3.6804e-05 -6.41757e-06 0)
(5.40313e-05 -8.29126e-06 0)
(7.55111e-05 -8.89307e-06 0)
(9.64151e-05 -9.00382e-06 0)
(0.000117362 -8.90743e-06 0)
(0.000138042 -8.79502e-06 0)
(0.000158479 -8.66683e-06 0)
(0.000178694 -8.56121e-06 0)
(0.000198668 -8.47064e-06 0)
(0.000218418 -8.38125e-06 0)
(0.000237956 -8.29357e-06 0)
(0.000257279 -8.206e-06 0)
(0.000276384 -8.11705e-06 0)
(0.000295264 -8.02491e-06 0)
(0.000313912 -7.9278e-06 0)
(0.00033232 -7.82589e-06 0)
(0.000350475 -7.71883e-06 0)
(0.000368368 -7.60615e-06 0)
(0.000385985 -7.48753e-06 0)
(0.000403314 -7.36293e-06 0)
(0.00042034 -7.23218e-06 0)
(0.000437048 -7.09509e-06 0)
(0.000453427 -6.95159e-06 0)
(0.00046946 -6.80162e-06 0)
(0.000485134 -6.64521e-06 0)
(0.000500436 -6.48251e-06 0)
(0.000515351 -6.31364e-06 0)
(0.000529866 -6.1386e-06 0)
(0.000543964 -5.9574e-06 0)
(0.000557633 -5.77e-06 0)
(0.000570856 -5.57633e-06 0)
(0.000583621 -5.3763e-06 0)
(0.000595912 -5.16993e-06 0)
(0.000607716 -4.95723e-06 0)
(0.000619018 -4.73821e-06 0)
(0.000629801 -4.51296e-06 0)
(0.000640051 -4.28158e-06 0)
(0.000649754 -4.04407e-06 0)
(0.000658894 -3.80026e-06 0)
(0.000667457 -3.55004e-06 0)
(0.00067543 -3.29337e-06 0)
(0.000682798 -3.03034e-06 0)
(0.000689548 -2.76122e-06 0)
(0.000695665 -2.48643e-06 0)
(0.000701136 -2.20628e-06 0)
(0.000705948 -1.9209e-06 0)
(0.000710091 -1.63043e-06 0)
(0.000713552 -1.33511e-06 0)
(0.000716321 -1.03522e-06 0)
(0.000718387 -7.31152e-07 0)
(0.00071974 -4.2329e-07 0)
(0.000720371 -1.11743e-07 0)
(0.000720269 2.03645e-07 0)
(0.000719428 5.22374e-07 0)
(0.000717844 8.43748e-07 0)
(0.00071551 1.16754e-06 0)
(0.000712421 1.49334e-06 0)
(0.000708574 1.82091e-06 0)
(0.000703963 2.15016e-06 0)
(0.000698586 2.48075e-06 0)
(0.000692442 2.81222e-06 0)
(0.000685527 3.14399e-06 0)
(0.000677843 3.47552e-06 0)
(0.00066939 3.80624e-06 0)
(0.00066017 4.13561e-06 0)
(0.000650188 4.46309e-06 0)
(0.000639449 4.78816e-06 0)
(0.000627958 5.1102e-06 0)
(0.000615723 5.42856e-06 0)
(0.000602751 5.74272e-06 0)
(0.000589054 6.0523e-06 0)
(0.000574641 6.35703e-06 0)
(0.000559525 6.65657e-06 0)
(0.00054372 6.95042e-06 0)
(0.000527238 7.23793e-06 0)
(0.000510096 7.51847e-06 0)
(0.000492309 7.79147e-06 0)
(0.000473897 8.05646e-06 0)
(0.000454878 8.31296e-06 0)
(0.000435274 8.56042e-06 0)
(0.000415107 8.79826e-06 0)
(0.000394401 9.02598e-06 0)
(0.000373181 9.24309e-06 0)
(0.000351472 9.44907e-06 0)
(0.000329299 9.64327e-06 0)
(0.000306689 9.82514e-06 0)
(0.000283672 9.99432e-06 0)
(0.000260278 1.01506e-05 0)
(0.000236536 1.02938e-05 0)
(0.000212478 1.04236e-05 0)
(0.000188136 1.05394e-05 0)
(0.000163541 1.0641e-05 0)
(0.000138725 1.07281e-05 0)
(0.000113723 1.08011e-05 0)
(8.85668e-05 1.08601e-05 0)
(6.32908e-05 1.09048e-05 0)
(3.7929e-05 1.09348e-05 0)
(1.25166e-05 1.09498e-05 0)
(-1.29133e-05 1.09495e-05 0)
(-3.83246e-05 1.0934e-05 0)
(-6.36853e-05 1.09036e-05 0)
(-8.89604e-05 1.08587e-05 0)
(-0.000114116 1.07993e-05 0)
(-0.000139118 1.07259e-05 0)
(-0.000163933 1.06382e-05 0)
(-0.000188528 1.0536e-05 0)
(-0.000212871 1.04199e-05 0)
(-0.00023693 1.02902e-05 0)
(-0.000260672 1.0147e-05 0)
(-0.000284067 9.99087e-06 0)
(-0.000307086 9.82224e-06 0)
(-0.000329698 9.64115e-06 0)
(-0.000351876 9.44781e-06 0)
(-0.000373592 9.24301e-06 0)
(-0.000394818 9.02712e-06 0)
(-0.000415528 8.80025e-06 0)
(-0.000435699 8.56298e-06 0)
(-0.000455306 8.31599e-06 0)
(-0.000474328 8.05977e-06 0)
(-0.000492745 7.79482e-06 0)
(-0.000510537 7.52172e-06 0)
(-0.000527687 7.24101e-06 0)
(-0.000544179 6.95346e-06 0)
(-0.000559995 6.65962e-06 0)
(-0.000575121 6.35972e-06 0)
(-0.000589545 6.05441e-06 0)
(-0.000603254 5.74444e-06 0)
(-0.000616237 5.42999e-06 0)
(-0.000628484 5.11137e-06 0)
(-0.00063999 4.78963e-06 0)
(-0.000650745 4.46535e-06 0)
(-0.000660744 4.13838e-06 0)
(-0.000669981 3.8095e-06 0)
(-0.000678456 3.4799e-06 0)
(-0.000686164 3.14959e-06 0)
(-0.000693104 2.8187e-06 0)
(-0.000699276 2.48833e-06 0)
(-0.000704681 2.15899e-06 0)
(-0.000709319 1.83034e-06 0)
(-0.000713194 1.50277e-06 0)
(-0.000716309 1.17677e-06 0)
(-0.000718665 8.5248e-07 0)
(-0.00072027 5.29981e-07 0)
(-0.000721127 2.09365e-07 0)
(-0.000721242 -1.08479e-07 0)
(-0.000720623 -4.21718e-07 0)
(-0.000719283 -7.30121e-07 0)
(-0.000717233 -1.03396e-06 0)
(-0.000714483 -1.33303e-06 0)
(-0.000711046 -1.62709e-06 0)
(-0.000706933 -1.91565e-06 0)
(-0.000702155 -2.19843e-06 0)
(-0.000696724 -2.47592e-06 0)
(-0.000690651 -2.74845e-06 0)
(-0.00068395 -3.01585e-06 0)
(-0.000676632 -3.27774e-06 0)
(-0.000668709 -3.53384e-06 0)
(-0.000660194 -3.78458e-06 0)
(-0.000651101 -4.02979e-06 0)
(-0.000641444 -4.2685e-06 0)
(-0.000631238 -4.50042e-06 0)
(-0.000620501 -4.72576e-06 0)
(-0.000609248 -4.94471e-06 0)
(-0.000597496 -5.15721e-06 0)
(-0.000585259 -5.36347e-06 0)
(-0.000572551 -5.56285e-06 0)
(-0.000559387 -5.75499e-06 0)
(-0.000545781 -5.94078e-06 0)
(-0.000531747 -6.12163e-06 0)
(-0.0005173 -6.2976e-06 0)
(-0.000502455 -6.46697e-06 0)
(-0.000487227 -6.62938e-06 0)
(-0.000471635 -6.78351e-06 0)
(-0.000455696 -6.92914e-06 0)
(-0.000439425 -7.06808e-06 0)
(-0.000422838 -7.20106e-06 0)
(-0.000405945 -7.32905e-06 0)
(-0.000388759 -7.453e-06 0)
(-0.000371293 -7.57254e-06 0)
(-0.00035356 -7.68714e-06 0)
(-0.000335574 -7.7955e-06 0)
(-0.000317352 -7.89565e-06 0)
(-0.000298914 -7.98584e-06 0)
(-0.000280274 -8.06628e-06 0)
(-0.000261449 -8.13906e-06 0)
(-0.00024245 -8.20578e-06 0)
(-0.000223287 -8.26925e-06 0)
(-0.000203969 -8.33152e-06 0)
(-0.000184511 -8.39062e-06 0)
(-0.000164929 -8.44367e-06 0)
(-0.000145234 -8.48866e-06 0)
(-0.000125443 -8.52671e-06 0)
(-0.000105575 -8.55922e-06 0)
(-8.56449e-05 -8.58679e-06 0)
(-6.56668e-05 -8.60099e-06 0)
(-4.5668e-05 -8.58436e-06 0)
(-2.6006e-05 -8.45373e-06 0)
(-7.42843e-06 -7.40832e-06 0)
(1.72723e-05 -3.21742e-05 0)
(4.06793e-05 -2.33775e-05 0)
(6.38694e-05 -2.95229e-05 0)
(8.47997e-05 -3.20553e-05 0)
(0.000107643 -3.34483e-05 0)
(0.000130857 -3.364e-05 0)
(0.000154523 -3.34706e-05 0)
(0.000178388 -3.31784e-05 0)
(0.00020232 -3.2831e-05 0)
(0.00022623 -3.2494e-05 0)
(0.000250047 -3.21661e-05 0)
(0.000273732 -3.18364e-05 0)
(0.000297254 -3.15045e-05 0)
(0.000320589 -3.11661e-05 0)
(0.000343714 -3.08182e-05 0)
(0.000366606 -3.0457e-05 0)
(0.00038925 -3.00792e-05 0)
(0.000411625 -2.96837e-05 0)
(0.000433715 -2.92692e-05 0)
(0.000455501 -2.88344e-05 0)
(0.000476965 -2.83784e-05 0)
(0.000498089 -2.79008e-05 0)
(0.000518854 -2.74009e-05 0)
(0.000539244 -2.68781e-05 0)
(0.000559239 -2.63322e-05 0)
(0.000578822 -2.57628e-05 0)
(0.000597975 -2.51697e-05 0)
(0.00061668 -2.45532e-05 0)
(0.000634918 -2.39134e-05 0)
(0.00065267 -2.32502e-05 0)
(0.000669916 -2.25636e-05 0)
(0.00068664 -2.18534e-05 0)
(0.000702821 -2.11194e-05 0)
(0.000718442 -2.03613e-05 0)
(0.000733484 -1.95793e-05 0)
(0.00074793 -1.87733e-05 0)
(0.000761759 -1.79436e-05 0)
(0.000774954 -1.70902e-05 0)
(0.000787494 -1.62133e-05 0)
(0.000799362 -1.53127e-05 0)
(0.000810541 -1.43882e-05 0)
(0.000821014 -1.34397e-05 0)
(0.000830764 -1.24674e-05 0)
(0.000839774 -1.14719e-05 0)
(0.000848028 -1.04541e-05 0)
(0.000855508 -9.41513e-06 0)
(0.000862198 -8.3557e-06 0)
(0.000868083 -7.27644e-06 0)
(0.000873149 -6.17798e-06 0)
(0.000877382 -5.06121e-06 0)
(0.000880767 -3.92723e-06 0)
(0.000883291 -2.77728e-06 0)
(0.000884942 -1.61254e-06 0)
(0.000885708 -4.33859e-07 0)
(0.000885582 7.58054e-07 0)
(0.000884552 1.96219e-06 0)
(0.000882609 3.17686e-06 0)
(0.000879744 4.401e-06 0)
(0.00087595 5.63333e-06 0)
(0.000871222 6.87269e-06 0)
(0.000865556 8.11792e-06 0)
(0.000858947 9.36758e-06 0)
(0.000851394 1.06199e-05 0)
(0.000842895 1.18731e-05 0)
(0.00083345 1.31252e-05 0)
(0.000823061 1.43743e-05 0)
(0.00081173 1.56184e-05 0)
(0.000799462 1.68556e-05 0)
(0.000786263 1.80839e-05 0)
(0.000772139 1.93011e-05 0)
(0.000757099 2.05053e-05 0)
(0.000741153 2.16946e-05 0)
(0.000724313 2.28674e-05 0)
(0.000706593 2.40221e-05 0)
(0.000688009 2.51568e-05 0)
(0.000668576 2.62692e-05 0)
(0.000648312 2.73571e-05 0)
(0.000627237 2.84182e-05 0)
(0.000605371 2.94506e-05 0)
(0.000582737 3.04524e-05 0)
(0.00055936 3.14217e-05 0)
(0.000535265 3.23562e-05 0)
(0.00051048 3.3254e-05 0)
(0.000485034 3.41129e-05 0)
(0.000458956 3.49313e-05 0)
(0.000432276 3.57072e-05 0)
(0.000405027 3.64389e-05 0)
(0.000377242 3.7125e-05 0)
(0.000348956 3.77641e-05 0)
(0.000320205 3.83549e-05 0)
(0.000291026 3.88963e-05 0)
(0.000261457 3.93868e-05 0)
(0.000231537 3.98253e-05 0)
(0.000201304 4.02106e-05 0)
(0.000170799 4.05423e-05 0)
(0.000140063 4.082e-05 0)
(0.000109136 4.10435e-05 0)
(7.80608e-05 4.1212e-05 0)
(4.68796e-05 4.13246e-05 0)
(1.56361e-05 4.13809e-05 0)
(-1.563e-05 4.13805e-05 0)
(-4.68721e-05 4.13238e-05 0)
(-7.80517e-05 4.12111e-05 0)
(-0.000109125 4.10432e-05 0)
(-0.000140051 4.08203e-05 0)
(-0.000170787 4.05429e-05 0)
(-0.000201292 4.02114e-05 0)
(-0.000231526 3.98259e-05 0)
(-0.000261447 3.93872e-05 0)
(-0.000291017 3.88971e-05 0)
(-0.000320196 3.83564e-05 0)
(-0.000348946 3.77661e-05 0)
(-0.000377232 3.71279e-05 0)
(-0.000405018 3.64429e-05 0)
(-0.000432269 3.57121e-05 0)
(-0.000458951 3.49373e-05 0)
(-0.000485032 3.41203e-05 0)
(-0.00051048 3.32624e-05 0)
(-0.000535266 3.23654e-05 0)
(-0.00055936 3.14316e-05 0)
(-0.000582737 3.04632e-05 0)
(-0.00060537 2.94619e-05 0)
(-0.000627238 2.84299e-05 0)
(-0.000648316 2.73694e-05 0)
(-0.000668583 2.62826e-05 0)
(-0.00068802 2.51717e-05 0)
(-0.000706608 2.40382e-05 0)
(-0.00072433 2.28838e-05 0)
(-0.000741173 2.17114e-05 0)
(-0.000757122 2.05226e-05 0)
(-0.000772166 1.93186e-05 0)
(-0.000786295 1.81021e-05 0)
(-0.000799502 1.68761e-05 0)
(-0.000811777 1.56414e-05 0)
(-0.000823114 1.43996e-05 0)
(-0.000833511 1.31538e-05 0)
(-0.000842964 1.19058e-05 0)
(-0.000851469 1.0656e-05 0)
(-0.000859028 9.40659e-06 0)
(-0.000865641 8.15946e-06 0)
(-0.000871312 6.91521e-06 0)
(-0.000876043 5.67511e-06 0)
(-0.000879839 4.44077e-06 0)
(-0.000882708 3.21335e-06 0)
(-0.000884656 1.99457e-06 0)
(-0.000885691 7.86109e-07 0)
(-0.000885823 -4.1034e-07 0)
(-0.000885063 -1.59184e-06 0)
(-0.000883421 -2.75662e-06 0)
(-0.000880907 -3.90396e-06 0)
(-0.000877533 -5.03326e-06 0)
(-0.000873311 -6.14419e-06 0)
(-0.000868255 -7.23585e-06 0)
(-0.000862378 -8.30746e-06 0)
(-0.000855694 -9.3599e-06 0)
(-0.000848222 -1.03937e-05 0)
(-0.000839976 -1.14077e-05 0)
(-0.000830974 -1.24007e-05 0)
(-0.000821234 -1.33719e-05 0)
(-0.00081077 -1.43212e-05 0)
(-0.0007996 -1.52476e-05 0)
(-0.000787742 -1.61495e-05 0)
(-0.000775214 -1.70263e-05 0)
(-0.000762035 -1.78777e-05 0)
(-0.000748221 -1.87037e-05 0)
(-0.00073379 -1.95049e-05 0)
(-0.00071876 -2.02824e-05 0)
(-0.000703151 -2.10357e-05 0)
(-0.000686981 -2.17643e-05 0)
(-0.000670268 -2.24705e-05 0)
(-0.000653034 -2.31548e-05 0)
(-0.000635297 -2.38168e-05 0)
(-0.00061708 -2.44529e-05 0)
(-0.000598399 -2.5062e-05 0)
(-0.000579271 -2.56424e-05 0)
(-0.000559707 -2.61942e-05 0)
(-0.000539724 -2.67223e-05 0)
(-0.000519343 -2.72285e-05 0)
(-0.000498585 -2.7714e-05 0)
(-0.000477474 -2.81818e-05 0)
(-0.000456031 -2.8629e-05 0)
(-0.000434271 -2.90525e-05 0)
(-0.000412207 -2.94506e-05 0)
(-0.000389855 -2.98193e-05 0)
(-0.00036723 -3.01582e-05 0)
(-0.000344349 -3.04707e-05 0)
(-0.000321229 -3.076e-05 0)
(-0.000297889 -3.10304e-05 0)
(-0.00027435 -3.12841e-05 0)
(-0.00025063 -3.1521e-05 0)
(-0.000226747 -3.17396e-05 0)
(-0.000202716 -3.1934e-05 0)
(-0.000178548 -3.21019e-05 0)
(-0.00015426 -3.22461e-05 0)
(-0.000129874 -3.23694e-05 0)
(-0.000105403 -3.24723e-05 0)
(-8.08441e-05 -3.25412e-05 0)
(-5.6219e-05 -3.2519e-05 0)
(-3.2011e-05 -3.19656e-05 0)
(-8.48812e-06 -2.59712e-05 0)
(1.08264e-05 -5.4043e-05 0)
(3.5344e-05 -4.8576e-05 0)
(6.34416e-05 -5.06289e-05 0)
(8.6943e-05 -5.34287e-05 0)
(0.000110891 -5.52794e-05 0)
(0.000134843 -5.61221e-05 0)
(0.000158948 -5.64127e-05 0)
(0.000183137 -5.63994e-05 0)
(0.000207342 -5.62071e-05 0)
(0.000231512 -5.59126e-05 0)
(0.000255597 -5.55486e-05 0)
(0.000279563 -5.51301e-05 0)
(0.000303379 -5.4667e-05 0)
(0.000327018 -5.41636e-05 0)
(0.000350453 -5.36218e-05 0)
(0.000373664 -5.30416e-05 0)
(0.00039663 -5.24224e-05 0)
(0.00041933 -5.17641e-05 0)
(0.000441746 -5.1066e-05 0)
(0.000463857 -5.0328e-05 0)
(0.000485646 -4.95497e-05 0)
(0.000507093 -4.87308e-05 0)
(0.00052818 -4.78708e-05 0)
(0.000548888 -4.69693e-05 0)
(0.000569199 -4.60256e-05 0)
(0.000589094 -4.50396e-05 0)
(0.000608554 -4.40114e-05 0)
(0.000627562 -4.2941e-05 0)
(0.000646096 -4.18286e-05 0)
(0.000664139 -4.06742e-05 0)
(0.00068167 -3.94776e-05 0)
(0.000698671 -3.82387e-05 0)
(0.000715122 -3.69571e-05 0)
(0.000731005 -3.56329e-05 0)
(0.000746302 -3.4266e-05 0)
(0.000760992 -3.28566e-05 0)
(0.000775056 -3.14051e-05 0)
(0.000788476 -2.99117e-05 0)
(0.000801232 -2.83763e-05 0)
(0.000813305 -2.6799e-05 0)
(0.000824678 -2.51796e-05 0)
(0.000835335 -2.35186e-05 0)
(0.000845258 -2.18166e-05 0)
(0.000854429 -2.00748e-05 0)
(0.00086283 -1.82945e-05 0)
(0.000870447 -1.64769e-05 0)
(0.000877261 -1.46232e-05 0)
(0.000883257 -1.27345e-05 0)
(0.000888422 -1.0812e-05 0)
(0.000892739 -8.8573e-06 0)
(0.000896195 -6.87235e-06 0)
(0.000898776 -4.85903e-06 0)
(0.000900468 -2.81918e-06 0)
(0.000901262 -7.54566e-07 0)
(0.000901146 1.33342e-06 0)
(0.00090011 3.44334e-06 0)
(0.000898144 5.57296e-06 0)
(0.000895239 7.71998e-06 0)
(0.00089139 9.88215e-06 0)
(0.00088659 1.20571e-05 0)
(0.000880834 1.42421e-05 0)
(0.00087412 1.64344e-05 0)
(0.000866444 1.86311e-05 0)
(0.000857804 2.08289e-05 0)
(0.000848202 2.30247e-05 0)
(0.000837638 2.52152e-05 0)
(0.000826115 2.73968e-05 0)
(0.000813639 2.95661e-05 0)
(0.000800214 3.17195e-05 0)
(0.000785847 3.38535e-05 0)
(0.000770548 3.5965e-05 0)
(0.000754326 3.80508e-05 0)
(0.000737195 4.01077e-05 0)
(0.000719167 4.21325e-05 0)
(0.000700259 4.41214e-05 0)
(0.000680486 4.60707e-05 0)
(0.000659867 4.79769e-05 0)
(0.000638422 4.98364e-05 0)
(0.000616173 5.16461e-05 0)
(0.000593142 5.34025e-05 0)
(0.000569354 5.51019e-05 0)
(0.000544835 5.67406e-05 0)
(0.000519613 5.83148e-05 0)
(0.000493718 5.98209e-05 0)
(0.00046718 6.12555e-05 0)
(0.000440029 6.26158e-05 0)
(0.000412298 6.38988e-05 0)
(0.000384022 6.51021e-05 0)
(0.000355235 6.62229e-05 0)
(0.000325974 6.72588e-05 0)
(0.000296277 6.82075e-05 0)
(0.000266182 6.90666e-05 0)
(0.000235729 6.98344e-05 0)
(0.000204958 7.05096e-05 0)
(0.000173909 7.10911e-05 0)
(0.000142625 7.15781e-05 0)
(0.000111147 7.19695e-05 0)
(7.95166e-05 7.22641e-05 0)
(4.7778e-05 7.24609e-05 0)
(1.59758e-05 7.25592e-05 0)
(-1.58494e-05 7.25589e-05 0)
(-4.76499e-05 7.24602e-05 0)
(-7.93862e-05 7.22634e-05 0)
(-0.000111015 7.19693e-05 0)
(-0.000142492 7.15784e-05 0)
(-0.000173776 7.10911e-05 0)
(-0.000204825 7.05087e-05 0)
(-0.000235598 6.98319e-05 0)
(-0.000266051 6.90622e-05 0)
(-0.000296146 6.82021e-05 0)
(-0.000325842 6.72537e-05 0)
(-0.000355102 6.62184e-05 0)
(-0.000383888 6.50986e-05 0)
(-0.000412164 6.38971e-05 0)
(-0.000439896 6.26159e-05 0)
(-0.000467048 6.12576e-05 0)
(-0.000493589 5.98254e-05 0)
(-0.000519485 5.83219e-05 0)
(-0.000544706 5.67504e-05 0)
(-0.000569223 5.51142e-05 0)
(-0.00059301 5.34168e-05 0)
(-0.00061604 5.16617e-05 0)
(-0.00063829 4.98524e-05 0)
(-0.000659736 4.79928e-05 0)
(-0.000680357 4.60863e-05 0)
(-0.000700131 4.41369e-05 0)
(-0.000719042 4.21479e-05 0)
(-0.00073707 4.01223e-05 0)
(-0.000754202 3.80641e-05 0)
(-0.000770425 3.59774e-05 0)
(-0.000785726 3.38647e-05 0)
(-0.000800094 3.17293e-05 0)
(-0.000813521 2.95763e-05 0)
(-0.000826001 2.74092e-05 0)
(-0.000837526 2.52299e-05 0)
(-0.000848093 2.30423e-05 0)
(-0.000857698 2.08508e-05 0)
(-0.000866339 1.86575e-05 0)
(-0.000874015 1.64644e-05 0)
(-0.000880728 1.42749e-05 0)
(-0.000886482 1.20919e-05 0)
(-0.000891279 9.91773e-06 0)
(-0.000895126 7.75478e-06 0)
(-0.000898029 5.60542e-06 0)
(-0.000899996 3.47269e-06 0)
(-0.000901034 1.35983e-06 0)
(-0.000901153 -7.31319e-07 0)
(-0.000900364 -2.79904e-06 0)
(-0.000898676 -4.84002e-06 0)
(-0.000896102 -6.85181e-06 0)
(-0.000892653 -8.83297e-06 0)
(-0.000888341 -1.07823e-05 0)
(-0.000883179 -1.26983e-05 0)
(-0.000877182 -1.45796e-05 0)
(-0.000870366 -1.64262e-05 0)
(-0.000862747 -1.8238e-05 0)
(-0.000854342 -2.00136e-05 0)
(-0.000845168 -2.17516e-05 0)
(-0.000835244 -2.34512e-05 0)
(-0.000824587 -2.51112e-05 0)
(-0.000813213 -2.67311e-05 0)
(-0.000801139 -2.831e-05 0)
(-0.000788386 -2.98471e-05 0)
(-0.000774971 -3.13408e-05 0)
(-0.000760911 -3.27911e-05 0)
(-0.000746225 -3.4199e-05 0)
(-0.000730929 -3.55647e-05 0)
(-0.000715043 -3.68872e-05 0)
(-0.000698587 -3.81658e-05 0)
(-0.000681583 -3.94027e-05 0)
(-0.00066405 -4.05971e-05 0)
(-0.000646007 -4.175e-05 0)
(-0.000627476 -4.28597e-05 0)
(-0.000608475 -4.3924e-05 0)
(-0.000589019 -4.4942e-05 0)
(-0.00056912 -4.59155e-05 0)
(-0.000548796 -4.68472e-05 0)
(-0.000528065 -4.7739e-05 0)
(-0.000506952 -4.85917e-05 0)
(-0.000485483 -4.9406e-05 0)
(-0.000463676 -5.01802e-05 0)
(-0.00044155 -5.09125e-05 0)
(-0.000419115 -5.16009e-05 0)
(-0.000396385 -5.22426e-05 0)
(-0.000373377 -5.28381e-05 0)
(-0.000350109 -5.33901e-05 0)
(-0.0003266 -5.39023e-05 0)
(-0.000302871 -5.43817e-05 0)
(-0.000278941 -5.48297e-05 0)
(-0.000254829 -5.52455e-05 0)
(-0.00023055 -5.56269e-05 0)
(-0.000206117 -5.59654e-05 0)
(-0.000181545 -5.62581e-05 0)
(-0.000156854 -5.65085e-05 0)
(-0.000132065 -5.67219e-05 0)
(-0.000107189 -5.68992e-05 0)
(-8.22093e-05 -5.70354e-05 0)
(-5.71624e-05 -5.70719e-05 0)
(-3.2589e-05 -5.62394e-05 0)
(-8.60792e-06 -4.56644e-05 0)
(8.58195e-06 -7.75238e-05 0)
(3.26262e-05 -7.74551e-05 0)
(6.0838e-05 -7.75709e-05 0)
(8.57769e-05 -7.89702e-05 0)
(0.000110457 -8.00721e-05 0)
(0.000134907 -8.06138e-05 0)
(0.000159317 -8.07728e-05 0)
(0.000183699 -8.06919e-05 0)
(0.000208039 -8.04423e-05 0)
(0.00023231 -8.00682e-05 0)
(0.00025648 -7.9596e-05 0)
(0.00028052 -7.90419e-05 0)
(0.000304404 -7.84164e-05 0)
(0.000328107 -7.77258e-05 0)
(0.000351608 -7.69732e-05 0)
(0.000374884 -7.61603e-05 0)
(0.000397916 -7.52878e-05 0)
(0.000420682 -7.43559e-05 0)
(0.000443165 -7.33649e-05 0)
(0.000465343 -7.2315e-05 0)
(0.0004872 -7.12059e-05 0)
(0.000508715 -7.00374e-05 0)
(0.00052987 -6.88089e-05 0)
(0.000550646 -6.75198e-05 0)
(0.000571026 -6.617e-05 0)
(0.00059099 -6.47591e-05 0)
(0.000610519 -6.32871e-05 0)
(0.000629595 -6.17541e-05 0)
(0.000648198 -6.01601e-05 0)
(0.000666309 -5.85047e-05 0)
(0.000683908 -5.6788e-05 0)
(0.000700977 -5.50095e-05 0)
(0.000717495 -5.31692e-05 0)
(0.000733445 -5.1267e-05 0)
(0.000748808 -4.93031e-05 0)
(0.000763563 -4.72778e-05 0)
(0.000777692 -4.51913e-05 0)
(0.000791176 -4.30438e-05 0)
(0.000803994 -4.08357e-05 0)
(0.00081613 -3.85669e-05 0)
(0.000827565 -3.62378e-05 0)
(0.000838281 -3.38493e-05 0)
(0.000848261 -3.14024e-05 0)
(0.000857488 -2.88986e-05 0)
(0.000865944 -2.63395e-05 0)
(0.000873611 -2.37267e-05 0)
(0.000880475 -2.10615e-05 0)
(0.000886519 -1.83456e-05 0)
(0.000891729 -1.5581e-05 0)
(0.000896088 -1.277e-05 0)
(0.000899583 -9.91505e-06 0)
(0.000902199 -7.0187e-06 0)
(0.000903925 -4.0834e-06 0)
(0.000904749 -1.11149e-06 0)
(0.000904659 1.89489e-06 0)
(0.000903646 4.93285e-06 0)
(0.000901699 7.99941e-06 0)
(0.00089881 1.10912e-05 0)
(0.000894971 1.42047e-05 0)
(0.000890178 1.73365e-05 0)
(0.000884426 2.04825e-05 0)
(0.000877709 2.36388e-05 0)
(0.000870027 2.6801e-05 0)
(0.000861376 2.99647e-05 0)
(0.000851757 3.31253e-05 0)
(0.000841171 3.6278e-05 0)
(0.000829623 3.9418e-05 0)
(0.000817114 4.25405e-05 0)
(0.000803653 4.56407e-05 0)
(0.000789245 4.87135e-05 0)
(0.000773899 5.17543e-05 0)
(0.000757626 5.47585e-05 0)
(0.000740438 5.77211e-05 0)
(0.000722349 6.06369e-05 0)
(0.000703374 6.35009e-05 0)
(0.000683529 6.63079e-05 0)
(0.000662834 6.90531e-05 0)
(0.000641307 7.17315e-05 0)
(0.000618971 7.43381e-05 0)
(0.000595849 7.68676e-05 0)
(0.000571964 7.93147e-05 0)
(0.000547344 8.1674e-05 0)
(0.000522016 8.39403e-05 0)
(0.000496009 8.61087e-05 0)
(0.000469355 8.81745e-05 0)
(0.000442085 9.01334e-05 0)
(0.00041423 9.19812e-05 0)
(0.000385827 9.3714e-05 0)
(0.000356909 9.53279e-05 0)
(0.000327514 9.68194e-05 0)
(0.00029768 9.81853e-05 0)
(0.000267445 9.94228e-05 0)
(0.000236849 0.000100529 0)
(0.000205935 0.000101503 0)
(0.000174741 0.000102343 0)
(0.00014331 0.000103045 0)
(0.000111683 0.000103609 0)
(7.99026e-05 0.000104034 0)
(4.8013e-05 0.000104318 0)
(1.60596e-05 0.00010446 0)
(-1.5917e-05 0.000104461 0)
(-4.78686e-05 0.00010432 0)
(-7.97555e-05 0.000104037 0)
(-0.000111534 0.000103613 0)
(-0.00014316 0.00010305 0)
(-0.000174592 0.000102347 0)
(-0.000205788 0.000101507 0)
(-0.000236704 0.000100532 0)
(-0.0002673 9.94241e-05 0)
(-0.000297533 9.81853e-05 0)
(-0.000327366 9.68189e-05 0)
(-0.000356759 9.53274e-05 0)
(-0.000385675 9.37137e-05 0)
(-0.000414078 9.1982e-05 0)
(-0.000441933 9.01359e-05 0)
(-0.000469205 8.81791e-05 0)
(-0.00049586 8.61157e-05 0)
(-0.000521867 8.39502e-05 0)
(-0.000547195 8.16872e-05 0)
(-0.000571814 7.9331e-05 0)
(-0.000595698 7.68865e-05 0)
(-0.000618821 7.43586e-05 0)
(-0.000641158 7.17527e-05 0)
(-0.000662686 6.90742e-05 0)
(-0.000683383 6.6328e-05 0)
(-0.000703229 6.35196e-05 0)
(-0.000722206 6.06545e-05 0)
(-0.000740296 5.77373e-05 0)
(-0.000757484 5.47727e-05 0)
(-0.000773758 5.17665e-05 0)
(-0.000789105 4.87236e-05 0)
(-0.000803514 4.56486e-05 0)
(-0.000816976 4.25472e-05 0)
(-0.000829486 3.94254e-05 0)
(-0.000841036 3.62872e-05 0)
(-0.000851622 3.3137e-05 0)
(-0.000861242 2.99802e-05 0)
(-0.000869893 2.68212e-05 0)
(-0.000877576 2.3663e-05 0)
(-0.000884291 2.05098e-05 0)
(-0.000890042 1.73665e-05 0)
(-0.000894833 1.42365e-05 0)
(-0.000898669 1.11235e-05 0)
(-0.000901557 8.03128e-06 0)
(-0.000903505 4.9636e-06 0)
(-0.00090452 1.9243e-06 0)
(-0.000904613 -1.08347e-06 0)
(-0.000903792 -4.05752e-06 0)
(-0.000902069 -6.99374e-06 0)
(-0.000899457 -9.88898e-06 0)
(-0.000895966 -1.27408e-05 0)
(-0.00089161 -1.55469e-05 0)
(-0.000886401 -1.83054e-05 0)
(-0.000880356 -2.10149e-05 0)
(-0.00087349 -2.36741e-05 0)
(-0.000865819 -2.6282e-05 0)
(-0.000857359 -2.88374e-05 0)
(-0.00084813 -3.1339e-05 0)
(-0.000838148 -3.3785e-05 0)
(-0.00082743 -3.61731e-05 0)
(-0.000815995 -3.85029e-05 0)
(-0.000803859 -4.07742e-05 0)
(-0.000791041 -4.29852e-05 0)
(-0.00077756 -4.51345e-05 0)
(-0.000763434 -4.72217e-05 0)
(-0.000748681 -4.92476e-05 0)
(-0.000733317 -5.12117e-05 0)
(-0.000717361 -5.31131e-05 0)
(-0.000700836 -5.49528e-05 0)
(-0.000683762 -5.67295e-05 0)
(-0.000666158 -5.84439e-05 0)
(-0.000648045 -6.00972e-05 0)
(-0.000629442 -6.16884e-05 0)
(-0.000610367 -6.32161e-05 0)
(-0.000590837 -6.46789e-05 0)
(-0.000570866 -6.60794e-05 0)
(-0.000550471 -6.74187e-05 0)
(-0.000529669 -6.86993e-05 0)
(-0.000508486 -6.99238e-05 0)
(-0.000486945 -7.10897e-05 0)
(-0.000465066 -7.2196e-05 0)
(-0.000442864 -7.32429e-05 0)
(-0.000420352 -7.42277e-05 0)
(-0.000397545 -7.51508e-05 0)
(-0.000374462 -7.60134e-05 0)
(-0.000351121 -7.68176e-05 0)
(-0.000327545 -7.75672e-05 0)
(-0.000303751 -7.8266e-05 0)
(-0.000279757 -7.89156e-05 0)
(-0.000255577 -7.95139e-05 0)
(-0.000231224 -8.00561e-05 0)
(-0.000206711 -8.05362e-05 0)
(-0.000182061 -8.09514e-05 0)
(-0.000157296 -8.13079e-05 0)
(-0.000132436 -8.16128e-05 0)
(-0.000107489 -8.18631e-05 0)
(-8.24458e-05 -8.2056e-05 0)
(-5.7339e-05 -8.21296e-05 0)
(-3.27151e-05 -8.09649e-05 0)
(-8.64879e-06 -6.57625e-05 0)
(8.22806e-06 -9.63286e-05 0)
(3.16005e-05 -0.000103711 0)
(5.91156e-05 -0.000103521 0)
(8.46185e-05 -0.000104277 0)
(0.000109794 -0.000104973 0)
(0.000134664 -0.000105312 0)
(0.000159357 -0.000105361 0)
(0.000183935 -0.00010519 0)
(0.000208427 -0.000104845 0)
(0.000232819 -0.00010436 0)
(0.00025709 -0.000103757 0)
(0.000281219 -0.000103051 0)
(0.000305183 -0.000102253 0)
(0.000328962 -0.000101368 0)
(0.000352535 -0.000100399 0)
(0.000375882 -9.93507e-05 0)
(0.000398983 -9.82226e-05 0)
(0.00042182 -9.70161e-05 0)
(0.000444371 -9.57317e-05 0)
(0.000466619 -9.43696e-05 0)
(0.000488545 -9.29297e-05 0)
(0.00051013 -9.14116e-05 0)
(0.000531355 -8.98147e-05 0)
(0.000552203 -8.81386e-05 0)
(0.000572654 -8.6383e-05 0)
(0.000592689 -8.45476e-05 0)
(0.00061229 -8.26323e-05 0)
(0.000631437 -8.06369e-05 0)
(0.000650112 -7.85611e-05 0)
(0.000668295 -7.64048e-05 0)
(0.000685966 -7.41676e-05 0)
(0.000703107 -7.18493e-05 0)
(0.000719698 -6.94499e-05 0)
(0.00073572 -6.69694e-05 0)
(0.000751154 -6.44078e-05 0)
(0.000765981 -6.17656e-05 0)
(0.000780182 -5.9043e-05 0)
(0.000793736 -5.62405e-05 0)
(0.000806625 -5.33585e-05 0)
(0.000818831 -5.03973e-05 0)
(0.000830335 -4.73577e-05 0)
(0.00084112 -4.42408e-05 0)
(0.000851167 -4.1048e-05 0)
(0.000860459 -3.77811e-05 0)
(0.000868978 -3.44419e-05 0)
(0.000876707 -3.1032e-05 0)
(0.000883631 -2.75535e-05 0)
(0.000889732 -2.40085e-05 0)
(0.000894997 -2.03997e-05 0)
(0.000899409 -1.67298e-05 0)
(0.000902953 -1.3002e-05 0)
(0.000905616 -9.21933e-06 0)
(0.000907386 -5.38475e-06 0)
(0.000908251 -1.50139e-06 0)
(0.0009082 2.42697e-06 0)
(0.000907221 6.39658e-06 0)
(0.000905304 1.04036e-05 0)
(0.000902442 1.44435e-05 0)
(0.000898626 1.85118e-05 0)
(0.000893851 2.26038e-05 0)
(0.000888112 2.67144e-05 0)
(0.000881404 3.08383e-05 0)
(0.000873725 3.49699e-05 0)
(0.000865072 3.91034e-05 0)
(0.000855446 4.32328e-05 0)
(0.000844848 4.73521e-05 0)
(0.000833281 5.14555e-05 0)
(0.000820749 5.55367e-05 0)
(0.000807258 5.95894e-05 0)
(0.000792815 6.36072e-05 0)
(0.000777429 6.75836e-05 0)
(0.00076111 7.15123e-05 0)
(0.00074387 7.53866e-05 0)
(0.000725722 7.91998e-05 0)
(0.000706683 8.29452e-05 0)
(0.000686769 8.66164e-05 0)
(0.000665998 9.02069e-05 0)
(0.000644391 9.37101e-05 0)
(0.000621967 9.71188e-05 0)
(0.000598751 0.000100426 0)
(0.000574767 0.000103625 0)
(0.000550041 0.000106709 0)
(0.000524601 0.000109671 0)
(0.000498478 0.000112505 0)
(0.000471701 0.000115206 0)
(0.000444304 0.000117767 0)
(0.000416317 0.000120182 0)
(0.000387777 0.000122447 0)
(0.000358719 0.000124557 0)
(0.000329179 0.000126508 0)
(0.000299197 0.000128295 0)
(0.000268812 0.000129916 0)
(0.000238063 0.000131366 0)
(0.000206993 0.000132642 0)
(0.000175641 0.000133742 0)
(0.000144049 0.000134662 0)
(0.00011226 0.000135401 0)
(8.03163e-05 0.000135957 0)
(4.82625e-05 0.000136329 0)
(1.61442e-05 0.000136517 0)
(-1.59976e-05 0.000136518 0)
(-4.81146e-05 0.000136334 0)
(-8.01664e-05 0.000135964 0)
(-0.000112108 0.000135409 0)
(-0.000143898 0.000134672 0)
(-0.000175491 0.000133753 0)
(-0.000206845 0.000132654 0)
(-0.000237917 0.000131378 0)
(-0.000268666 0.000129929 0)
(-0.000299051 0.000128308 0)
(-0.000329031 0.00012652 0)
(-0.000358568 0.000124568 0)
(-0.000387624 0.000122456 0)
(-0.000416163 0.00012019 0)
(-0.000444149 0.000117774 0)
(-0.000471547 0.000115214 0)
(-0.000498324 0.000112515 0)
(-0.000524448 0.000109683 0)
(-0.000549887 0.000106723 0)
(-0.000574612 0.000103642 0)
(-0.000598597 0.000100445 0)
(-0.000621814 9.71388e-05 0)
(-0.000644239 9.37309e-05 0)
(-0.00066585 9.02282e-05 0)
(-0.000686623 8.66375e-05 0)
(-0.000706539 8.29654e-05 0)
(-0.000725579 7.92192e-05 0)
(-0.000743728 7.54055e-05 0)
(-0.000760969 7.15297e-05 0)
(-0.000777289 6.75989e-05 0)
(-0.000792676 6.36206e-05 0)
(-0.00080712 5.96012e-05 0)
(-0.00082061 5.55471e-05 0)
(-0.000833142 5.14658e-05 0)
(-0.000844709 4.7364e-05 0)
(-0.000855307 4.32468e-05 0)
(-0.000864933 3.91201e-05 0)
(-0.000873586 3.49902e-05 0)
(-0.000881265 3.08622e-05 0)
(-0.000887972 2.67413e-05 0)
(-0.00089371 2.26335e-05 0)
(-0.000898483 1.85435e-05 0)
(-0.000902298 1.44763e-05 0)
(-0.00090516 1.04372e-05 0)
(-0.000907077 6.43067e-06 0)
(-0.000908058 2.46078e-06 0)
(-0.000908113 -1.46785e-06 0)
(-0.000907251 -5.35156e-06 0)
(-0.000905484 -9.18627e-06 0)
(-0.000902822 -1.29681e-05 0)
(-0.00089928 -1.66937e-05 0)
(-0.00089487 -2.03596e-05 0)
(-0.000889606 -2.39638e-05 0)
(-0.000883503 -2.75045e-05 0)
(-0.000876578 -3.09792e-05 0)
(-0.000868846 -3.43864e-05 0)
(-0.000860325 -3.77247e-05 0)
(-0.000851031 -4.09923e-05 0)
(-0.000840983 -4.41858e-05 0)
(-0.000830198 -4.73033e-05 0)
(-0.000818694 -5.03441e-05 0)
(-0.000806489 -5.33083e-05 0)
(-0.0007936 -5.61931e-05 0)
(-0.000780047 -5.89977e-05 0)
(-0.000765849 -6.17214e-05 0)
(-0.000751023 -6.4363e-05 0)
(-0.000735586 -6.69239e-05 0)
(-0.000719558 -6.9403e-05 0)
(-0.00070296 -7.18017e-05 0)
(-0.000685812 -7.41176e-05 0)
(-0.000668135 -7.63526e-05 0)
(-0.00064995 -7.85078e-05 0)
(-0.000631274 -8.05812e-05 0)
(-0.000612125 -8.25729e-05 0)
(-0.000592521 -8.44816e-05 0)
(-0.000572478 -8.63076e-05 0)
(-0.000552011 -8.80536e-05 0)
(-0.000531142 -8.97224e-05 0)
(-0.000509891 -9.13149e-05 0)
(-0.00048828 -9.28315e-05 0)
(-0.000466331 -9.42717e-05 0)
(-0.000444059 -9.56343e-05 0)
(-0.000421477 -9.69198e-05 0)
(-0.0003986 -9.81297e-05 0)
(-0.000375449 -9.92628e-05 0)
(-0.000352043 -0.000100321 0)
(-0.000328403 -0.000101308 0)
(-0.000304548 -0.000102223 0)
(-0.000280491 -0.000103069 0)
(-0.000256245 -0.000103842 0)
(-0.000231822 -0.000104537 0)
(-0.000207236 -0.000105153 0)
(-0.000182515 -0.000105692 0)
(-0.000157687 -0.000106161 0)
(-0.000132766 -0.000106568 0)
(-0.000107755 -0.000106903 0)
(-8.26568e-05 -0.00010716 0)
(-5.75054e-05 -0.000107253 0)
(-3.28298e-05 -0.000105731 0)
(-8.69034e-06 -8.59175e-05 0)
(8.15746e-06 -0.000115348 0)
(3.1491e-05 -0.000129623 0)
(5.83004e-05 -0.000129592 0)
(8.40236e-05 -0.000129841 0)
(0.000109437 -0.000130144 0)
(0.000134559 -0.000130257 0)
(0.000159477 -0.000130158 0)
(0.00018425 -0.00012986 0)
(0.000208903 -0.000129389 0)
(0.00023343 -0.00012877 0)