/*--------------------------------*- C++ -*----------------------------------*\
| =========                 |                                                 |
| \\      /  F ield         | OpenFOAM: The Open Source CFD Toolbox           |
|  \\    /   O peration     | Version:  2412                                  |
|   \\  /    A nd           | Website:  www.openfoam.com                      |
|    \\/     M anipulation  |                                                 |
\*---------------------------------------------------------------------------*/
FoamFile
{
    version     2.0;
    format      ascii;
    arch        "LSB;label=32;scalar=64";
    class       surfaceScalarField;
    location    "1.12";
    object      alphaPhi0.water;
}
// * * * * * * * * * * * * * * * * * * * * * * * * * * * * * * * * * * * * * //

dimensions      [0 3 -1 0 0 0 0];

oriented        oriented;

internalField   nonuniform List<scalar> 
79600
(
1.40578e-203
-6.46384e-200
3.89648e-194
-8.00127e-191
3.73203e-193
-4.74342e-190
6.35795e-193
-5.74796e-190
8.30113e-193
-5.79056e-190
9.65806e-193
-5.48209e-190
1.04375e-192
-4.99826e-190
1.06891e-192
-4.4312e-190
1.04771e-192
-3.83297e-190
9.88905e-193
-3.24039e-190
9.01456e-193
-2.67706e-190
7.94647e-193
-2.15946e-190
6.77885e-193
-1.6993e-190
5.59641e-193
-1.30293e-190
4.46977e-193
-9.72168e-191
3.45132e-193
-7.04867e-191
2.57389e-193
-4.9584e-191
1.85206e-193
-3.37902e-191
1.2843e-193
-2.22729e-191
8.57141e-194
-1.41772e-191
5.49784e-194
-8.69963e-192
3.38396e-194
-5.13759e-192
1.99519e-194
-2.91422e-192
1.12426e-194
-1.58383e-192
6.03451e-195
-8.21866e-193
3.07074e-195
-4.05152e-193
1.47251e-195
-1.88552e-193
6.60116e-196
-8.21537e-194
2.74398e-196
-3.32316e-194
1.05046e-196
-1.23933e-194
3.68732e-197
-4.24279e-195
1.18512e-197
-1.33178e-195
3.49278e-198
-3.84014e-196
9.44951e-199
-1.01859e-196
2.33057e-199
-2.46721e-197
5.13297e-200
-5.33874e-198
9.8556e-201
-1.00638e-198
1.62871e-201
-1.63149e-199
2.32155e-202
-2.28155e-200
2.87152e-203
-2.77102e-201
3.04949e-204
-2.88756e-202
2.72265e-205
-2.52185e-203
2.02024e-206
-1.8231e-204
1.24427e-207
-1.08925e-205
6.3612e-209
-5.37165e-207
2.70048e-210
-2.18297e-208
9.54045e-212
-7.31e-210
2.81617e-213
-2.01957e-211
6.97944e-215
-4.60765e-213
1.45868e-216
-8.66291e-215
2.57655e-218
-1.32861e-216
3.83647e-220
-1.6116e-218
4.75326e-222
-1.3996e-220
4.71242e-224
-4.80293e-223
4.20485e-226
2.82454e-229
3.71515e-228
6.34982e-231
3.24756e-230
8.96223e-233
2.80679e-232
1.07409e-234
2.3968e-234
1.17772e-236
2.02071e-236
1.21716e-238
1.68067e-238
1.20315e-240
1.37786e-240
1.14677e-242
1.11247e-242
1.05893e-244
8.8373e-245
9.50024e-247
6.90023e-247
8.29459e-249
5.29004e-249
7.05405e-251
3.97756e-251
5.84549e-253
2.92967e-253
4.71985e-255
2.11114e-255
3.71206e-257
1.48638e-257
2.84203e-259
1.02104e-259
2.11658e-261
6.83286e-262
1.53185e-263
4.44748e-264
1.0762e-265
2.81086e-266
7.33003e-268
1.72182e-268
4.8332e-270
1.02028e-270
3.08025e-272
5.83618e-273
1.89408e-274
3.21545e-275
1.1216e-276
1.70218e-277
6.38269e-279
8.63535e-280
3.48253e-281
4.18623e-282
1.81729e-283
1.93317e-284
9.04449e-286
8.47466e-287
4.28006e-288
3.51328e-289
1.91934e-290
1.37145e-291
8.12557e-293
5.01684e-294
3.23385e-295
1.71031e-296
1.20413e-297
5.39973e-299
4.17208e-300
1.56723e-301
1.33669e-302
4.14556e-304
3.93125e-305
9.88997e-307
1.05221e-307
2.10089e-309
2.53644e-310
3.9102e-312
5.43677e-313
6.24386e-315
1.01965e-315
8.31301e-318
1.63845e-318
8.85366e-321
2.19365e-321
4.94066e-324
0
0
0
0
0
0
0
0
0
0
0
-1.4822e-323
0
-1.94168e-320
4.94066e-324
-1.77767e-317
4.80232e-321
-1.30329e-314
3.5018e-318
-7.97372e-312
2.12736e-315
-4.18894e-309
1.10825e-312
-1.92965e-306
5.05567e-310
-7.92093e-304
2.05235e-307
-2.93459e-301
7.50934e-305
-9.91544e-299
2.50228e-302
-3.08196e-296
7.65941e-300
-8.87711e-294
2.16941e-297
-2.38438e-291
5.72122e-295
-6.00498e-289
1.4125e-292
-1.42483e-286
3.2802e-290
-3.19874e-284
7.19524e-288
-6.82043e-282
1.49641e-285
-1.38596e-279
2.96059e-283
-2.69243e-277
5.58904e-281
-5.01448e-275
1.00954e-278
-8.97686e-273
1.74909e-276
-1.54839e-270
2.91335e-274
-2.57901e-268
4.67473e-272
-4.1566e-266
7.23975e-270
-6.49483e-264
1.08404e-267
-9.85648e-262
1.57182e-265
-1.45522e-259
2.21006e-263
-2.09353e-257
3.01715e-261
-2.93913e-255
4.00374e-259
-4.03237e-253
5.16938e-257
-5.41356e-251
6.49878e-255
-7.12093e-249
7.95949e-253
-9.1885e-247
9.50103e-251
-1.16439e-244
1.10538e-248
-1.45069e-242
1.25298e-246
-1.77874e-240
1.3826e-244
-2.14853e-238
1.48268e-242
-2.55894e-236
1.54097e-240
-3.00781e-234
1.5449e-238
-3.49195e-232
1.48203e-236
-4.00732e-230
1.34064e-234
-4.54907e-228
1.11042e-232
-5.11176e-226
7.82138e-231
-5.68948e-224
3.47809e-229
-5.70742e-222
-5.68595e-223
-4.5721e-220
-1.67516e-220
-3.04291e-218
-1.91931e-218
-1.70509e-216
-1.56962e-216
-8.0666e-215
-1.01352e-214
-3.21509e-213
-5.33133e-213
-1.07511e-211
-2.30819e-211
-3.00272e-210
-8.2451e-210
-6.97949e-209
-2.42879e-208
-1.34784e-207
-5.89557e-207
-2.16251e-206
-1.17995e-205
-2.88284e-205
-1.95113e-204
-3.19769e-204
-2.6693e-203
-2.98677e-203
-3.02631e-202
-2.39855e-202
-2.88047e-201
-1.67255e-201
-2.35572e-200
-1.00641e-200
-1.67431e-199
-5.21621e-200
-1.02695e-198
-2.35931e-199
-5.42125e-198
-9.53687e-199
-2.49568e-197
-3.5165e-198
-1.02717e-196
-1.19066e-197
-3.86298e-196
-3.69775e-197
-1.33683e-195
-1.05179e-196
-4.25087e-195
-2.74401e-196
-1.23967e-194
-6.5941e-196
-3.31966e-194
-1.46948e-195
-8.1972e-194
-3.06144e-195
-1.87934e-193
-6.01048e-195
-4.03401e-193
-1.11885e-194
-8.17454e-193
-1.98449e-194
-1.57383e-192
-3.36509e-194
-2.89375e-192
-5.46763e-194
-5.09953e-192
-8.52673e-194
-8.6341e-192
-1.27806e-193
-1.4071e-191
-1.84365e-193
-2.21081e-191
-2.56282e-193
-3.35404e-191
-3.43718e-193
-4.92118e-191
-4.45276e-193
-6.99434e-191
-5.57802e-193
-9.64473e-191
-6.76247e-193
-1.29248e-190
-7.93773e-193
-1.68579e-190
-9.02164e-193
-2.14294e-190
-9.92364e-193
-2.65811e-190
-1.05537e-192
-3.2206e-190
-1.08321e-192
-3.81517e-190
-1.06982e-192
-4.42292e-190
-1.01169e-192
-5.0224e-190
-9.07246e-193
-5.59076e-190
-7.49728e-193
-6.09766e-190
-4.81289e-193
-6.4332e-190
-4.85412e-194
-5.70384e-190
-8.3872e-204
-9.21598e-191
-3.92556e-200
1.01247e-199
-2.92666e-196
2.29202e-190
-2.87201e-187
1.89969e-189
-1.53391e-186
2.97995e-189
-1.76412e-186
3.72457e-189
-1.73602e-186
4.25737e-189
-1.63514e-186
4.58097e-189
-1.49595e-186
4.69758e-189
-1.33464e-186
4.62477e-189
-1.16339e-186
4.39057e-189
-9.9151e-187
4.0294e-189
-8.26039e-187
3.57934e-189
-6.72275e-187
3.07949e-189
-5.34029e-187
2.56612e-189
-4.13592e-187
2.07043e-189
-3.11921e-187
1.61641e-189
-2.28768e-187
1.22e-189
-1.62925e-187
8.8933e-190
-1.12511e-187
6.25421e-190
-7.5228e-188
4.23792e-190
-4.86258e-188
2.76328e-190
-3.03371e-188
1.7313e-190
-1.82389e-188
1.04056e-190
-1.05472e-188
5.98603e-191
-5.8525e-189
3.28524e-191
-3.10523e-189
1.71183e-191
-1.56742e-189
8.41749e-192
-7.47909e-190
3.87438e-192
-3.345e-190
1.65557e-192
-1.3904e-190
6.52368e-193
-5.33448e-191
2.36074e-193
-1.88148e-191
7.83779e-194
-6.09626e-192
2.3925e-194
-1.81936e-192
6.72558e-195
-5.01088e-193
1.72885e-195
-1.26394e-193
3.97682e-196
-2.85257e-194
7.98517e-197
-5.61117e-195
1.38223e-197
-9.50073e-196
2.06991e-198
-1.39133e-196
2.70135e-199
-1.77683e-197
3.03708e-200
-1.95137e-198
2.87563e-201
-1.79539e-199
2.26691e-202
-1.3666e-200
1.48739e-203
-8.60042e-202
8.12518e-205
-4.46672e-203
3.69735e-206
-1.90932e-204
1.40555e-207
-6.71243e-206
4.48833e-209
-1.94297e-207
1.21281e-210
-4.63609e-209
2.79625e-212
-9.10568e-211
5.54801e-214
-1.45913e-212
9.54956e-216
-1.85447e-214
1.43603e-217
-1.70482e-216
1.89643e-219
-6.70019e-219
2.36446e-221
2.5176e-224
2.91146e-223
8.24594e-226
3.53865e-225
1.63696e-227
4.24315e-227
2.73678e-229
5.01667e-229
4.16806e-231
5.84453e-231
5.96499e-233
6.70496e-233
8.14501e-235
7.56896e-235
1.07013e-236
8.40091e-237
1.35957e-238
9.16e-239
1.6753e-240
9.80274e-241
2.00582e-242
1.02863e-242
2.33583e-244
1.05724e-244
2.64694e-246
1.06318e-246
2.91893e-248
1.04484e-248
3.13168e-250
1.00218e-250
3.2673e-252
9.36941e-253
3.31249e-254
8.52563e-255
3.26052e-256
7.53911e-257
3.11264e-258
6.46815e-259
2.87839e-260
5.37456e-261
2.57485e-262
4.31706e-263
2.22468e-264
3.34528e-265
1.85338e-266
2.49531e-267
1.48604e-268
1.78743e-269
1.1444e-270
1.22638e-271
8.44556e-273
8.03679e-274
5.95807e-275
5.01486e-276
4.00702e-277
2.96937e-278
2.56133e-279
1.66207e-280
1.55089e-281
8.75714e-283
8.86232e-284
4.32235e-285
4.75924e-286
1.98768e-287
2.39051e-288
8.46279e-290
1.11699e-290
3.31158e-292
4.82505e-293
1.18074e-294
1.91284e-295
3.79614e-297
6.89975e-298
1.08655e-299
2.24106e-300
2.72442e-302
6.47133e-303
5.86005e-305
1.6348e-305
1.05084e-307
3.53799e-308
1.50762e-310
6.37505e-311
1.62176e-313
9.17829e-314
1.16237e-316
9.89493e-317
4.163e-320
7.09824e-320
0
2.47033e-323
-7.75288e-320
4.94066e-323
-2.14017e-316
1.32474e-319
-2.94951e-313
1.82377e-316
-2.70793e-310
1.67041e-313
-1.8641e-307
1.14566e-310
-1.02674e-304
6.27877e-308
-4.71538e-302
2.86536e-305
-1.85797e-299
1.12039e-302
-6.41423e-297
3.83314e-300
-1.9717e-294
1.1661e-297
-5.46615e-292
3.1949e-295
-1.381e-289
7.9659e-293
-3.2073e-287
1.82312e-290
-6.89762e-285
3.85801e-288
-1.38231e-282
7.59618e-286
-2.59557e-280
1.39916e-283
-4.58841e-278
2.42236e-281
-7.66908e-276
3.95853e-279
-1.21654e-273
6.12881e-277
-1.83778e-271
9.02032e-275
-2.65211e-269
1.26584e-272
-3.66645e-267
1.69836e-270
-4.86829e-265
2.18396e-268
-6.2232e-263
2.69775e-266
-7.67552e-261
3.20767e-264
-9.15249e-259
3.67804e-262
-1.05712e-256
4.07395e-260
-1.18475e-254
4.36567e-258
-1.2905e-252
4.53232e-256
-1.3683e-250
4.56404e-254
-1.41423e-248
4.46262e-252
-1.42678e-246
4.24064e-250
-1.40685e-244
3.91906e-248
-1.35739e-242
3.52413e-246
-1.28297e-240
3.08429e-244
-1.18916e-238
2.62708e-242
-1.08194e-236
2.17674e-240
-9.67181e-235
1.75275e-238
-8.50229e-233
1.3691e-236
-7.35596e-231
1.03431e-234
-6.26828e-229
7.52027e-233
-5.26465e-227
5.21844e-231
-4.361e-225
3.40378e-229
-3.56498e-223
2.02339e-227
-2.87751e-221
1.01408e-225
-2.29444e-219
3.09504e-224
-1.72766e-217
-8.04521e-219
-1.14081e-215
-2.05769e-216
-6.57198e-214
-2.22614e-214
-3.28002e-212
-1.7375e-212
-1.40697e-210
-1.07358e-210
-5.14371e-209
-5.40388e-209
-1.58978e-207
-2.23596e-207
-4.12519e-206
-7.61831e-206
-8.94184e-205
-2.13593e-204
-1.61539e-203
-4.92518e-203
-2.43197e-202
-9.3529e-202
-3.05064e-201
-1.46738e-200
-3.18969e-200
-1.90567e-199
-2.81342e-199
-2.0499e-198
-2.14101e-198
-1.85065e-197
-1.42094e-197
-1.43913e-196
-8.16208e-197
-9.76661e-196
-4.04512e-196
-5.735e-195
-1.75184e-195
-2.90111e-194
-6.79456e-195
-1.28051e-193
-2.41128e-194
-5.06125e-193
-7.8827e-194
-1.83329e-192
-2.36983e-193
-6.12994e-192
-6.53815e-193
-1.88831e-191
-1.65701e-192
-5.34498e-191
-3.87345e-192
-1.39123e-190
-8.40775e-192
-3.34319e-190
-1.70849e-191
-7.46797e-190
-3.27641e-191
-1.5638e-189
-5.96629e-191
-3.09569e-189
-1.03671e-190
-5.83071e-189
-1.72457e-190
-1.05033e-188
-2.75259e-190
-1.81585e-188
-4.22221e-190
-3.0202e-188
-6.23257e-190
-4.84133e-188
-8.86518e-190
-7.49109e-188
-1.21658e-189
-1.1206e-187
-1.61255e-189
-1.62312e-187
-2.06664e-189
-2.27977e-187
-2.56345e-189
-3.10971e-187
-3.0796e-189
-4.12586e-187
-3.58484e-189
-5.33193e-187
-4.04381e-189
-6.72057e-187
-4.41847e-189
-8.27214e-187
-4.67194e-189
-9.95321e-187
-4.77202e-189
-1.17186e-186
-4.69474e-189
-1.35132e-186
-4.42705e-189
-1.52757e-186
-3.96402e-189
-1.6942e-186
-3.27827e-189
-1.84299e-186
-2.11929e-189
-1.94307e-186
-2.23309e-190
-1.73176e-186
-5.5407e-200
-2.91882e-187
-1.80963e-196
1.77739e-196
-5.06977e-193
3.2853e-187
-3.82504e-184
2.65373e-186
-1.96709e-183
4.05947e-186
-2.20533e-183
4.98644e-186
-2.13786e-183
5.6565e-186
-2.00329e-183
6.07711e-186
-1.83364e-183
6.24422e-186
-1.64168e-183
6.17281e-186
-1.43857e-183
5.89254e-186
-1.23384e-183
5.44337e-186
-1.03536e-183
4.87174e-186
-8.49398e-184
4.22662e-186
-6.80672e-184
3.55464e-186
-5.32222e-184
2.89708e-186
-4.0557e-184
2.28676e-186
-3.00809e-184
1.74666e-186
-2.16847e-184
1.28978e-186
-1.51725e-184
9.19805e-187
-1.02895e-184
6.32762e-187
-6.75353e-185
4.19384e-187
-4.28377e-185
2.67445e-187
-2.62193e-185
1.63841e-187
-1.5458e-185
9.62123e-188
-8.75794e-186
5.39809e-188
-4.75169e-186
2.87961e-188
-2.4561e-186
1.45154e-188
-1.20167e-186
6.85692e-189
-5.51694e-187
3.01043e-189
-2.35647e-187
1.2202e-189
-9.30105e-188
4.54849e-190
-3.37975e-188
1.55862e-190
-1.13047e-188
4.92353e-191
-3.49246e-189
1.43693e-191
-9.9908e-190
3.84599e-192
-2.62529e-190
9.22587e-193
-6.18115e-191
1.93282e-193
-1.26886e-191
3.49389e-194
-2.24394e-192
5.47825e-195
-3.44202e-193
7.51606e-196
-4.62453e-194
8.90366e-197
-5.35498e-195
8.87893e-198
-5.19056e-196
7.36756e-199
-4.1593e-197
5.09008e-200
-2.75702e-198
2.92715e-201
-1.50758e-199
1.40035e-202
-6.77233e-201
5.58534e-204
-2.49516e-202
1.86713e-205
-7.5446e-204
5.27068e-207
-1.87407e-205
1.26749e-208
-3.819e-207
2.62107e-210
-6.33021e-209
4.70509e-212
-8.30431e-211
7.39914e-214
-7.88733e-213
1.02812e-215
-3.30437e-215
1.34971e-217
2.12866e-220
1.74808e-219
7.5154e-222
2.23256e-221
1.57682e-223
2.81046e-223
2.77501e-225
3.48551e-225
4.44005e-227
4.25623e-227
6.66693e-229
5.11427e-229
9.54173e-231
6.04285e-231
1.31287e-232
7.01579e-233
1.74545e-234
7.99711e-235
2.2492e-236
8.94195e-237
2.81443e-238
9.79857e-239
3.42339e-240
1.0512e-240
4.04995e-242
1.10289e-242
4.66029e-244
1.1303e-244
5.21499e-246
1.13015e-246
5.67244e-248
1.10098e-248
5.99334e-250
1.04356e-250
6.14573e-252
9.60914e-253
6.1099e-254
8.58184e-255
5.88206e-256
7.42075e-257
5.47609e-258
6.20118e-259
4.92266e-260
4.99786e-261
4.26571e-262
3.87642e-263
3.55665e-264
2.88661e-265
2.84752e-266
2.05845e-267
2.18421e-268
1.40173e-269
1.60124e-270
9.08699e-272
1.11884e-272
5.58889e-274
7.42892e-275
3.24887e-276
4.67174e-277
1.77745e-278
2.77211e-279
9.10838e-281
1.5456e-281
4.34802e-283
8.05907e-284
1.92141e-285
3.90857e-286
7.80281e-288
1.75222e-288
2.88686e-290
7.20824e-291
9.62996e-293
2.69774e-293
2.85955e-295
9.09054e-296
7.43786e-298
2.72307e-298
1.65946e-300
7.13544e-301
3.08649e-303
1.60166e-303
4.59269e-306
2.99312e-306
5.12398e-309
4.46901e-309
3.80931e-312
4.99654e-312
1.41575e-315
3.71759e-315
1.11165e-321
1.38101e-318
-2.54428e-315
2.51212e-318
-6.79263e-312
6.70937e-315
-9.04776e-309
8.92853e-312
-8.02582e-306
7.90233e-309
-5.33681e-303
5.23607e-306
-2.83886e-300
2.77174e-303
-1.25889e-297
1.22153e-300
-4.7887e-295
4.61171e-298
-1.59572e-292
1.52314e-295
-4.73375e-290
4.47236e-293
-1.26626e-287
1.18249e-290
-3.08628e-285
2.84468e-288
-6.9135e-283
6.28051e-286
-1.43382e-280
1.28187e-283
-2.77046e-278
2.43386e-281
-5.01467e-276
4.32216e-279
-8.54374e-274
7.21309e-277
-1.37598e-271
1.13599e-274
-2.10272e-269
1.69466e-272
-3.05941e-267
2.40268e-270
-4.25128e-265
3.24726e-268
-5.65784e-263
4.19494e-266
-7.23012e-261
5.19267e-264
-8.89259e-259
6.17279e-262
-1.05498e-256
7.0613e-260
-1.20968e-254
7.78756e-258
-1.34311e-252
8.29387e-256
-1.44654e-250
8.54293e-254
-1.51364e-248
8.52199e-252
-1.54116e-246
8.24287e-250
-1.52905e-244
7.73864e-248
-1.48019e-242
7.05788e-246
-1.39983e-240
6.25759e-244
-1.29478e-238
5.39592e-242
-1.17261e-236
4.52627e-240
-1.04086e-234
3.69313e-238
-9.06415e-233
2.9296e-236
-7.75069e-231
2.25696e-234
-6.51316e-229
1.68553e-232
-5.38288e-227
1.21651e-230
-4.3784e-225
8.44238e-229
-3.50732e-223
5.58581e-227
-2.76854e-221
3.46939e-225
-2.15462e-219
1.95996e-223
-1.654e-217
9.29598e-222
-1.25291e-215
2.63162e-220
-8.96703e-214
-4.01653e-215
-5.66216e-212
-9.61261e-213
-3.12735e-210
-1.00612e-210
-1.49714e-208
-7.60493e-209
-6.15426e-207
-4.54039e-207
-2.15234e-205
-2.20114e-205
-6.34988e-204
-8.74123e-204
-1.56918e-202
-2.84852e-202
-3.23284e-201
-7.61348e-201
-5.54389e-200
-1.66901e-199
-7.92211e-199
-3.00789e-198
-9.43651e-198
-4.47768e-197
-9.36424e-197
-5.52108e-196
-7.83671e-196
-5.63478e-195
-5.67208e-195
-4.82328e-194
-3.59508e-194
-3.56474e-193
-1.97732e-193
-2.30951e-192
-9.39171e-193
-1.29831e-191
-3.90014e-192
-6.29297e-191
-1.45277e-191
-2.66247e-190
-4.96605e-191
-1.01018e-189
-1.5688e-190
-3.52297e-189
-4.5696e-190
-1.13799e-188
-1.22383e-189
-3.39584e-188
-3.01521e-189
-9.32982e-188
-6.86009e-189
-2.36046e-187
-1.4509e-188
-5.52002e-187
-2.87627e-188
-1.20125e-186
-5.38853e-188
-2.45349e-186
-9.59951e-188
-4.74375e-186
-1.63418e-187
-8.73907e-186
-2.66711e-187
-1.54198e-185
-4.18226e-187
-2.61502e-185
-6.31077e-187
-4.27241e-185
-9.17541e-187
-6.73625e-185
-1.287e-186
-1.02652e-184
-1.74358e-186
-1.51414e-184
-2.28389e-186
-2.16491e-184
-2.89531e-186
-3.00471e-184
-3.55552e-186
-4.05389e-184
-4.23239e-186
-5.32457e-184
-4.88553e-186
-6.81776e-184
-5.46914e-186
-8.52099e-184
-5.93512e-186
-1.04077e-183
-6.23782e-186
-1.24366e-183
-6.33822e-186
-1.45531e-183
-6.20794e-186
-1.66926e-183
-5.83239e-186
-1.87838e-183
-5.20739e-186
-2.07523e-183
-4.29971e-186
-2.25052e-183
-2.78773e-186
-2.36824e-183
-3.04994e-187
-2.11587e-183
-1.1147e-196
-3.69987e-184
-3.3889e-193
1.84852e-193
-5.34439e-190
2.58743e-184
-2.95355e-181
2.07391e-183
-1.48704e-180
3.15408e-183
-1.64881e-180
3.85184e-183
-1.58594e-180
4.3604e-183
-1.48193e-180
4.68795e-183
-1.35721e-180
4.83078e-183
-1.21873e-180
4.79674e-183
-1.07284e-180
4.60464e-183
-9.25462e-181
4.28174e-183
-7.81831e-181
3.86093e-183
-6.46317e-181
3.37781e-183
-5.22347e-181
2.86713e-183
-4.12262e-181
2.3605e-183
-3.17384e-181
1.88386e-183
-2.38037e-181
1.45624e-183
-1.73682e-181
1.08937e-183
-1.23124e-181
7.8787e-184
-8.46922e-182
5.50305e-184
-5.64487e-182
3.70785e-184
-3.64062e-182
2.40701e-184
-2.26879e-182
1.50322e-184
-1.36393e-182
9.0124e-185
-7.89157e-183
5.17021e-185
-4.37916e-183
2.82406e-185
-2.31839e-183
1.45953e-185
-1.16329e-183
7.07695e-186
-5.48338e-184
3.19255e-186
-2.40719e-184
1.33115e-186
-9.77625e-185
5.11193e-187
-3.66066e-185
1.80817e-187
-1.26435e-185
5.9124e-188
-4.04515e-186
1.79212e-188
-1.20263e-186
4.99662e-189
-3.29424e-187
1.25035e-189
-8.09628e-188
2.73346e-190
-1.73529e-188
5.16052e-191
-3.20703e-189
8.47455e-192
-5.15707e-190
1.2231e-192
-7.2988e-191
1.52752e-193
-8.92303e-192
1.60457e-194
-9.12223e-193
1.40145e-195
-7.70574e-194
1.01961e-196
-5.39009e-195
6.17206e-198
-3.10991e-196
3.10215e-199
-1.47133e-197
1.29621e-200
-5.69316e-199
4.52424e-202
-1.80194e-200
1.32869e-203
-4.66861e-202
3.31211e-205
-9.8871e-204
7.0744e-207
-1.69726e-205
1.30727e-208
-2.29934e-207
2.10981e-210
-2.25386e-209
3.00091e-212
-9.95832e-212
4.01949e-214
8.41995e-217
5.30721e-216
3.09275e-218
6.9052e-218
6.64064e-220
8.84982e-220
1.1922e-221
1.11672e-221
1.94307e-223
1.3867e-223
2.96913e-225
1.69354e-225
4.32127e-227
2.03282e-227
6.04253e-229
2.39653e-229
8.1599e-231
2.77272e-231
1.06751e-232
3.14556e-233
1.35554e-234
3.49591e-235
1.67255e-236
3.80244e-237
2.00636e-238
4.04336e-239
2.34024e-240
4.19859e-241
2.65367e-242
4.25224e-243
2.924e-244
4.19483e-245
3.12869e-246
4.02518e-247
3.24815e-248
3.75129e-249
3.26854e-250
3.39001e-251
3.18419e-252
2.96549e-253
2.9991e-254
2.50644e-255
2.72696e-256
2.04275e-257
2.38967e-258
1.60187e-259
2.01453e-260
1.20579e-261
1.63043e-262
8.69035e-264
1.26403e-264
5.98004e-266
9.36422e-267
3.91684e-268
6.61105e-269
2.43362e-270
4.43457e-271
1.42893e-272
2.81687e-273
7.89536e-275
1.68812e-275
4.08559e-277
9.50474e-278
1.96922e-279
5.00407e-280
8.78541e-282
2.45021e-282
3.60151e-284
1.10885e-284
1.34495e-286
4.60438e-287
4.52805e-289
1.73922e-289
1.3569e-291
5.91448e-292
3.56146e-294
1.7878e-294
8.0175e-297
4.72688e-297
1.50452e-299
1.07049e-299
2.25854e-302
2.01821e-302
2.54199e-305
3.03984e-305
1.90635e-308
3.42834e-308
7.1475e-312
2.57298e-311
6.37839e-318
9.64181e-315
-1.28825e-311
1.75888e-314
-3.41133e-308
4.65971e-311
-4.50588e-305
6.14953e-308
-3.96301e-302
5.39692e-305
-2.61257e-299
3.54551e-302
-1.37764e-296
1.86066e-299
-6.05541e-294
8.12861e-297
-2.28293e-291
3.04178e-294
-7.5389e-289
9.95678e-292
-2.2161e-286
2.89723e-289
-5.87346e-284
7.59042e-287
-1.41822e-281
1.80917e-284
-3.14699e-279
3.95701e-282
-6.4644e-277
8.00011e-280
-1.237e-274
1.50444e-277
-2.21713e-272
2.6458e-275
-3.73997e-270
4.37216e-273
-5.96271e-268
6.81726e-271
-9.01907e-266
1.00674e-268
-1.29868e-263
1.41274e-266
-1.78566e-261
1.88952e-264
-2.35111e-259
2.41524e-262
-2.9719e-257
2.95768e-260
-3.61497e-255
3.4777e-258
-4.24058e-253
3.93426e-256
-4.80691e-251
4.29004e-254
-5.27512e-249
4.51655e-252
-5.61403e-247
4.59781e-250
-5.8035e-245
4.53187e-248
-5.83619e-243
4.33011e-246
-5.71741e-241
4.01475e-244
-5.46346e-239
3.61511e-242
-5.09877e-237
3.16358e-240
-4.65252e-235
2.69168e-238
-4.15527e-233
2.22708e-236
-3.63605e-231
1.79168e-234
-3.12022e-229
1.40078e-232
-2.62805e-227
1.06313e-230
-2.17433e-225
7.81792e-229
-1.76837e-223
5.55296e-227
-1.41472e-221
3.79019e-225
-1.11398e-219
2.46455e-223
-8.63829e-218
1.50294e-221
-6.59977e-216
8.32375e-220
-4.97e-214
3.85766e-218
-3.69023e-212
1.04932e-216
-2.5799e-210
-1.22495e-211
-1.58702e-208
-2.77542e-209
-8.51193e-207
-2.81332e-207
-3.94299e-205
-2.05805e-205
-1.56249e-203
-1.18559e-203
-5.24791e-202
-5.52566e-202
-1.48144e-200
-2.10167e-200
-3.4912e-199
-6.53576e-199
-6.83994e-198
-1.66157e-197
-1.11345e-196
-3.45515e-196
-1.51004e-195
-5.89654e-195
-1.70809e-194
-8.31319e-194
-1.60849e-193
-9.7194e-193
-1.27651e-192
-9.40109e-192
-8.78213e-192
-7.62012e-191
-5.31443e-191
-5.34588e-190
-2.79851e-190
-3.3037e-189
-1.27369e-189
-1.77702e-188
-5.07028e-189
-8.24887e-188
-1.81306e-188
-3.34327e-187
-5.96743e-188
-1.21685e-186
-1.82123e-187
-4.08349e-186
-5.13919e-187
-1.27373e-185
-1.33603e-186
-3.68092e-185
-3.19974e-186
-9.81401e-185
-7.08484e-186
-2.41307e-184
-1.45986e-185
-5.49055e-184
-2.8228e-185
-1.16378e-183
-5.1651e-185
-2.31783e-183
-8.99967e-185
-4.37579e-183
-1.50069e-184
-7.88225e-183
-2.40261e-184
-1.36196e-182
-3.70099e-184
-2.26523e-182
-5.49332e-184
-3.63486e-182
-7.86628e-184
-5.6365e-182
-1.08798e-183
-8.45849e-182
-1.455e-183
-1.2301e-181
-1.88328e-183
-1.73601e-181
-2.36136e-183
-2.38064e-181
-2.87071e-183
-3.17657e-181
-3.38577e-183
-4.13014e-181
-3.87543e-183
-5.23943e-181
-4.30531e-183
-6.49305e-181
-4.64009e-183
-7.86996e-181
-4.84707e-183
-9.33917e-181
-4.89885e-183
-1.08617e-180
-4.77612e-183
-1.23919e-180
-4.46976e-183
-1.38799e-180
-3.97827e-183
-1.52748e-180
-3.27808e-183
-1.65127e-180
-2.12963e-183
-1.73393e-180
-2.4149e-184
-1.55193e-180
-1.30429e-193
-2.81215e-181
-3.83372e-190
1.40824e-190
-4.02376e-187
1.41101e-181
-1.56818e-178
1.11478e-180
-7.73727e-178
1.69483e-180
-8.5435e-178
2.06782e-180
-8.192e-178
2.34167e-180
-7.64885e-178
2.52244e-180
-7.01479e-178
2.60824e-180
-6.31897e-178
2.60184e-180
-5.58759e-178
2.51179e-180
-4.84712e-178
2.35108e-180
-4.12191e-178
2.13593e-180
-3.43314e-178
1.88434e-180
-2.79804e-178
1.61429e-180
-2.22896e-178
1.34256e-180
-1.73357e-178
1.08337e-180
-1.31472e-178
8.4757e-181
-9.70958e-179
6.42359e-181
-6.97429e-179
4.71192e-181
-4.86628e-179
3.34196e-181
-3.29405e-179
2.28943e-181
-2.16044e-179
1.51318e-181
-1.37109e-179
9.63566e-182
-8.40655e-180
5.89937e-182
-4.96846e-180
3.46129e-182
-2.82062e-180
1.93635e-182
-1.52987e-180
1.02629e-182
-7.87464e-181
5.10899e-183
-3.81192e-181
2.36869e-183
-1.72029e-181
1.01619e-183
-7.19045e-182
4.02115e-184
-2.7752e-182
1.46865e-184
-9.90115e-183
4.97307e-185
-3.28225e-183
1.56653e-185
-1.01482e-183
4.55278e-186
-2.89992e-184
1.18918e-186
-7.44454e-185
2.71426e-187
-1.6669e-185
5.35477e-188
-3.22145e-186
9.21797e-189
-5.43594e-187
1.40134e-189
-8.11598e-188
1.84757e-190
-1.04907e-188
2.04673e-191
-1.1326e-189
1.88423e-192
-1.01012e-190
1.44641e-193
-7.47277e-192
9.23669e-195
-4.56076e-193
4.88825e-196
-2.27837e-194
2.14449e-197
-9.28364e-196
7.83204e-199
-3.08438e-197
2.39785e-200
-8.35908e-199
6.20707e-202
-1.84504e-200
1.37136e-203
-3.28945e-202
2.61109e-205
-4.61459e-204
4.32573e-207
-4.68038e-206
6.2931e-209
-2.1844e-208
8.58681e-211
2.21176e-213
1.15407e-212
8.45212e-215
1.52732e-214
1.85473e-216
1.98972e-216
3.39174e-218
2.5506e-218
5.62226e-220
3.21572e-220
8.72914e-222
3.98529e-222
1.28989e-223
4.85204e-224
1.83014e-225
5.79927e-226
2.50636e-227
6.79952e-228
3.32362e-229
7.81416e-230
4.27604e-231
8.7942e-232
5.34351e-233
9.68278e-234
6.48956e-235
1.04193e-235
7.66078e-237
1.09453e-237
8.78878e-239
1.12109e-239
9.7948e-241
1.11821e-241
1.05973e-242
1.08459e-243
1.11216e-244
1.02147e-245
1.13103e-246
9.32634e-248
1.11328e-248
8.24096e-250
1.05923e-250
7.03432e-252
9.72699e-253
5.78867e-254
8.60702e-255
4.58259e-256
7.32521e-257
3.48177e-258
5.98418e-259
2.53243e-260
4.68213e-261
1.75836e-262
3.50004e-263
1.16193e-264
2.49299e-265
7.28245e-267
1.6869e-267
4.31279e-269
1.08078e-269
2.40317e-271
6.53197e-272
1.25395e-273
3.70853e-274
6.09371e-276
1.96858e-276
2.74072e-278
9.71753e-279
1.13255e-280
4.43303e-281
4.2629e-283
1.85537e-283
1.44642e-285
7.06321e-286
4.36792e-288
2.42054e-288
1.1552e-290
7.37263e-291
2.62022e-293
1.96404e-293
4.95367e-296
4.48119e-296
7.49127e-299
8.51087e-299
8.49309e-302
1.29129e-301
6.41547e-305
1.46687e-304
2.42266e-308
1.1088e-307
2.21401e-314
4.18462e-311
-4.41848e-308
7.72553e-311
-1.16159e-304
2.03207e-307
-1.52309e-301
2.66238e-304
-1.32969e-298
2.31945e-301
-8.70039e-296
1.51249e-298
-4.5532e-293
7.87812e-296
-1.98607e-290
3.41568e-293
-7.42983e-288
1.2684e-290
-2.43438e-285
4.11981e-288
-7.09948e-283
1.18941e-285
-1.86657e-280
3.09147e-283
-4.47059e-278
7.30948e-281
-9.83881e-276
1.58577e-278
-2.00427e-273
3.17973e-276
-3.80302e-271
5.92984e-274
-6.75817e-269
1.03406e-271
-1.13014e-266
1.69417e-269
-1.78599e-264
2.61872e-267
-2.67738e-262
3.83317e-265
-3.82033e-260
5.33099e-263
-5.20459e-258
7.06543e-261
-6.7886e-256
8.94792e-259
-8.49945e-254
1.08548e-256
-1.02385e-251
1.26415e-254
-1.18919e-249
1.41621e-252
-1.33446e-247
1.52898e-250
-1.44942e-245
1.59345e-248
-1.52639e-243
1.6054e-246
-1.56103e-241
1.56571e-244
-1.55266e-239
1.47991e-242
-1.50404e-237
1.35702e-240
-1.42076e-235
1.20817e-238
-1.31033e-233
1.04504e-236
-1.18122e-231
8.786e-235
-1.0419e-229
7.18077e-233
-9.00081e-228
5.70436e-231
-7.62239e-226
4.40203e-229
-6.33308e-224
3.29624e-227
-5.16635e-222
2.39036e-225
-4.14093e-220
1.67341e-223
-3.26311e-218
1.12506e-221
-2.52945e-216
7.20038e-220
-1.92972e-214
4.31741e-218
-1.44949e-212
2.34744e-216
-1.07236e-210
1.0644e-214
-7.81604e-209
2.78186e-213
-5.34169e-207
-2.71998e-208
-3.2001e-205
-5.82727e-206
-1.66494e-203
-5.70555e-204
-7.45093e-202
-4.02801e-202
-2.84073e-200
-2.23235e-200
-9.14279e-199
-9.97209e-199
-2.46388e-197
-3.62165e-197
-5.52447e-196
-1.07163e-195
-1.02693e-194
-2.58412e-194
-1.58335e-193
-5.08379e-193
-2.03399e-192
-8.1948e-192
-2.1819e-191
-1.09176e-190
-1.94752e-190
-1.20848e-189
-1.4637e-189
-1.10641e-188
-9.55957e-189
-8.47988e-188
-5.51843e-188
-5.63905e-187
-2.78063e-187
-3.32095e-186
-1.21207e-186
-1.70809e-185
-4.62232e-186
-7.58912e-185
-1.58565e-185
-2.94462e-184
-5.02206e-185
-1.02735e-183
-1.48009e-184
-3.31513e-183
-4.04486e-184
-9.98021e-183
-1.02048e-183
-2.79214e-182
-2.37531e-183
-7.22226e-182
-5.11742e-183
-1.72545e-181
-1.02708e-182
-3.81899e-181
-1.93659e-182
-7.88236e-181
-3.45995e-182
-1.53039e-180
-5.89478e-182
-2.82019e-180
-9.62569e-182
-4.96581e-180
-1.51141e-181
-8.40001e-180
-2.28669e-181
-1.36986e-179
-3.3382e-181
-2.15848e-179
-4.70749e-181
-3.29135e-179
-6.41944e-181
-4.86332e-179
-8.47375e-181
-6.97231e-179
-1.08369e-180
-9.71125e-179
-1.34385e-180
-1.31571e-178
-1.61721e-180
-1.73613e-178
-1.88971e-180
-2.23434e-178
-2.14475e-180
-2.80805e-178
-2.36441e-180
-3.45034e-178
-2.53073e-180
-4.14982e-178
-2.62743e-180
-4.89047e-178
-2.64122e-180
-5.65276e-178
-2.56307e-180
-6.41424e-178
-2.38919e-180
-7.15084e-178
-2.11966e-180
-7.83836e-178
-1.74284e-180
-8.4465e-178
-1.13427e-180
-8.84987e-178
-1.33254e-181
-7.93361e-178
-1.06993e-190
-1.4892e-178
-3.04765e-187
8.37086e-188
-2.32865e-184
5.81866e-179
-6.22012e-176
4.50185e-178
-3.00035e-175
6.84473e-178
-3.30804e-175
8.35714e-178
-3.17032e-175
9.4786e-178
-2.96242e-175
1.0238e-177
-2.72288e-175
1.06263e-177
-2.46142e-175
1.06511e-177
-2.18665e-175
1.03415e-177
-1.90763e-175
9.7441e-178
-1.63296e-175
8.91904e-178
-1.37035e-175
7.93462e-178
-1.12627e-175
6.86067e-178
-9.056e-176
5.76409e-178
-7.11572e-176
4.70319e-178
-5.45717e-176
3.72424e-178
-4.07969e-176
2.85981e-178
-2.96947e-176
2.12788e-178
-2.10199e-176
1.53272e-178
-1.44529e-176
1.06775e-178
-9.64139e-177
7.18665e-179
-6.2325e-177
4.66728e-179
-3.89836e-177
2.91883e-179
-2.35419e-177
1.75197e-179
-1.3677e-177
1.0041e-179
-7.60225e-178
5.45919e-180
-4.01534e-178
2.79085e-180
-1.99667e-178
1.33013e-180
-9.26554e-179
5.87278e-181
-3.98691e-179
2.39528e-181
-1.58658e-179
9.03646e-182
-5.8495e-180
3.17035e-182
-2.01035e-180
1.03855e-182
-6.46899e-181
3.14864e-183
-1.92999e-181
8.59013e-184
-5.17881e-182
2.04819e-184
-1.21213e-182
4.22519e-185
-2.45128e-183
7.63198e-186
-4.34505e-184
1.22386e-186
-6.85394e-185
1.7059e-187
-9.38106e-186
1.99553e-188
-1.07094e-186
1.93938e-189
-1.01005e-187
1.57429e-190
-7.92141e-189
1.06325e-191
-5.12745e-190
5.94018e-193
-2.71188e-191
2.74342e-194
-1.1669e-192
1.05133e-195
-4.08173e-194
3.36509e-197
-1.16072e-195
9.07161e-199
-2.67866e-197
2.07895e-200
-4.97574e-199
4.0896e-202
-7.25144e-201
6.9725e-204
-7.63629e-203
1.03998e-205
-3.78145e-205
1.44831e-207
4.34746e-210
1.98495e-209
1.73837e-211
2.67668e-211
3.90814e-213
3.55052e-213
7.29408e-215
4.63113e-215
1.2319e-216
5.93748e-217
1.94662e-218
7.4786e-219
2.92515e-220
9.24898e-221
4.21768e-222
1.12238e-222
5.86635e-224
1.33552e-224
7.89674e-226
1.55694e-226
1.03083e-227
1.77679e-228
1.30645e-229
1.98303e-230
1.60853e-231
2.16227e-232
1.92433e-233
2.30091e-234
2.23654e-235
2.38661e-236
2.52435e-237
2.40994e-238
2.7652e-239
2.36581e-240
2.93734e-241
2.25455e-242
3.02276e-243
2.0824e-244
3.01007e-245
1.86102e-246
2.89668e-247
1.6063e-248
2.6899e-249
1.33637e-250
2.4064e-251
1.06936e-252
2.0702e-253
8.21103e-255
1.70921e-255
6.03461e-257
1.35132e-257
4.23318e-259
1.02057e-259
2.82565e-261
7.3431e-262
1.78869e-263
5.01852e-264
1.06973e-265
3.24705e-266
6.01875e-268
1.98156e-268
3.17069e-270
1.13585e-270
1.55545e-272
6.0867e-273
7.06145e-275
3.03278e-275
2.94505e-277
1.39636e-277
1.11868e-279
5.89787e-280
3.83013e-282
2.26564e-282
1.16701e-284
7.83402e-285