/*--------------------------------*- C++ -*----------------------------------*\
| =========                 |                                                 |
| \\      /  F ield         | OpenFOAM: The Open Source CFD Toolbox           |
|  \\    /   O peration     | Version:  2412                                  |
|   \\  /    A nd           | Website:  www.openfoam.com                      |
|    \\/     M anipulation  |                                                 |
\*---------------------------------------------------------------------------*/
FoamFile
{
    version     2.0;
    format      ascii;
    arch        "LSB;label=32;scalar=64";
    class       volScalarField;
    location    "1.12";
    object      alpha.water;
}
// * * * * * * * * * * * * * * * * * * * * * * * * * * * * * * * * * * * * * //

dimensions      [0 0 0 0 0 0 0];

internalField   nonuniform List<scalar> 
40000
(
6.3569e-193
7.83887e-184
4.63167e-183
5.62206e-183
5.67237e-183
5.37299e-183
4.89934e-183
4.34315e-183
3.75608e-183
3.17463e-183
2.62203e-183
2.11443e-183
1.66332e-183
1.2749e-183
9.50884e-184
6.89139e-184
4.8454e-184
3.30015e-184
2.17384e-184
1.38257e-184
8.47551e-185
4.99913e-185
2.83148e-185
1.53618e-185
7.95565e-186
3.91372e-186
1.81769e-186
7.90583e-187
3.19365e-187
1.18998e-187
4.07162e-188
1.27741e-188
3.67989e-189
9.74396e-190
2.35503e-190
5.08904e-191
9.59828e-192
1.5599e-192
2.18904e-193
2.66859e-194
2.79614e-195
2.4657e-196
1.80892e-197
1.10265e-198
5.58486e-200
2.35125e-201
8.24595e-203
2.41867e-204
5.96231e-206
1.24068e-207
2.18411e-209
3.24442e-211
4.01422e-213
3.97831e-215
3.5522e-217
3.14386e-219
2.75576e-221
2.39085e-223
2.05165e-225
1.74013e-227
1.45767e-229
1.20499e-231
9.82154e-234
7.88596e-236
6.23143e-238
4.84101e-240
3.69343e-242
2.76422e-244
2.02694e-246
1.45439e-248
1.01978e-250
6.97739e-253
4.65145e-255
3.01643e-257
1.89961e-259
1.15961e-261
6.84846e-264
3.90478e-266
2.14461e-268
1.13186e-270
5.72522e-273
2.76756e-275
1.27452e-277
5.57235e-280
2.30411e-282
8.97183e-285
3.27396e-287
1.11351e-289
3.50751e-292
1.01578e-294
2.68113e-297
6.38303e-300
1.3532e-302
2.51367e-305
4.00629e-308
5.32418e-311
5.65729e-314
2.46879e-317
0
0
0
0
9.87514e-317
1.27314e-313
1.16672e-310
8.56241e-308
5.24438e-305
2.75836e-302
1.27226e-299
5.22953e-297
1.94028e-294
6.56595e-292
2.0442e-289
5.89825e-287
1.58718e-284
4.00502e-282
9.5224e-280
2.1424e-277
4.57847e-275
9.32602e-273
1.81627e-270
3.3916e-268
6.08836e-266
1.05319e-263
1.75951e-261
2.84478e-259
4.45975e-257
6.79141e-255
1.0063e-252
1.45314e-250
2.04806e-248
2.82134e-246
3.80387e-244
5.0258e-242
6.5151e-240
8.29608e-238
1.03881e-235
1.28045e-233
1.55519e-231
1.86297e-229
2.20304e-227
2.57393e-225
2.97359e-223
3.39941e-221
3.84831e-219
4.31691e-217
4.80153e-215
4.81835e-213
3.86515e-211
2.5785e-209
1.44972e-207
6.88838e-206
2.76018e-204
9.28849e-203
2.61325e-201
6.12484e-200
1.19385e-198
1.93529e-197
2.60933e-196
2.93031e-195
2.77398e-194
2.26015e-193
1.60077e-192
9.79414e-192
5.16758e-191
2.38213e-190
9.82561e-190
3.70152e-189
1.28213e-188
4.07893e-188
1.19018e-187
3.18994e-187
7.88748e-187
1.81152e-186
3.89627e-186
7.91167e-186
1.5262e-185
2.81108e-185
4.96111e-185
8.40994e-185
1.37193e-184
2.15729e-184
3.27506e-184
4.80796e-184
6.83661e-184
9.43105e-184
1.2643e-183
1.6496e-183
2.0976e-183
2.60264e-183
3.15426e-183
3.7375e-183
4.33385e-183
4.92226e-183
5.48025e-183
5.97829e-183
6.30955e-183
5.60455e-183
9.13467e-184
3.81191e-193
2.92515e-189
2.89969e-180
1.53658e-179
1.76784e-179
1.74134e-179
1.64095e-179
1.50159e-179
1.33973e-179
1.16774e-179
9.95077e-180
8.28858e-180
6.74419e-180
5.35596e-180
4.14686e-180
3.12645e-180
2.29216e-180
1.63176e-180
1.12629e-180
7.52613e-181
4.86111e-181
3.02999e-181
1.81954e-181
1.05072e-181
5.8205e-182
3.08245e-182
1.5529e-182
7.39627e-183
3.30314e-183
1.37175e-183
5.26128e-184
1.85591e-184
6.01484e-185
1.79468e-185
4.93779e-186
1.24385e-186
2.80725e-187
5.53696e-188
9.42548e-189
1.38961e-189
1.78736e-190
1.98262e-191
1.85406e-192
1.44504e-193
9.3835e-195
5.07816e-196
2.29156e-197
8.64739e-199
2.74378e-200
7.37412e-202
1.69269e-203
3.34697e-205
5.74701e-207
8.62982e-209
1.13917e-210
1.42114e-212
1.75274e-214
2.13599e-216
2.57078e-218
3.05406e-220
3.57912e-222
4.13501e-224
4.70623e-226
5.2727e-228
5.81035e-230
6.29215e-232
6.68987e-234
6.97628e-236
7.12781e-238
7.12727e-240
6.96631e-242
6.6472e-244
6.18358e-246
5.59985e-248
4.92919e-250
4.21038e-252
3.48373e-254
2.7869e-256
2.15113e-258
1.59853e-260
1.14091e-262
7.80063e-265
5.09481e-267
3.16882e-269
1.87046e-271
1.04382e-273
5.48376e-276
2.69911e-278
1.23787e-280
5.25669e-283
2.05184e-285
7.29809e-288
2.3409e-290
6.68515e-293
1.67259e-295
3.59009e-298
6.42478e-301
9.19949e-304
9.87735e-307
7.06655e-310
2.52637e-313
4.76978e-313
1.31882e-309
1.82055e-306
1.67428e-303
1.15459e-300
6.37116e-298
2.93158e-295
1.1574e-292
4.0039e-290
1.23341e-287
3.42703e-285
8.67834e-283
2.02036e-280
4.35589e-278
8.75221e-276
1.64787e-273
2.92134e-271
4.89714e-269
7.79214e-267
1.1809e-264
1.70985e-262
2.37202e-260
3.16097e-258
4.05598e-256
5.02225e-254
6.01329e-252
6.97523e-250
7.85241e-248
8.59332e-246
9.15592e-244
9.51161e-242
9.64735e-240
9.56576e-238
9.28347e-236
8.82824e-234
8.23521e-232
7.54309e-230
6.79063e-228
6.01372e-226
5.2434e-224
4.50464e-222
3.81595e-220
3.1896e-218
2.63229e-216
2.14609e-214
1.72944e-212
1.37819e-210
1.03818e-208
6.86514e-207
3.96447e-205
1.98541e-203
8.55408e-202
3.14417e-200
9.77998e-199
2.55649e-197
5.588e-196
1.01899e-194
1.55007e-193
1.96664e-192
2.08195e-191
1.86123e-190
1.4371e-189
9.68767e-189
5.65853e-188
2.85486e-187
1.26011e-186
4.98723e-186
1.8083e-185
6.04762e-185
1.8625e-184
5.27125e-184
1.37247e-183
3.30111e-183
7.38471e-183
1.54918e-182
3.07269e-182
5.79826e-182
1.04623e-181
1.81132e-181
3.01615e-181
4.83937e-181
7.49369e-181
1.12167e-180
1.62547e-180
2.28402e-180
3.11665e-180
4.13643e-180
5.34722e-180
6.74176e-180
8.30035e-180
9.98959e-180
1.17641e-179
1.35687e-179
1.53413e-179
1.70176e-179
1.85151e-179
1.95249e-179
1.74281e-179
2.96145e-180
1.78506e-189
5.16071e-186
3.98748e-177
2.03281e-176
2.27785e-176
2.20925e-176
2.07079e-176
1.89567e-176
1.69722e-176
1.4871e-176
1.27528e-176
1.06992e-176
8.77539e-177
7.03027e-177
5.49527e-177
4.18606e-177
3.10351e-177
2.2362e-177
1.56376e-177
1.05976e-177
6.94985e-178
4.40365e-178
2.69177e-178
1.58445e-178
8.95997e-179
4.8511e-179
2.50207e-179
1.22167e-179
5.59957e-180
2.38924e-180
9.42622e-181
3.42522e-181
1.14573e-181
3.53772e-182
1.01052e-182
2.65049e-183
6.23815e-184
1.28374e-184
2.28205e-185
3.52266e-186
4.76325e-187
5.56708e-188
5.483e-189
4.49808e-190
3.0755e-191
1.7521e-192
8.31203e-194
3.29084e-195
1.09307e-196
3.0689e-198
7.34736e-200
1.51414e-201
2.71135e-203
4.25759e-205
5.91324e-207
7.76725e-209
1.00757e-210
1.29021e-212
1.63019e-214
2.03142e-216
2.49523e-218
3.01932e-220
3.59676e-222
4.21506e-224
4.85565e-226
5.49388e-228
6.09966e-230
6.63909e-232
7.07681e-234
7.37928e-236
7.51841e-238
7.4753e-240
7.24336e-242
6.8303e-244
6.2584e-246
5.56292e-248
4.78847e-250
3.98408e-252
3.19755e-254
2.47011e-256
1.83228e-258
1.30174e-260
8.83271e-263
5.70626e-265
3.49796e-267
2.02691e-269
1.10551e-271
5.64831e-274
2.68861e-276
1.18485e-278
4.79888e-281
1.77094e-283
5.89293e-286
1.74571e-288
4.5303e-291
1.00852e-293
1.87179e-296
2.7795e-299
3.0949e-302
2.29645e-305
8.51928e-309
1.54969e-308
4.14455e-305
5.53044e-302
4.91489e-299
3.27447e-296
1.7453e-293
7.75552e-291
2.95647e-288
9.87372e-286
2.93588e-283
7.87231e-281
1.92354e-278
4.3201e-276
8.98391e-274
1.74079e-271
3.16017e-269
5.40058e-267
8.72535e-265
1.33779e-262
1.95317e-260
2.72383e-258
3.6386e-256
4.6679e-254
5.76461e-252
6.86796e-250
7.90995e-248
8.82315e-246
9.54852e-244
1.0042e-241
1.02786e-239
1.02542e-237
9.984e-236
9.49914e-234
8.84207e-232
8.0611e-230
7.20536e-228
6.32064e-226
5.44635e-224
4.61381e-222
3.84562e-220
3.15607e-218
2.55208e-216
2.03461e-214
1.60012e-212
1.24202e-210
9.51929e-209
7.20686e-207
5.16025e-205
3.26316e-203
1.80676e-201
8.67932e-200
3.58365e-198
1.26013e-196
3.74158e-195
9.31487e-194
1.93522e-192
3.34994e-191
4.837e-190
5.82774e-189
5.85547e-188
4.96681e-187
3.64755e-186
2.3483e-185
1.31338e-184
6.35065e-184
2.68797e-183
1.02172e-182
3.56846e-182
1.15327e-181
3.44129e-181
9.45475e-181
2.39315e-180
5.60241e-180
1.22118e-179
2.49927e-179
4.84269e-179
8.94008e-179
1.58042e-178
2.6845e-178
4.39171e-178
6.93172e-178
1.05722e-177
1.5605e-177
2.23247e-177
3.09998e-177
4.18417e-177
5.49781e-177
7.042e-177
8.80402e-177
1.07566e-176
1.28569e-176
1.50487e-176
1.72651e-176
1.94321e-176
2.14728e-176
2.32908e-176
2.45152e-176
2.19359e-176
3.86537e-177
3.41301e-186
5.56186e-183
3.18818e-174
1.59135e-173
1.76265e-173
1.69576e-173
1.58476e-173
1.45142e-173
1.30324e-173
1.14708e-173
9.89314e-174
8.35573e-174
6.90546e-174
5.5791e-174
4.40166e-174
3.38723e-174
2.53917e-174
1.85165e-174
1.31177e-174
9.01582e-175
6.00319e-175
3.86695e-175
2.40618e-175
1.44386e-175
8.33607e-176
4.61477e-176
2.43713e-176
1.22003e-176
5.73985e-177
2.51648e-177
1.0213e-177
3.82309e-178
1.32003e-178
4.21894e-179
1.2516e-179
3.41956e-180
8.39548e-181
1.80283e-181
3.34701e-182
5.41106e-183
7.69663e-184
9.48331e-185
9.83827e-186
8.49517e-187
6.11654e-188
3.66785e-189
1.82805e-190
7.58184e-192
2.62934e-193
7.67991e-195
1.90587e-196
4.05663e-198
7.47755e-200
1.205e-201
1.71311e-203
2.29579e-205
3.03603e-207
3.96046e-209
5.09443e-211
6.45904e-213
8.06766e-215
9.92179e-217
1.20068e-218
1.42875e-220
1.67053e-222
1.91764e-224
2.15931e-226
2.38279e-228
2.57419e-230
2.7196e-232
2.80659e-234
2.82567e-236
2.77178e-238
2.64531e-240
2.45254e-242
2.20533e-244
1.91996e-246
1.61534e-248
1.31072e-250
1.0235e-252
7.67304e-255
5.50854e-257
3.77635e-259
2.46454e-261
1.52596e-263
8.92999e-266
4.91828e-268
2.53718e-270
1.21925e-272
5.42393e-275
2.21735e-277
8.25844e-280
2.77323e-282
8.28989e-285
2.17066e-287
4.87532e-290
9.12847e-293
1.36742e-295
1.53586e-298
1.14953e-301
4.30179e-305
7.8474e-305
2.08181e-301
2.75493e-298
2.42772e-295
1.60367e-292
8.47401e-290
3.7328e-287
1.41046e-284
4.66863e-282
1.3757e-279
3.65531e-277
8.84936e-275
1.96901e-272
4.05614e-270
7.7846e-268
1.39956e-265
2.3684e-263
3.78857e-261
5.75041e-259
8.31009e-257
1.14693e-254
1.51605e-252
1.92421e-250
2.35058e-248
2.76968e-246
3.1542e-244
3.47827e-242
3.72056e-240
3.86658e-238
3.90998e-236
3.8527e-234
3.70402e-232
3.47886e-230
3.19564e-228
2.87416e-226
2.53358e-224
2.19101e-222
1.86046e-220
1.55247e-218
1.27403e-216
1.02896e-214
8.18378e-213
6.41355e-211
4.95515e-209
3.77596e-207
2.83907e-205
2.1069e-203
1.47368e-201
9.07882e-200
4.88154e-198
2.26917e-196
9.03236e-195
3.05027e-193
8.66629e-192
2.05755e-190
4.06523e-189
6.68026e-188
9.15454e-187
1.04743e-185
9.98724e-185
8.03376e-184
5.60817e-183
3.44727e-182
1.84597e-181
8.55335e-181
3.47043e-180
1.26639e-179
4.25879e-179
1.32975e-178
3.84403e-178
1.02519e-177
2.52252e-177
5.74714e-177
1.2205e-176
2.43645e-176
4.61101e-176
8.32585e-176
1.44171e-175
2.40231e-175
3.86072e-175
5.99417e-175
9.00431e-175
1.31056e-174
1.8508e-174
2.53954e-174
3.3903e-174
4.41e-174
5.59672e-174
6.93837e-174
8.41256e-174
9.98618e-174
1.16175e-173
1.32575e-173
1.48529e-173
1.63491e-173
1.76775e-173
1.85675e-173
1.66446e-173
3.03842e-174
3.95542e-183
4.29654e-180
1.75915e-171
8.6067e-171
9.49075e-171
9.10023e-171
8.49691e-171
7.79204e-171
7.01819e-171
6.2047e-171
5.38112e-171
4.57467e-171
3.80893e-171
3.10309e-171
2.47087e-171
1.92075e-171
1.45583e-171
1.07445e-171
7.71158e-172
5.37555e-172
3.63451e-172
2.38031e-172
1.50797e-172
9.22626e-173
5.43952e-173
3.07967e-173
1.66572e-173
8.55126e-174
4.13031e-174
1.861e-174
7.77089e-175
2.99736e-175
1.06859e-175
3.5367e-176
1.09032e-176
3.10511e-177
7.95712e-178
1.7839e-178
3.46073e-179
5.86475e-180
8.78647e-181
1.14286e-181
1.25033e-182
1.13793e-183
8.64434e-185
5.46828e-186
2.86956e-187
1.24952e-188
4.53397e-190
1.38051e-191
3.55749e-193
7.83209e-195
1.48747e-196
2.46048e-198
3.57763e-200
4.884e-202
6.57407e-204
8.72264e-206
1.14047e-207
1.46886e-209
1.86268e-211
2.32452e-213
2.85307e-215
3.44184e-217
4.07808e-219
4.74204e-221
5.4069e-223
6.03955e-225
6.60241e-227
7.05633e-229
7.36441e-231
7.49633e-233
7.43263e-235
7.1682e-237
6.71431e-239
6.09841e-241
5.36175e-243
4.55473e-245
3.73092e-247
2.94052e-249
2.22467e-251
1.61149e-253
1.11454e-255
7.33713e-258
4.58191e-260
2.70402e-262
1.50168e-264
7.81034e-267
3.78373e-269
1.69669e-271
6.99104e-274
2.62412e-276
8.87993e-279
2.67468e-281
7.05631e-284
1.59668e-286
3.01167e-289
4.54436e-292
5.14108e-295
3.87547e-298
1.46061e-301
2.69654e-301
7.10251e-298
9.33105e-295
8.16268e-292
5.35216e-289
2.80705e-286
1.22718e-283
4.60161e-281
1.51139e-278
4.41889e-276
1.16486e-273
2.79758e-271
6.17441e-269
1.26152e-266
2.40107e-264
4.28054e-262
7.18211e-260
1.13896e-257
1.71362e-255
2.45439e-253
3.3569e-251
4.39658e-249
5.52822e-247
6.68914e-245
7.8057e-243
8.80197e-241
9.60905e-239
1.01733e-236
1.04623e-234
1.04669e-232
1.02011e-230
9.69804e-229
9.00441e-227
8.17443e-225
7.26364e-223
6.32378e-221
5.39916e-219
4.52455e-217
3.72451e-215
3.01385e-213
2.39895e-211
1.87945e-209
1.45004e-207
1.10223e-205
8.2581e-204
6.10023e-202
4.44403e-200
3.03877e-198
1.82326e-196
9.51002e-195
4.27094e-193
1.63569e-191
5.29343e-190
1.4358e-188
3.24345e-187
6.0804e-186
9.46396e-185
1.22853e-183
1.33308e-182
1.20485e-181
9.17877e-181
6.08292e-180
3.567e-179
1.82778e-178
8.11139e-178
3.15299e-177
1.10379e-176
3.57207e-176
1.07707e-175
3.01551e-175
7.80493e-175
1.86652e-174
4.13786e-174
8.55944e-174
1.66625e-173
3.0791e-173
5.43645e-173
9.21884e-173
1.50659e-172
2.37812e-172
3.63153e-172
5.37234e-172
7.70957e-172
1.07468e-171
1.457e-171
1.92374e-171
2.47709e-171
3.11461e-171
3.82868e-171
4.60668e-171
5.43081e-171
6.27937e-171
7.12738e-171
7.94796e-171
8.71414e-171
9.39216e-171
9.84361e-171
8.83896e-171
1.67114e-171
3.23105e-180
2.56024e-177
7.28271e-169
3.48384e-168
3.83499e-168
3.67481e-168
3.43352e-168
3.15545e-168
2.85187e-168
2.53288e-168
2.209e-168
1.89025e-168
1.58561e-168
1.30258e-168
1.0468e-168
8.22024e-169
6.29988e-169
4.70592e-169
3.42206e-169
2.4196e-169
1.66138e-169
1.10644e-169
7.13784e-170
4.45385e-170
2.68212e-170
1.55344e-170
8.60762e-171
4.53277e-171
2.24824e-171
1.0413e-171
4.47474e-172
1.77893e-172
6.55066e-173
2.24626e-173
7.20124e-174
2.13929e-174
5.72578e-175
1.34091e-175
2.71997e-176
4.83641e-177
7.64284e-178
1.05094e-178
1.21404e-179
1.16637e-180
9.36904e-182
6.26786e-183
3.47208e-184
1.59154e-185
6.05938e-187
1.92875e-188
5.17587e-190
1.18192e-191
2.31902e-193
3.94752e-195
5.88449e-197
8.19852e-199
1.12528e-200
1.52125e-202
2.0251e-204
2.65378e-206
3.422e-208
4.34001e-210
5.41074e-212
6.62692e-214
7.96816e-216
9.39866e-218
1.08662e-219
1.23027e-221
1.36276e-223
1.47529e-225
1.55914e-227
1.60665e-229
1.61222e-231
1.57323e-233
1.49068e-235
1.36931e-237
1.21732e-239
1.04541e-241
8.65538e-244
6.8939e-246
5.26993e-248
3.85654e-250
2.69421e-252
1.7913e-254
1.12963e-256
6.7312e-259
3.77398e-261
1.98145e-263
9.68891e-266
4.38486e-268
1.82327e-270
6.90565e-273
2.35779e-275
7.16476e-278
1.9068e-280
4.35218e-283
8.27986e-286
1.26003e-288
1.43755e-291
1.09275e-294
4.1527e-298
7.78749e-298
2.03385e-294
2.64925e-291
2.29763e-288
1.49347e-285
7.76436e-283
3.36446e-280
1.25035e-277
4.06986e-275
1.17912e-272
3.07978e-270
7.32806e-268
1.60222e-265
3.24261e-263
6.11271e-261
1.07921e-258
1.79304e-256
2.81528e-254
4.19321e-252
5.94484e-250
8.04704e-248
1.04292e-245
1.29745e-243
1.553e-241
1.7924e-239
1.99868e-237
2.15724e-235
2.25759e-233
2.29443e-231
2.26794e-229
2.18332e-227
2.0497e-225
1.87877e-223
1.68327e-221
1.47565e-219
1.26702e-217
1.06646e-215
8.80696e-214
7.14095e-212
5.68899e-210
4.45589e-208
3.43316e-206
2.6033e-204
1.94359e-202
1.42915e-200
1.03528e-198
7.38952e-197
4.92769e-195
2.87192e-193
1.44907e-191
6.26879e-190
2.30301e-188
7.12069e-187
1.83853e-185
3.94079e-184
6.99129e-183
1.02807e-181
1.26137e-180
1.29608e-179
1.10895e-178
7.98938e-178
5.01942e-177
2.80521e-176
1.37464e-175
5.83946e-175
2.17318e-174
7.29314e-174
2.26969e-173
6.60559e-173
1.7905e-172
4.49633e-172
1.04485e-171
2.25331e-171
4.53903e-171
8.6141e-171
1.55385e-170
2.68185e-170
4.45234e-170
7.13459e-170
1.10591e-169
1.66073e-169
2.41913e-169
3.42247e-169
4.70854e-169
6.3069e-169
8.23514e-169
1.04962e-168
1.30748e-168
1.59361e-168
1.9027e-168
2.22762e-168
2.55988e-168
2.8899e-168
3.20754e-168
3.50281e-168
3.76319e-168
3.93539e-168
3.53924e-168
6.92975e-169
2.0081e-177
1.22652e-174
2.36931e-166
1.10546e-165
1.21603e-165
1.16617e-165
1.09148e-165
1.00587e-165
9.12556e-166
8.14362e-166
7.14295e-166
6.1528e-166
5.2e-166
4.30777e-166
3.49414e-166
2.77195e-166
2.14819e-166
1.62427e-166
1.19684e-166
8.58478e-167
5.98725e-167
4.05543e-167
2.66475e-167
1.69618e-167
1.04363e-167
6.18541e-168
3.51217e-168
1.89773e-168
9.66848e-169
4.6044e-169
2.03679e-169
8.34825e-170
3.17654e-170
1.12919e-170
3.76724e-171
1.16834e-171
3.26828e-172
7.99992e-173
1.69788e-173
3.17098e-174
5.29357e-175
7.70652e-176
9.41199e-177
9.56058e-178
8.13961e-179
5.77379e-180
3.38516e-181
1.638e-182
6.56256e-184
2.19044e-185
6.14014e-187
1.45876e-188
2.96582e-190
5.21047e-192
7.98526e-194
1.138e-195
1.59615e-197
2.20312e-199
2.992e-201
3.99705e-203
5.25078e-205
6.78008e-207
8.60111e-209
1.07136e-210
1.30946e-212
1.56934e-214
1.84272e-216
2.1181e-218
2.38104e-220
2.61504e-222
2.80286e-224
2.92836e-226
2.97846e-228
2.94519e-230
2.82715e-232
2.63034e-234
2.36791e-236
2.05879e-238
1.72541e-240
1.39083e-242
1.07583e-244
7.96523e-247
5.62893e-249
3.78527e-251
2.41401e-253
1.4545e-255
8.24495e-258
4.37609e-260
2.16295e-262
9.89352e-265
4.15743e-267
1.59117e-269
5.48926e-272
1.68527e-274
4.53098e-277
1.04467e-279
2.00744e-282
3.08541e-285
3.55497e-288
2.72887e-291
1.04714e-294
2.00078e-294
5.17372e-291
6.6721e-288
5.7285e-285
3.68592e-282
1.89674e-279
8.13458e-277
2.99181e-274
9.63659e-272
2.76252e-269
7.13893e-267
1.68045e-264
3.63444e-262
7.2752e-260
1.35635e-257
2.36801e-255
3.89002e-253
6.03834e-251
8.89034e-249
1.24574e-246
1.6664e-244
2.13393e-242
2.62263e-240
3.10073e-238
3.5342e-236
3.89117e-234
4.14597e-232
4.28223e-230
4.29432e-228
4.18734e-226
3.97553e-224
3.67972e-222
3.32439e-220
2.93469e-218
2.53401e-216
2.14219e-214
1.77455e-212
1.4416e-210
1.14932e-208
8.99824e-207
6.92223e-205
5.23508e-203
3.89383e-201
2.84941e-199
2.05199e-197
1.45449e-195
1.01484e-193
6.5808e-192
3.71427e-190
1.8072e-188
7.50671e-187
2.63681e-185
7.76425e-184
1.90242e-182
3.85811e-181
6.46001e-180
8.95102e-179
1.03557e-177
1.00602e-176
8.13846e-176
5.53667e-175
3.2927e-174
1.75204e-173
8.205e-173
3.33441e-172
1.18724e-171
3.8165e-171
1.14135e-170
3.20432e-170
8.40562e-170
2.04735e-169
4.62166e-169
9.6935e-169
1.90097e-168
3.51596e-168
6.18907e-168
1.04387e-167
1.69616e-167
2.66437e-167
4.05468e-167
5.98647e-167
8.58507e-167
1.19721e-166
1.62542e-166
2.15079e-166
2.77703e-166
3.50325e-166
4.32298e-166
5.22403e-166
6.18909e-166
7.1957e-166
8.2179e-166
9.22696e-166
1.0193e-165
1.1087e-165
1.18726e-165
1.2388e-165
1.11567e-165
2.26188e-166
9.933e-175
4.84748e-172
6.22898e-164
2.82976e-163
3.11206e-163
2.98915e-163
2.80431e-163
2.59264e-163
2.36178e-163
2.11816e-163
1.86878e-163
1.62058e-163
1.38006e-163
1.15298e-163
9.44009e-164
7.56641e-164
5.93013e-164
4.53917e-164
3.38962e-164
2.46691e-164
1.74787e-164
1.20439e-164
8.06267e-165
5.23678e-165
3.29312e-165
1.99789e-165
1.16288e-165
6.44919e-166
3.37598e-166
1.65357e-166
7.53205e-167
3.18407e-167
1.2525e-167
4.61854e-168
1.60482e-168
5.20024e-169
1.52147e-169
3.89492e-170
8.65538e-171
1.69976e-171
3.00233e-172
4.63454e-173
5.99154e-174
6.44543e-175
5.83041e-176
4.39685e-177
2.73563e-178
1.4013e-179
5.92614e-181
2.0808e-182
6.11258e-184
1.51577e-185
3.20345e-187
5.8265e-189
9.20765e-191
1.34543e-192
1.93277e-194
2.72964e-196
3.78972e-198
5.17144e-200
6.93429e-202
9.13322e-204
1.18109e-205
1.49884e-207
1.8654e-209
2.27532e-211
2.71791e-213
3.17679e-215
3.62999e-217
4.05093e-219
4.41032e-221
4.67893e-223
4.83105e-225
4.84809e-227
4.72174e-229
4.45614e-231
4.06825e-233
3.5864e-235
3.04691e-237
2.48932e-239
1.95125e-241
1.46373e-243
1.04789e-245
7.13755e-248
4.60994e-250
2.81266e-252
1.6143e-254
8.67413e-257
4.33992e-259
2.00925e-261
8.54502e-264
3.30954e-266
1.15527e-268
3.58858e-271
9.76089e-274
2.27657e-276
4.42504e-279
6.87897e-282
8.0158e-285
6.22244e-288
2.41442e-291
4.71527e-291
1.20549e-287
1.53691e-284
1.30442e-281
8.29624e-279
4.21954e-276
1.78845e-273
6.50014e-271
2.06881e-268
5.85967e-266
1.49599e-263
3.47862e-261
7.43122e-259
1.46914e-256
2.70482e-254
4.66278e-252
7.56239e-250
1.15881e-247
1.68401e-245
2.32876e-243
3.07383e-241
3.88345e-239
4.70803e-237
5.48974e-235
6.16997e-233
6.69713e-231
7.03329e-229
7.15855e-227
7.0724e-225
6.79224e-223
6.34963e-221
5.78516e-219
5.14301e-217
4.46601e-215
3.79185e-213
3.15071e-211
2.56421e-209
2.04556e-207
1.6006e-205
1.22921e-203
9.26974e-202
6.86758e-200
5.00023e-198
3.57886e-196
2.51854e-194
1.74276e-192
1.18577e-190
7.45404e-189
4.06114e-187
1.89909e-185
7.54833e-184
2.5264e-182
7.06073e-181
1.63652e-179
3.13088e-178
4.93441e-177
6.425e-176
6.99198e-175
6.41161e-174
4.89791e-173
3.1417e-172
1.7658e-171
8.93581e-171
3.99643e-170
1.55274e-169
5.28575e-169
1.6262e-168
4.66954e-168
1.26383e-167
3.20691e-167
7.57328e-167
1.66022e-166
3.38559e-166
6.46182e-166
1.16442e-165
1.99956e-165
3.29464e-165
5.23788e-165
8.06318e-165
1.20439e-164
1.7479e-164
2.46727e-164
3.39091e-164
4.54247e-164
5.93707e-164
7.57933e-164
9.46246e-164
1.15661e-163
1.38565e-163
1.62885e-163
1.88053e-163
2.13432e-163
2.38326e-163
2.6203e-163
2.83874e-163
3.02998e-163
3.15429e-163
2.8442e-163
5.96853e-164
4.02496e-172
1.60779e-169
1.34649e-161
5.95071e-161
6.54477e-161
6.29891e-161
5.92569e-161
5.49773e-161
5.02992e-161
4.53441e-161
4.02463e-161
3.51407e-161
3.01566e-161
2.54118e-161
2.10044e-161
1.70118e-161
1.34858e-161
1.04517e-161
7.91116e-162
5.84308e-162
4.20683e-162
2.9497e-162
2.01235e-162
1.33412e-162
8.5772e-163
5.32838e-163
3.1802e-163
1.8108e-163
9.74247e-164
4.90956e-164
2.30366e-164
1.00486e-164
4.08873e-165
1.56512e-165
5.66909e-166
1.92107e-166
5.88288e-167
1.57609e-167
3.67011e-168
7.58795e-169
1.42053e-169
2.32861e-170
3.19063e-171
3.64115e-172
3.50868e-173
2.82063e-174
1.86729e-175
1.01554e-176
4.54788e-178
1.68549e-179
5.20662e-181
1.35223e-182
2.98071e-184
5.63105e-186
9.20533e-188
1.38259e-189
2.03906e-191
2.95323e-193
4.20061e-195
5.86733e-197
8.04635e-199
1.08309e-200
1.43044e-202
1.85273e-204
2.35208e-206
2.9249e-208
3.56025e-210
4.23851e-212
4.9309e-214
5.6002e-216
6.20283e-218
6.69257e-220
7.02554e-222
7.16596e-224
7.09179e-226
6.79912e-228
6.30436e-230
5.64336e-232
4.86737e-234
4.03635e-236
3.21084e-238
2.44394e-240
1.775e-242
1.22638e-244
8.03341e-247
4.97044e-249
2.89255e-251
1.57575e-253
7.99212e-256
3.75046e-258
1.61655e-260
6.34491e-263
2.24432e-265
7.06354e-268
1.94649e-270
4.59905e-273
9.05505e-276
1.42577e-278
1.68263e-281
1.32276e-284
5.19723e-288
1.04097e-287
2.62739e-284
3.30683e-281
2.77045e-278
1.73918e-275
8.7302e-273
3.6517e-270
1.30967e-267
4.11282e-265
1.1493e-262
2.89457e-260
6.6392e-258
1.39887e-255
2.72735e-253
4.95138e-251
8.41576e-249
1.34559e-246
2.03243e-244
2.91096e-242
3.96681e-240
5.15887e-238
6.42065e-236
7.66673e-234
8.80345e-232
9.74157e-230
1.04085e-227
1.07575e-225
1.07727e-223
1.04689e-221
9.88696e-220
9.08618e-218
8.13561e-216
7.10529e-214
6.05911e-212
5.04995e-210
4.11716e-208
3.28614e-206
2.56957e-204
1.96968e-202
1.48092e-200
1.09262e-198
7.91361e-197
5.62822e-195
3.93136e-193
2.69728e-191
1.81766e-189
1.20292e-187
7.30658e-186
3.82949e-184
1.71499e-182
6.49913e-181
2.06513e-179
5.45848e-178
1.19273e-176
2.1461e-175
3.17508e-174
3.8743e-173
3.95554e-172
3.41814e-171
2.46263e-170
1.48706e-169
7.8858e-169
3.79067e-168
1.61777e-167
6.00541e-167
1.95307e-166
5.74566e-166
1.58274e-165
4.1267e-165
1.01232e-164
2.31681e-164
4.93039e-164
9.7722e-164
1.81469e-163
3.185e-163
5.33376e-163
8.58254e-163
1.33459e-162
2.01273e-162
2.94998e-162
4.20718e-162
5.84406e-162
7.91402e-162
1.04586e-161
1.34997e-161
1.70372e-161
2.10474e-161
2.54801e-161
3.02602e-161
3.52913e-161
4.04566e-161
4.56277e-161
5.0668e-161
5.54411e-161
5.98206e-161
6.36406e-161
6.60963e-161
5.96529e-161
1.29483e-161
1.36205e-169
4.52689e-167
2.41783e-159
1.03961e-158
1.14386e-158
1.1034e-158
1.04114e-158
9.69579e-159
8.91105e-159
8.07618e-159
7.21247e-159
6.34173e-159
5.48521e-159
4.66278e-159
3.89148e-159
3.1854e-159
2.55464e-159
2.00511e-159
1.53876e-159
1.15369e-159
8.4427e-160
6.02552e-160
4.19051e-160
2.8366e-160
1.86507e-160
1.18676e-160
7.26519e-161
4.24855e-161
2.35011e-161
1.21895e-161
5.89464e-162
2.65476e-162
1.11814e-162
4.44686e-163
1.68062e-163
5.96097e-164
1.91205e-164
5.3649e-165
1.3103e-165
2.85594e-166
5.67684e-167
9.89741e-168
1.43911e-168
1.74537e-169
1.79661e-170
1.54385e-171
1.09037e-172
6.31527e-174
3.00495e-175
1.17965e-176
3.8458e-178
1.04986e-179
2.42232e-181
4.76975e-183
8.09323e-185
1.25278e-186
1.90157e-188
2.83108e-190
4.13486e-192
5.92442e-194
8.32659e-196
1.14772e-197
1.55102e-199
2.05416e-201
2.66486e-203
3.3844e-205
4.20502e-207
5.10744e-209
6.05931e-211
7.01497e-213
7.91718e-215
8.70116e-217
9.30089e-219
9.65711e-221
9.72597e-223
9.48682e-225
8.94733e-227
8.14472e-229
7.14211e-231
6.02046e-233
4.8673e-235
3.76453e-237
2.77781e-239
1.94959e-241
1.2971e-243
8.1501e-246
4.81601e-248
2.66368e-250
1.37149e-252
6.53285e-255
2.85791e-257
1.13837e-259
4.08601e-262
1.30483e-264
3.64803e-267
8.74402e-270
1.74635e-272
2.78901e-275
3.33821e-278
2.6613e-281
1.0603e-284
2.18598e-284
5.43941e-281
6.74877e-278
5.57332e-275
3.44845e-272
1.706e-269
7.03215e-267
2.48515e-264
7.68935e-262
2.11688e-259
5.25194e-257
1.18652e-254
2.46216e-252
4.72727e-250
8.45036e-248
1.41406e-245
2.22565e-243
3.30881e-241
4.66381e-239
6.25356e-237
8.00116e-235
9.79523e-233
1.15028e-230
1.29873e-228
1.41279e-226
1.48362e-224
1.50671e-222
1.48222e-220
1.41462e-218
1.31166e-216
1.18309e-214
1.03934e-212
8.90251e-211
7.44263e-209
6.07854e-207
4.85394e-205
3.79261e-203
2.90147e-201
2.17463e-199
1.59756e-197
1.1508e-195
8.13111e-194
5.6363e-192
3.8333e-190
2.55786e-188
1.67434e-186
1.07485e-184
6.2862e-183
3.15789e-181
1.34927e-179
4.8563e-178
1.45936e-176
3.63436e-175
7.4604e-174
1.25853e-172
1.74314e-171
1.98771e-170
1.89865e-169
1.54341e-168
1.04738e-167
5.94472e-167
2.96897e-166
1.35387e-165
5.50861e-165
1.95232e-164
6.0613e-164
1.70355e-163
4.49766e-163
1.12875e-162
2.67501e-162
5.92944e-162
1.22434e-161
2.35766e-161
4.25829e-161
7.27712e-161
1.1881e-160
1.86641e-160
2.83785e-160
4.19156e-160
6.02629e-160
8.44339e-160
1.15383e-159
1.53919e-159
2.00616e-159
2.55679e-159
3.18927e-159
3.89799e-159
4.67304e-159
5.50061e-159
6.36389e-159
7.24305e-159
8.11674e-159
8.96285e-159
9.75969e-159
1.04876e-158
1.11201e-158
1.15213e-158
1.04032e-158
2.33285e-159
3.89907e-167
1.08993e-164
3.62443e-157
1.5181e-156
1.6718e-156
1.61667e-156
1.53035e-156
1.43079e-156
1.32121e-156
1.20405e-156
1.08213e-156
9.58363e-157
8.35643e-157
7.16755e-157
6.0415e-157
4.99942e-157
4.05743e-157
3.22617e-157
2.51098e-157
1.91169e-157
1.42245e-157
1.03367e-157
7.33053e-158
5.06795e-158
3.4087e-158
2.2222e-158
1.39571e-158
8.38475e-159
4.77028e-159
2.5479e-159
1.2707e-159
5.9135e-160
2.58048e-160
1.06726e-160
4.21256e-161
1.56525e-161
5.26288e-162
1.54786e-162
3.96947e-163
9.13509e-164
1.93159e-164
3.5873e-165
5.54244e-166
7.1576e-167
7.89354e-168
7.27067e-169
5.49306e-170
3.39892e-171
1.7245e-172
7.19787e-174
2.48595e-175
7.16057e-177
1.73588e-178
3.57592e-180
6.32063e-182
1.01122e-183
1.58397e-185
2.43025e-187
3.65329e-189
5.38156e-191
7.76832e-193
1.09874e-194
1.52233e-196
2.06553e-198
2.7433e-200
3.56458e-202
4.52864e-204
5.6214e-206
6.81231e-208
8.0525e-210
9.27534e-212
1.03998e-213
1.13373e-215
1.20012e-217
1.2319e-219
1.22436e-221
1.17629e-223
1.0905e-225
9.73662e-228
8.35514e-230
6.87497e-232
5.41096e-234
4.06232e-236
2.90038e-238
1.96272e-240
1.25419e-242
7.53608e-245
4.23783e-247
2.21822e-249
1.07403e-251
4.7755e-254
1.93315e-256
7.05094e-259
2.28784e-261
6.49852e-264
1.58238e-266
3.21024e-269
5.20742e-272
6.33016e-275
5.12488e-278
2.07332e-281
4.41718e-281
1.08208e-277
1.32164e-274
1.07434e-271
6.54267e-269
3.18548e-266
1.29213e-263
4.49317e-261
1.36782e-258
3.7045e-256
9.04072e-254
2.00892e-251
4.09974e-249
7.74023e-247
1.36041e-244
2.23799e-242
3.46245e-240
5.05909e-238
7.0073e-236
9.23162e-234
1.1603e-231
1.39515e-229
1.60884e-227
1.78339e-225
1.90425e-223
1.96238e-221
1.95522e-219
1.88654e-217
1.76543e-215
1.60454e-213
1.41813e-211
1.22027e-209
1.02339e-207
8.37316e-206
6.6894e-204
5.22249e-202
3.98719e-200
2.97864e-198
2.1785e-196
1.56052e-194
1.09519e-192
7.5321e-191
5.07683e-189
3.35361e-187
2.17077e-185
1.37647e-183
8.54639e-182
4.79459e-180
2.29953e-178
9.33611e-177
3.1784e-175
8.99618e-174
2.10249e-172
4.03929e-171
6.36762e-170
8.23441e-169
8.74982e-168
7.7961e-167
5.95036e-166
3.79846e-165
2.02326e-164
9.49886e-164
4.10284e-163
1.58978e-162
5.37475e-162
1.59179e-161
4.27037e-161
1.07956e-160
2.6053e-160
5.95949e-160
1.27838e-159
2.5595e-159
4.78615e-159
8.40481e-159
1.39812e-158
2.22484e-158
3.4113e-158
5.07029e-158
7.33236e-158
1.03377e-157
1.42248e-157
1.91175e-157
2.51133e-157
3.22726e-157
4.05983e-157
5.00388e-157
6.04914e-157
7.17968e-157
8.37471e-157
9.60986e-157
1.08573e-156
1.20877e-156
1.32715e-156
1.43801e-156
1.53882e-156
1.6261e-156
1.68051e-156
1.5173e-156
3.50783e-157
9.52036e-165
2.25288e-162
4.53825e-155
1.85622e-154
2.04726e-154
1.98507e-154
1.88543e-154
1.77008e-154
1.64261e-154
1.50561e-154
1.36212e-154
1.21538e-154
1.06868e-154
9.25216e-155
7.87922e-155
6.59413e-155
5.41801e-155
4.36611e-155
3.44799e-155
2.66678e-155
2.0184e-155
1.49395e-155
1.08067e-155
7.6322e-156
5.25212e-156
3.5084e-156
2.26106e-156
1.39574e-156
8.17043e-157
4.49704e-157
2.31526e-157
1.11468e-157
5.0456e-158
2.17256e-158
8.96384e-159
3.49167e-159
1.23156e-159
3.80077e-160
1.02493e-160
2.4948e-161
5.6222e-162
1.11393e-162
1.83131e-163
2.52365e-164
2.99114e-165
2.96141e-166
2.39982e-167
1.59175e-168
8.64387e-170
3.85104e-171
1.4147e-172
4.31702e-174
1.10402e-175
2.38877e-177
4.41548e-179
7.32374e-181
1.18725e-182
1.88225e-184
2.91967e-186
4.43233e-188
6.58617e-190
9.57933e-192