/*--------------------------------*- C++ -*----------------------------------*\
| =========                 |                                                 |
| \\      /  F ield         | OpenFOAM: The Open Source CFD Toolbox           |
|  \\    /   O peration     | Version:  2412                                  |
|   \\  /    A nd           | Website:  www.openfoam.com                      |
|    \\/     M anipulation  |                                                 |
\*---------------------------------------------------------------------------*/
FoamFile
{
    version     2.0;
    format      ascii;
    arch        "LSB;label=32;scalar=64";
    class       volScalarField;
    location    "1.12";
    object      p;
}
// * * * * * * * * * * * * * * * * * * * * * * * * * * * * * * * * * * * * * //

dimensions      [1 -1 -2 0 0 0 0];

internalField   nonuniform List<scalar> 
40000
(
0
-5.50833e-05
-0.000240725
-0.000576618
-0.00106513
-0.00170556
-0.0024969
-0.00343849
-0.00452939
-0.00576856
-0.00715488
-0.00868723
-0.0103645
-0.0121854
-0.0141487
-0.0162528
-0.018496
-0.0208767
-0.0233931
-0.0260432
-0.0288251
-0.0317366
-0.0347756
-0.0379396
-0.0412261
-0.0446324
-0.0481559
-0.0517938
-0.0555432
-0.0594009
-0.0633637
-0.0674284
-0.0715917
-0.0758499
-0.0801996
-0.0846369
-0.0891581
-0.0937593
-0.0984363
-0.103185
-0.108001
-0.11288
-0.117818
-0.12281
-0.127852
-0.132938
-0.138064
-0.143225
-0.148417
-0.153633
-0.158869
-0.16412
-0.16938
-0.174645
-0.179908
-0.185164
-0.190409
-0.195636
-0.20084
-0.206016
-0.211157
-0.216259
-0.221316
-0.226322
-0.231271
-0.236159
-0.24098
-0.245728
-0.250398
-0.254985
-0.259482
-0.263886
-0.268191
-0.272392
-0.276484
-0.280462
-0.284321
-0.288058
-0.291666
-0.295142
-0.298482
-0.301681
-0.304736
-0.307643
-0.310398
-0.312999
-0.315441
-0.317721
-0.319837
-0.321786
-0.323566
-0.325174
-0.326608
-0.327867
-0.328949
-0.329853
-0.330577
-0.33112
-0.331482
-0.331663
-0.331662
-0.331479
-0.331114
-0.330568
-0.329841
-0.328935
-0.32785
-0.326589
-0.325151
-0.323541
-0.321758
-0.319806
-0.317688
-0.315405
-0.31296
-0.310358
-0.3076
-0.30469
-0.301633
-0.298431
-0.295088
-0.29161
-0.287999
-0.28426
-0.280398
-0.276418
-0.272324
-0.268121
-0.263814
-0.259407
-0.254907
-0.250318
-0.245646
-0.240896
-0.236074
-0.231184
-0.226232
-0.221224
-0.216166
-0.211062
-0.205919
-0.200742
-0.195536
-0.190307
-0.185061
-0.179803
-0.174538
-0.169272
-0.16401
-0.158758
-0.15352
-0.148303
-0.14311
-0.137948
-0.13282
-0.127733
-0.12269
-0.117697
-0.112758
-0.107877
-0.10306
-0.0983103
-0.0936322
-0.08903
-0.0845078
-0.0800694
-0.0757188
-0.0714595
-0.0672953
-0.0632296
-0.0592658
-0.0554073
-0.0516573
-0.0480186
-0.0444944
-0.0410873
-0.0378002
-0.0346356
-0.031596
-0.0286837
-0.0259008
-0.0232498
-0.0207324
-0.0183509
-0.0161069
-0.0140019
-0.0120379
-0.0102159
-0.00853746
-0.00700387
-0.00561604
-0.00437516
-0.00328225
-0.00233784
-0.00154259
-0.000897106
-0.00040175
-5.76858e-05
0.000133843
0.000180567
-3.92396
-3.924
-3.92419
-3.92452
-3.92501
-3.92565
-3.92644
-3.92739
-3.92848
-3.92972
-3.9311
-3.93264
-3.93431
-3.93614
-3.9381
-3.9402
-3.94245
-3.94483
-3.94735
-3.95
-3.95278
-3.95569
-3.95873
-3.9619
-3.96519
-3.96859
-3.97212
-3.97576
-3.97951
-3.98337
-3.98733
-3.9914
-3.99556
-3.99982
-4.00417
-4.00861
-4.01313
-4.01773
-4.02241
-4.02716
-4.03198
-4.03686
-4.0418
-4.0468
-4.05184
-4.05693
-4.06205
-4.06722
-4.07241
-4.07763
-4.08287
-4.08812
-4.09338
-4.09865
-4.10391
-4.10917
-4.11442
-4.11965
-4.12485
-4.13003
-4.13517
-4.14028
-4.14534
-4.15034
-4.1553
-4.16019
-4.16501
-4.16976
-4.17443
-4.17902
-4.18352
-4.18792
-4.19223
-4.19643
-4.20053
-4.20451
-4.20837
-4.2121
-4.21571
-4.21919
-4.22253
-4.22573
-4.22879
-4.2317
-4.23445
-4.23705
-4.2395
-4.24178
-4.24389
-4.24584
-4.24763
-4.24923
-4.25067
-4.25193
-4.25301
-4.25391
-4.25464
-4.25518
-4.25554
-4.25573
-4.25572
-4.25554
-4.25518
-4.25463
-4.2539
-4.253
-4.25191
-4.25065
-4.24921
-4.2476
-4.24582
-4.24386
-4.24174
-4.23946
-4.23702
-4.23441
-4.23165
-4.22874
-4.22568
-4.22248
-4.21914
-4.21566
-4.21204
-4.2083
-4.20444
-4.20046
-4.19636
-4.19216
-4.18785
-4.18344
-4.17894
-4.17435
-4.16968
-4.16492
-4.1601
-4.15521
-4.15025
-4.14524
-4.14018
-4.13508
-4.12993
-4.12475
-4.11955
-4.11432
-4.10907
-4.10381
-4.09854
-4.09327
-4.08801
-4.08276
-4.07752
-4.0723
-4.0671
-4.06194
-4.05681
-4.05172
-4.04668
-4.04168
-4.03674
-4.03186
-4.02704
-4.02229
-4.01761
-4.013
-4.00848
-4.00404
-3.99969
-3.99543
-3.99126
-3.9872
-3.98323
-3.97937
-3.97562
-3.97198
-3.96845
-3.96505
-3.96176
-3.95859
-3.95555
-3.95264
-3.94986
-3.9472
-3.94469
-3.9423
-3.94006
-3.93795
-3.93599
-3.93417
-3.93249
-3.93095
-3.92956
-3.92832
-3.92723
-3.92629
-3.92549
-3.92484
-3.92435
-3.92401
-3.92382
-3.92377
-7.84776
-7.84781
-7.848
-7.84833
-7.84883
-7.84947
-7.85026
-7.8512
-7.8523
-7.85354
-7.85493
-7.85646
-7.85814
-7.85996
-7.86193
-7.86403
-7.86628
-7.86866
-7.87118
-7.87384
-7.87662
-7.87954
-7.88258
-7.88575
-7.88904
-7.89245
-7.89598
-7.89962
-7.90337
-7.90724
-7.91121
-7.91528
-7.91944
-7.92371
-7.92806
-7.93251
-7.93704
-7.94164
-7.94633
-7.95108
-7.95591
-7.96079
-7.96574
-7.97074
-7.97579
-7.98088
-7.98601
-7.99118
-7.99638
-8.00161
-8.00685
-8.01211
-8.01738
-8.02265
-8.02793
-8.03319
-8.03844
-8.04368
-8.04889
-8.05408
-8.05923
-8.06434
-8.0694
-8.07442
-8.07938
-8.08427
-8.0891
-8.09386
-8.09854
-8.10313
-8.10764
-8.11205
-8.11636
-8.12057
-8.12467
-8.12866
-8.13252
-8.13627
-8.13988
-8.14336
-8.14671
-8.14992
-8.15298
-8.15589
-8.15865
-8.16126
-8.1637
-8.16599
-8.16811
-8.17006
-8.17184
-8.17346
-8.17489
-8.17615
-8.17724
-8.17814
-8.17887
-8.17941
-8.17978
-8.17996
-8.17996
-8.17977
-8.17941
-8.17886
-8.17813
-8.17722
-8.17614
-8.17487
-8.17343
-8.17182
-8.17003
-8.16808
-8.16595
-8.16367
-8.16122
-8.15861
-8.15585
-8.15293
-8.14987
-8.14666
-8.14331
-8.13983
-8.13621
-8.13246
-8.12859
-8.12461
-8.1205
-8.11629
-8.11198
-8.10756
-8.10305
-8.09846
-8.09378
-8.08902
-8.08419
-8.07929
-8.07433
-8.06931
-8.06424
-8.05913
-8.05398
-8.04879
-8.04358
-8.03834
-8.03309
-8.02782
-8.02255
-8.01727
-8.012
-8.00674
-8.00149
-7.99627
-7.99107
-7.9859
-7.98076
-7.97567
-7.97062
-7.96562
-7.96067
-7.95578
-7.95096
-7.9462
-7.94152
-7.93691
-7.93238
-7.92793
-7.92358
-7.91931
-7.91514
-7.91107
-7.9071
-7.90324
-7.89948
-7.89584
-7.89231
-7.8889
-7.88561
-7.88244
-7.8794
-7.87648
-7.87369
-7.87104
-7.86852
-7.86613
-7.86389
-7.86178
-7.85981
-7.85799
-7.85631
-7.85477
-7.85338
-7.85214
-7.85105
-7.8501
-7.84931
-7.84866
-7.84817
-7.84782
-7.84763
-7.84758
-11.7714
-11.7715
-11.7717
-11.772
-11.7725
-11.7731
-11.7739
-11.7749
-11.776
-11.7772
-11.7786
-11.7801
-11.7818
-11.7836
-11.7856
-11.7877
-11.79
-11.7924
-11.7949
-11.7975
-11.8003
-11.8033
-11.8063
-11.8095
-11.8128
-11.8162
-11.8197
-11.8234
-11.8271
-11.831
-11.835
-11.8391
-11.8432
-11.8475
-11.8519
-11.8563
-11.8609
-11.8655
-11.8702
-11.8749
-11.8798
-11.8847
-11.8896
-11.8946
-11.8997
-11.9048
-11.9099
-11.9151
-11.9203
-11.9256
-11.9308
-11.9361
-11.9414
-11.9467
-11.9519
-11.9572
-11.9625
-11.9677
-11.973
-11.9782
-11.9833
-11.9884
-11.9935
-11.9986
-12.0035
-12.0084
-12.0133
-12.018
-12.0227
-12.0273
-12.0319
-12.0363
-12.0406
-12.0448
-12.0489
-12.0529
-12.0568
-12.0606
-12.0642
-12.0677
-12.071
-12.0743
-12.0773
-12.0802
-12.083
-12.0856
-12.0881
-12.0904
-12.0925
-12.0945
-12.0962
-12.0979
-12.0993
-12.1006
-12.1017
-12.1026
-12.1033
-12.1038
-12.1042
-12.1044
-12.1044
-12.1042
-12.1038
-12.1033
-12.1026
-12.1016
-12.1006
-12.0993
-12.0978
-12.0962
-12.0944
-12.0925
-12.0903
-12.088
-12.0856
-12.083
-12.0802
-12.0773
-12.0742
-12.071
-12.0676
-12.0641
-12.0605
-12.0567
-12.0529
-12.0489
-12.0448
-12.0405
-12.0362
-12.0318
-12.0273
-12.0227
-12.018
-12.0132
-12.0083
-12.0034
-11.9985
-11.9934
-11.9884
-11.9832
-11.9781
-11.9729
-11.9676
-11.9624
-11.9571
-11.9518
-11.9466
-11.9413
-11.936
-11.9307
-11.9255
-11.9202
-11.915
-11.9098
-11.9047
-11.8996
-11.8945
-11.8895
-11.8845
-11.8796
-11.8748
-11.87
-11.8653
-11.8607
-11.8562
-11.8517
-11.8474
-11.8431
-11.8389
-11.8348
-11.8309
-11.827
-11.8232
-11.8196
-11.8161
-11.8126
-11.8093
-11.8062
-11.8031
-11.8002
-11.7974
-11.7947
-11.7922
-11.7898
-11.7876
-11.7855
-11.7835
-11.7817
-11.78
-11.7784
-11.7771
-11.7758
-11.7747
-11.7738
-11.773
-11.7723
-11.7718
-11.7715
-11.7713
-11.7712
-15.6949
-15.695
-15.6952
-15.6955
-15.696
-15.6967
-15.6974
-15.6984
-15.6995
-15.7007
-15.7021
-15.7037
-15.7054
-15.7072
-15.7092
-15.7113
-15.7135
-15.7159
-15.7185
-15.7211
-15.7239
-15.7268
-15.7299
-15.7331
-15.7364
-15.7398
-15.7434
-15.747
-15.7508
-15.7547
-15.7587
-15.7627
-15.7669
-15.7712
-15.7756
-15.7801
-15.7846
-15.7892
-15.7939
-15.7987
-15.8036
-15.8085
-15.8134
-15.8185
-15.8235
-15.8287
-15.8338
-15.839
-15.8443
-15.8495
-15.8548
-15.8601
-15.8654
-15.8707
-15.876
-15.8813
-15.8865
-15.8918
-15.8971
-15.9023
-15.9075
-15.9126
-15.9177
-15.9227
-15.9277
-15.9327
-15.9375
-15.9423
-15.947
-15.9516
-15.9562
-15.9606
-15.965
-15.9692
-15.9733
-15.9773
-15.9812
-15.985
-15.9886
-15.9921
-15.9955
-15.9987
-16.0018
-16.0048
-16.0075
-16.0102
-16.0126
-16.0149
-16.0171
-16.019
-16.0208
-16.0224
-16.0239
-16.0252
-16.0263
-16.0272
-16.0279
-16.0284
-16.0288
-16.029
-16.029
-16.0288
-16.0284
-16.0279
-16.0272
-16.0262
-16.0251
-16.0239
-16.0224
-16.0208
-16.019
-16.017
-16.0149
-16.0126
-16.0101
-16.0075
-16.0047
-16.0018
-15.9987
-15.9955
-15.9921
-15.9886
-15.9849
-15.9812
-15.9773
-15.9733
-15.9691
-15.9649
-15.9605
-15.9561
-15.9516
-15.9469
-15.9422
-15.9374
-15.9326
-15.9276
-15.9226
-15.9176
-15.9125
-15.9074
-15.9022
-15.897
-15.8917
-15.8864
-15.8812
-15.8759
-15.8706
-15.8653
-15.86
-15.8547
-15.8494
-15.8441
-15.8389
-15.8337
-15.8285
-15.8234
-15.8184
-15.8133
-15.8084
-15.8034
-15.7986
-15.7938
-15.7891
-15.7845
-15.7799
-15.7755
-15.7711
-15.7668
-15.7626
-15.7585
-15.7545
-15.7506
-15.7469
-15.7432
-15.7397
-15.7362
-15.7329
-15.7298
-15.7267
-15.7238
-15.721
-15.7183
-15.7158
-15.7134
-15.7111
-15.709
-15.707
-15.7052
-15.7035
-15.702
-15.7006
-15.6993
-15.6982
-15.6973
-15.6965
-15.6958
-15.6953
-15.695
-15.6948
-15.6948
-19.6183
-19.6183
-19.6185
-19.6189
-19.6194
-19.62
-19.6208
-19.6218
-19.6229
-19.6241
-19.6255
-19.6271
-19.6288
-19.6306
-19.6326
-19.6347
-19.637
-19.6394
-19.6419
-19.6446
-19.6474
-19.6503
-19.6534
-19.6566
-19.6599
-19.6633
-19.6669
-19.6705
-19.6743
-19.6782
-19.6822
-19.6863
-19.6905
-19.6948
-19.6992
-19.7037
-19.7083
-19.7129
-19.7176
-19.7224
-19.7273
-19.7322
-19.7372
-19.7423
-19.7474
-19.7525
-19.7577
-19.7629
-19.7681
-19.7734
-19.7787
-19.784
-19.7893
-19.7947
-19.8
-19.8053
-19.8106
-19.8159
-19.8212
-19.8264
-19.8316
-19.8368
-19.8419
-19.847
-19.852
-19.857
-19.8618
-19.8666
-19.8714
-19.876
-19.8806
-19.885
-19.8894
-19.8937
-19.8978
-19.9019
-19.9058
-19.9096
-19.9132
-19.9167
-19.9201
-19.9234
-19.9265
-19.9294
-19.9322
-19.9349
-19.9373
-19.9396
-19.9418
-19.9438
-19.9456
-19.9472
-19.9487
-19.9499
-19.951
-19.952
-19.9527
-19.9532
-19.9536
-19.9538
-19.9538
-19.9536
-19.9532
-19.9527
-19.952
-19.951
-19.9499
-19.9486
-19.9472
-19.9456
-19.9437
-19.9418
-19.9396
-19.9373
-19.9348
-19.9322
-19.9294
-19.9264
-19.9233
-19.9201
-19.9167
-19.9132
-19.9095
-19.9057
-19.9018
-19.8978
-19.8936
-19.8893
-19.885
-19.8805
-19.8759
-19.8713
-19.8666
-19.8618
-19.8569
-19.8519
-19.8469
-19.8418
-19.8367
-19.8315
-19.8263
-19.8211
-19.8158
-19.8105
-19.8052
-19.7999
-19.7946
-19.7892
-19.7839
-19.7786
-19.7733
-19.768
-19.7628
-19.7576
-19.7524
-19.7472
-19.7421
-19.7371
-19.7321
-19.7272
-19.7223
-19.7175
-19.7128
-19.7081
-19.7036
-19.6991
-19.6947
-19.6904
-19.6862
-19.6821
-19.6781
-19.6742
-19.6704
-19.6667
-19.6632
-19.6597
-19.6564
-19.6532
-19.6502
-19.6472
-19.6444
-19.6418
-19.6392
-19.6368
-19.6345
-19.6324
-19.6304
-19.6286
-19.6269
-19.6254
-19.624
-19.6227
-19.6216
-19.6207
-19.6199
-19.6192
-19.6187
-19.6184
-19.6182
-19.6181
-23.5415
-23.5416
-23.5417
-23.5421
-23.5426
-23.5432
-23.544
-23.545
-23.5461
-23.5474
-23.5488
-23.5503
-23.552
-23.5539
-23.5558
-23.558
-23.5602
-23.5627
-23.5652
-23.5679
-23.5707
-23.5737
-23.5767
-23.5799
-23.5833
-23.5867
-23.5903
-23.594
-23.5978
-23.6017
-23.6057
-23.6098
-23.614
-23.6184
-23.6228
-23.6273
-23.6319
-23.6365
-23.6413
-23.6461
-23.651
-23.6559
-23.6609
-23.666
-23.6711
-23.6763
-23.6815
-23.6867
-23.692
-23.6973
-23.7026
-23.708
-23.7133
-23.7187
-23.724
-23.7294
-23.7347
-23.74
-23.7453
-23.7506
-23.7558
-23.761
-23.7662
-23.7713
-23.7763
-23.7813
-23.7862
-23.7911
-23.7958
-23.8005
-23.8051
-23.8096
-23.814
-23.8183
-23.8224
-23.8265
-23.8304
-23.8342
-23.8379
-23.8415
-23.8449
-23.8482
-23.8513
-23.8542
-23.8571
-23.8597
-23.8622
-23.8645
-23.8667
-23.8687
-23.8705
-23.8722
-23.8736
-23.8749
-23.876
-23.8769
-23.8777
-23.8782
-23.8786
-23.8788
-23.8788
-23.8786
-23.8782
-23.8777
-23.8769
-23.876
-23.8749
-23.8736
-23.8721
-23.8705
-23.8687
-23.8667
-23.8645
-23.8622
-23.8597
-23.857
-23.8542
-23.8512
-23.8481
-23.8448
-23.8414
-23.8379
-23.8342
-23.8304
-23.8264
-23.8224
-23.8182
-23.8139
-23.8095
-23.805
-23.8004
-23.7957
-23.791
-23.7861
-23.7812
-23.7762
-23.7712
-23.7661
-23.7609
-23.7557
-23.7505
-23.7452
-23.7399
-23.7346
-23.7293
-23.7239
-23.7186
-23.7132
-23.7079
-23.7025
-23.6972
-23.6919
-23.6866
-23.6814
-23.6762
-23.671
-23.6659
-23.6608
-23.6558
-23.6508
-23.646
-23.6411
-23.6364
-23.6317
-23.6271
-23.6226
-23.6182
-23.6139
-23.6097
-23.6056
-23.6015
-23.5976
-23.5938
-23.5901
-23.5866
-23.5831
-23.5798
-23.5766
-23.5735
-23.5706
-23.5677
-23.5651
-23.5625
-23.5601
-23.5578
-23.5557
-23.5537
-23.5519
-23.5502
-23.5486
-23.5472
-23.546
-23.5448
-23.5439
-23.5431
-23.5424
-23.5419
-23.5416
-23.5414
-23.5413
-27.4646
-27.4646
-27.4648
-27.4652
-27.4657
-27.4663
-27.4671
-27.4681
-27.4692
-27.4705
-27.4719
-27.4734
-27.4751
-27.477
-27.479
-27.4811
-27.4834
-27.4858
-27.4884
-27.4911
-27.4939
-27.4969
-27.5
-27.5032
-27.5065
-27.51
-27.5136
-27.5173
-27.5211
-27.525
-27.5291
-27.5332
-27.5374
-27.5418
-27.5462
-27.5507
-27.5554
-27.56
-27.5648
-27.5697
-27.5746
-27.5796
-27.5846
-27.5897
-27.5948
-27.6
-27.6053
-27.6106
-27.6159
-27.6212
-27.6266
-27.6319
-27.6373
-27.6427
-27.6481
-27.6535
-27.6588
-27.6642
-27.6695
-27.6748
-27.6801
-27.6853
-27.6905
-27.6956
-27.7007
-27.7057
-27.7107
-27.7156
-27.7204
-27.7251
-27.7297
-27.7342
-27.7386
-27.743
-27.7472
-27.7513
-27.7552
-27.7591
-27.7628
-27.7664
-27.7698
-27.7731
-27.7762
-27.7792
-27.7821
-27.7847
-27.7873
-27.7896
-27.7918
-27.7938
-27.7956
-27.7973
-27.7988
-27.8001
-27.8012
-27.8021
-27.8029
-27.8034
-27.8038
-27.804
-27.804
-27.8038
-27.8034
-27.8029
-27.8021
-27.8012
-27.8001
-27.7988
-27.7973
-27.7956
-27.7938
-27.7918
-27.7896
-27.7872
-27.7847
-27.782
-27.7792
-27.7762
-27.773
-27.7697
-27.7663
-27.7627
-27.759
-27.7552
-27.7512
-27.7471
-27.7429
-27.7386
-27.7341
-27.7296
-27.725
-27.7203
-27.7155
-27.7106
-27.7057
-27.7006
-27.6956
-27.6904
-27.6852
-27.68
-27.6747
-27.6694
-27.6641
-27.6587
-27.6534
-27.648
-27.6426
-27.6372
-27.6318
-27.6264
-27.6211
-27.6157
-27.6104
-27.6052
-27.5999
-27.5947
-27.5896
-27.5845
-27.5794
-27.5745
-27.5695
-27.5647
-27.5599
-27.5552
-27.5506
-27.5461
-27.5417
-27.5373
-27.5331
-27.5289
-27.5249
-27.521
-27.5171
-27.5134
-27.5099
-27.5064
-27.503
-27.4998
-27.4967
-27.4938
-27.4909
-27.4882
-27.4857
-27.4833
-27.481
-27.4788
-27.4768
-27.475
-27.4733
-27.4717
-27.4703
-27.469
-27.4679
-27.467
-27.4662
-27.4655
-27.465
-27.4647
-27.4645
-27.4644
-31.3875
-31.3875
-31.3877
-31.3881
-31.3886
-31.3893
-31.3901
-31.391
-31.3921
-31.3934
-31.3948
-31.3964
-31.3981
-31.4
-31.402
-31.4041
-31.4064
-31.4088
-31.4114
-31.4141
-31.417
-31.42
-31.4231
-31.4263
-31.4297
-31.4331
-31.4368
-31.4405
-31.4443
-31.4483
-31.4523
-31.4565
-31.4608
-31.4651
-31.4696
-31.4741
-31.4788
-31.4835
-31.4883
-31.4932
-31.4981
-31.5031
-31.5082
-31.5133
-31.5185
-31.5238
-31.529
-31.5343
-31.5397
-31.5451
-31.5504
-31.5559
-31.5613
-31.5667
-31.5721
-31.5776
-31.583
-31.5884
-31.5937
-31.5991
-31.6044
-31.6097
-31.6149
-31.6201
-31.6252
-31.6302
-31.6352
-31.6401
-31.645
-31.6497
-31.6544
-31.659
-31.6634
-31.6678
-31.672
-31.6762
-31.6802
-31.684
-31.6878
-31.6914
-31.6949
-31.6982
-31.7014
-31.7044
-31.7072
-31.7099
-31.7125
-31.7149
-31.7171
-31.7191
-31.7209
-31.7226
-31.7241
-31.7254
-31.7265
-31.7275
-31.7282
-31.7288
-31.7292
-31.7294
-31.7294
-31.7292
-31.7288
-31.7282
-31.7275
-31.7265
-31.7254
-31.7241
-31.7226
-31.7209
-31.7191
-31.717
-31.7148
-31.7124
-31.7099
-31.7072
-31.7043
-31.7013
-31.6981
-31.6948
-31.6913
-31.6877
-31.684
-31.6801
-31.6761
-31.672
-31.6677
-31.6634
-31.6589
-31.6543
-31.6497
-31.6449
-31.6401
-31.6351
-31.6302
-31.6251
-31.62
-31.6148
-31.6096
-31.6043
-31.599
-31.5936
-31.5883
-31.5829
-31.5774
-31.572
-31.5666
-31.5612
-31.5557
-31.5503
-31.5449
-31.5396
-31.5342
-31.5289
-31.5236
-31.5184
-31.5132
-31.5081
-31.503
-31.498
-31.4931
-31.4882
-31.4834
-31.4786
-31.474
-31.4695
-31.465
-31.4606
-31.4564
-31.4522
-31.4481
-31.4442
-31.4403
-31.4366
-31.433
-31.4295
-31.4262
-31.4229
-31.4198
-31.4168
-31.414
-31.4113
-31.4087
-31.4063
-31.404
-31.4018
-31.3998
-31.398
-31.3962
-31.3947
-31.3933
-31.392
-31.3909
-31.3899
-31.3891
-31.3884
-31.3879
-31.3876
-31.3874
-31.3873
-35.3103
-35.3103
-35.3105
-35.3109
-35.3114
-35.312
-35.3128
-35.3138
-35.3149
-35.3162
-35.3176
-35.3192
-35.3209
-35.3228
-35.3248
-35.327
-35.3293
-35.3317
-35.3343
-35.3371
-35.3399
-35.3429
-35.346
-35.3493
-35.3527
-35.3562
-35.3598
-35.3636
-35.3674
-35.3714
-35.3755
-35.3797
-35.384
-35.3884
-35.3929
-35.3975
-35.4021
-35.4069
-35.4117
-35.4166
-35.4216
-35.4267
-35.4318
-35.4369
-35.4422
-35.4474
-35.4527
-35.4581
-35.4635
-35.4689
-35.4743
-35.4798
-35.4852
-35.4907
-35.4962
-35.5017
-35.5071
-35.5126
-35.518
-35.5234
-35.5287
-35.534
-35.5393
-35.5445
-35.5497
-35.5548
-35.5598
-35.5648
-35.5697
-35.5745
-35.5792
-35.5838
-35.5883
-35.5927
-35.597
-35.6012
-35.6052
-35.6091
-35.6129
-35.6166
-35.6201
-35.6234
-35.6266
-35.6297
-35.6326
-35.6353
-35.6379
-35.6403
-35.6425
-35.6446
-35.6464
-35.6481
-35.6496
-35.6509
-35.6521
-35.653
-35.6538
-35.6544
-35.6548
-35.6549
-35.6549
-35.6547
-35.6544
-35.6538
-35.653
-35.6521
-35.6509
-35.6496
-35.6481
-35.6464
-35.6445
-35.6425
-35.6402
-35.6378
-35.6353
-35.6325
-35.6296
-35.6266
-35.6234
-35.62
-35.6165
-35.6129
-35.6091
-35.6051
-35.6011
-35.5969
-35.5926
-35.5882
-35.5837
-35.5791
-35.5744
-35.5696
-35.5647
-35.5598
-35.5547
-35.5496
-35.5445
-35.5392
-35.5339
-35.5286
-35.5233
-35.5179
-35.5125
-35.507
-35.5016
-35.4961
-35.4906
-35.4851
-35.4797
-35.4742
-35.4688
-35.4634
-35.458
-35.4526
-35.4473
-35.442
-35.4368
-35.4316
-35.4265
-35.4215
-35.4165
-35.4116
-35.4067
-35.402
-35.3973
-35.3927
-35.3882
-35.3838
-35.3796
-35.3754
-35.3713
-35.3673
-35.3634
-35.3597
-35.356
-35.3525
-35.3492
-35.3459
-35.3428
-35.3398
-35.3369
-35.3342
-35.3316
-35.3291
-35.3268
-35.3247
-35.3227
-35.3208
-35.3191
-35.3175
-35.3161
-35.3148
-35.3137
-35.3127
-35.3119
-35.3112
-35.3107
-35.3104
-35.3102
-35.3101
-39.2329
-39.2329
-39.2331
-39.2335
-39.234
-39.2347
-39.2355
-39.2365
-39.2376
-39.2389
-39.2403
-39.2419
-39.2436
-39.2455
-39.2475
-39.2497
-39.252
-39.2545
-39.2571
-39.2598
-39.2627
-39.2657
-39.2689
-39.2722
-39.2756
-39.2791
-39.2828
-39.2865
-39.2904
-39.2944
-39.2986
-39.3028
-39.3071
-39.3115
-39.3161
-39.3207
-39.3254
-39.3302
-39.335
-39.34
-39.345
-39.3501
-39.3553
-39.3605
-39.3657
-39.371
-39.3764
-39.3818
-39.3872
-39.3927
-39.3982
-39.4037
-39.4092
-39.4147
-39.4202
-39.4258
-39.4313
-39.4368
-39.4422
-39.4477
-39.4531
-39.4585
-39.4638
-39.4691
-39.4743
-39.4795
-39.4845
-39.4896
-39.4945
-39.4993
-39.5041
-39.5088
-39.5133
-39.5178
-39.5221
-39.5263
-39.5304
-39.5344
-39.5382
-39.5419
-39.5454
-39.5488
-39.5521
-39.5552
-39.5581
-39.5609
-39.5634
-39.5659
-39.5681
-39.5702
-39.5721
-39.5738
-39.5753
-39.5767
-39.5778
-39.5788
-39.5796
-39.5801
-39.5805
-39.5807
-39.5807
-39.5805
-39.5801
-39.5796
-39.5788
-39.5778
-39.5767
-39.5753
-39.5738
-39.5721
-39.5702
-39.5681
-39.5658
-39.5634
-39.5608
-39.558
-39.5551
-39.552
-39.5488
-39.5454
-39.5418
-39.5381
-39.5343
-39.5303
-39.5262
-39.522
-39.5177
-39.5132
-39.5087
-39.504
-39.4993
-39.4944
-39.4895
-39.4845
-39.4794
-39.4742
-39.469
-39.4637
-39.4584
-39.453
-39.4476
-39.4421
-39.4367
-39.4312
-39.4257
-39.4201
-39.4146
-39.4091
-39.4036
-39.3981
-39.3926
-39.3871
-39.3817
-39.3763
-39.3709
-39.3656
-39.3603
-39.3551
-39.35
-39.3449
-39.3399
-39.3349
-39.33
-39.3252
-39.3205
-39.3159
-39.3114
-39.307
-39.3026
-39.2984
-39.2943
-39.2903
-39.2864
-39.2826
-39.279
-39.2754
-39.272
-39.2688
-39.2656
-39.2626
-39.2597
-39.257
-39.2544
-39.2519
-39.2496
-39.2474
-39.2454
-39.2435
-39.2417
-39.2402
-39.2387
-39.2374
-39.2363
-39.2353
-39.2345
-39.2338
-39.2333
-39.233
-39.2328
-39.2327
-43.1553
-43.1554
-43.1556
-43.156
-43.1565
-43.1571
-43.158
-43.1589
-43.1601
-43.1614
-43.1628
-43.1644
-43.1662
-43.1681
-43.1701
-43.1723
-43.1746
-43.1771
-43.1797
-43.1825
-43.1854
-43.1884
-43.1916
-43.1949
-43.1984
-43.2019
-43.2056
-43.2094
-43.2133
-43.2174
-43.2215
-43.2258
-43.2301
-43.2346
-43.2392
-43.2438
-43.2486
-43.2534
-43.2583
-43.2633
-43.2684
-43.2735
-43.2787
-43.284
-43.2893
-43.2946
-43.3
-43.3055
-43.311
-43.3165
-43.322
-43.3276
-43.3332
-43.3387
-43.3443
-43.3499
-43.3555
-43.361
-43.3665
-43.372
-43.3775
-43.3829
-43.3883
-43.3937
-43.3989
-43.4042
-43.4093
-43.4144
-43.4194
-43.4243
-43.4291
-43.4338
-43.4384
-43.4429
-43.4473
-43.4516
-43.4557
-43.4597
-43.4636
-43.4673
-43.4709
-43.4744
-43.4777
-43.4808
-43.4838
-43.4866
-43.4892
-43.4917
-43.4939
-43.496
-43.498
-43.4997
-43.5012
-43.5026
-43.5038
-43.5047
-43.5055
-43.5061
-43.5065
-43.5067
-43.5067
-43.5065
-43.5061
-43.5055
-43.5047
-43.5037
-43.5026
-43.5012
-43.4997
-43.4979
-43.496
-43.4939
-43.4916
-43.4892
-43.4865
-43.4837
-43.4807
-43.4776
-43.4743
-43.4709
-43.4673
-43.4635
-43.4597
-43.4557
-43.4515
-43.4472
-43.4429
-43.4383
-43.4337
-43.429
-43.4242
-43.4193
-43.4143
-43.4092
-43.4041
-43.3989
-43.3936
-43.3882
-43.3828
-43.3774
-43.3719
-43.3664
-43.3609
-43.3554
-43.3498
-43.3442
-43.3386
-43.333
-43.3275
-43.3219
-43.3164
-43.3109
-43.3054
-43.2999
-43.2945
-43.2891
-43.2838
-43.2786
-43.2734
-43.2682
-43.2632
-43.2582
-43.2533
-43.2484
-43.2437
-43.239
-43.2345
-43.23
-43.2256
-43.2214
-43.2172
-43.2132
-43.2093
-43.2055
-43.2018
-43.1982
-43.1948
-43.1915
-43.1883
-43.1853
-43.1824
-43.1796
-43.177
-43.1745
-43.1721
-43.17
-43.1679
-43.166
-43.1643
-43.1627
-43.1612
-43.1599
-43.1588
-43.1578
-43.157
-43.1563
-43.1558
-43.1554
-43.1552
-43.1552
-47.0777
-47.0777
-47.0779
-47.0783
-47.0788
-47.0795
-47.0803
-47.0813
-47.0824
-47.0837
-47.0852
-47.0868
-47.0886
-47.0905
-47.0925
-47.0947
-47.0971
-47.0996
-47.1022
-47.105
-47.108
-47.111
-47.1142
-47.1175
-47.121
-47.1246
-47.1283
-47.1321
-47.1361
-47.1402
-47.1444
-47.1487
-47.1531
-47.1576
-47.1622
-47.1669
-47.1716
-47.1765
-47.1815
-47.1865
-47.1916
-47.1968
-47.2021
-47.2074
-47.2128
-47.2182
-47.2236
-47.2291
-47.2347
-47.2403
-47.2459
-47.2515
-47.2571
-47.2627
-47.2684
-47.274
-47.2797
-47.2853
-47.2909
-47.2964
-47.302
-47.3075
-47.3129
-47.3183
-47.3237
-47.3289
-47.3342
-47.3393
-47.3443
-47.3493
-47.3542
-47.359
-47.3636
-47.3682
-47.3726
-47.377
-47.3812
-47.3852
-47.3892
-47.393
-47.3966
-47.4001
-47.4034
-47.4066
-47.4096
-47.4124
-47.4151
-47.4176
-47.4199
-47.4221
-47.424
-47.4258
-47.4273
-47.4287
-47.4299
-47.4309
-47.4317
-47.4323
-47.4327
-47.4329
-47.4329
-47.4327
-47.4323
-47.4317
-47.4309
-47.4299
-47.4287
-47.4273
-47.4257
-47.424
-47.422
-47.4199
-47.4176
-47.4151
-47.4124
-47.4096
-47.4066
-47.4034
-47.4
-47.3965
-47.3929
-47.3891
-47.3852
-47.3811
-47.3769
-47.3726
-47.3681
-47.3636
-47.3589
-47.3541
-47.3492
-47.3443
-47.3392
-47.3341
-47.3289
-47.3236
-47.3182
-47.3128
-47.3074
-47.3019
-47.2963
-47.2908
-47.2852
-47.2795
-47.2739
-47.2683
-47.2626
-47.257
-47.2514
-47.2457
-47.2401
-47.2346
-47.229
-47.2235
-47.218
-47.2126
-47.2073
-47.2019
-47.1967
-47.1915
-47.1864
-47.1814
-47.1764
-47.1715
-47.1667
-47.162
-47.1574
-47.1529
-47.1485
-47.1442
-47.14
-47.136
-47.132
-47.1282
-47.1245
-47.1209
-47.1174
-47.1141
-47.1109
-47.1078
-47.1049
-47.1021
-47.0995
-47.0969
-47.0946
-47.0924
-47.0903
-47.0884
-47.0866
-47.085
-47.0836
-47.0823
-47.0811
-47.0801
-47.0793
-47.0786
-47.0781
-47.0778
-47.0776
-47.0775
-50.9998
-50.9999
-51.0001
-51.0004
-51.001
-51.0016
-51.0025
-51.0035
-51.0046
-51.0059
-51.0074
-51.009
-51.0108
-51.0127
-51.0148
-51.017
-51.0194
-51.0219
-51.0246
-51.0274
-51.0304
-51.0335
-51.0367
-51.04
-51.0435
-51.0472
-51.0509
-51.0548
-51.0588
-51.0629
-51.0671
-51.0714
-51.0759
-51.0804
-51.0851
-51.0898
-51.0947
-51.0996
-51.1046
-51.1097
-51.1148
-51.1201
-51.1254
-51.1308
-51.1362
-51.1417
-51.1472
-51.1528
-51.1584
-51.164
-51.1697
-51.1753
-51.181
-51.1867
-51.1925
-51.1982
-51.2039
-51.2096
-51.2152
-51.2209
-51.2265
-51.232
-51.2376
-51.243
-51.2484
-51.2538
-51.2591
-51.2643
-51.2694
-51.2744
-51.2794
-51.2842
-51.289
-51.2936
-51.2981
-51.3025
-51.3068
-51.3109
-51.3149
-51.3187
-51.3224
-51.326
-51.3293
-51.3326
-51.3356
-51.3385
-51.3412
-51.3438
-51.3461
-51.3483
-51.3503
-51.352
-51.3536
-51.355
-51.3562
-51.3572
-51.3581
-51.3587
-51.3591
-51.3593
-51.3593
-51.3591
-51.3586
-51.358
-51.3572
-51.3562
-51.355
-51.3536
-51.352
-51.3502
-51.3482
-51.3461
-51.3437
-51.3412
-51.3385
-51.3356
-51.3325
-51.3293
-51.3259
-51.3224
-51.3187
-51.3148
-51.3108
-51.3067
-51.3024
-51.298
-51.2935
-51.2889
-51.2842
-51.2793
-51.2744
-51.2693
-51.2642
-51.259
-51.2537
-51.2483
-51.2429
-51.2375
-51.2319
-51.2264
-51.2208
-51.2151
-51.2094
-51.2038
-51.1981
-51.1923
-51.1866
-51.1809
-51.1752
-51.1695
-51.1639
-51.1582
-51.1526
-51.1471
-51.1415
-51.1361
-51.1306
-51.1253
-51.12
-51.1147
-51.1096
-51.1045
-51.0994
-51.0945
-51.0897
-51.0849
-51.0803
-51.0757
-51.0713
-51.067
-51.0627
-51.0586
-51.0546
-51.0508
-51.047
-51.0434
-51.0399
-51.0365
-51.0333
-51.0302
-51.0273
-51.0245
-51.0218
-51.0193
-51.0169
-51.0147
-51.0126
-51.0107
-51.0089
-51.0073
-51.0058
-51.0045
-51.0033
-51.0023
-51.0015
-51.0008
-51.0003
-50.9999
-50.9997
-50.9997
-54.9218
-54.9219
-54.9221
-54.9224
-54.923
-54.9237
-54.9245
-54.9255
-54.9267
-54.928
-54.9295
-54.9311
-54.9329
-54.9349
-54.9369
-54.9392
-54.9416
-54.9441
-54.9468
-54.9497
-54.9526
-54.9558
-54.959
-54.9624
-54.9659
-54.9696
-54.9734
-54.9773
-54.9813
-54.9855
-54.9897
-54.9941
-54.9986
-55.0032
-55.0079
-55.0127
-55.0176
-55.0225
-55.0276
-55.0328
-55.038
-55.0433
-55.0487
-55.0541
-55.0596
-55.0651
-55.0707
-55.0763
-55.082
-55.0877
-55.0934
-55.0992
-55.105
-55.1107
-55.1165
-55.1223
-55.1281
-55.1339
-55.1396
-55.1453
-55.151
-55.1566
-55.1622
-55.1678
-55.1733
-55.1787
-55.1841
-55.1894
-55.1946
-55.1997
-55.2047
-55.2096
-55.2144
-55.2191
-55.2237
-55.2282
-55.2325
-55.2367
-55.2407
-55.2446
-55.2484
-55.252
-55.2554
-55.2587
-55.2618
-55.2648
-55.2675
-55.2701
-55.2725
-55.2747
-55.2767
-55.2785
-55.2801
-55.2816
-55.2828
-55.2838
-55.2846
-55.2852
-55.2857
-55.2859
-55.2859
-55.2856
-55.2852
-55.2846
-55.2838
-55.2828
-55.2815
-55.2801
-55.2785
-55.2767
-55.2747
-55.2724
-55.2701
-55.2675
-55.2647
-55.2618
-55.2587
-55.2554
-55.2519
-55.2483
-55.2446
-55.2407
-55.2366
-55.2324
-55.2281
-55.2236
-55.219
-55.2143
-55.2095
-55.2046
-55.1996
-55.1945
-55.1893
-55.184
-55.1786
-55.1732
-55.1677
-55.1621
-55.1565
-55.1509
-55.1452
-55.1395
-55.1337
-55.128
-55.1222
-55.1164
-55.1106
-55.1049
-55.0991
-55.0933
-55.0876
-55.0819
-55.0762
-55.0706
-55.065
-55.0594
-55.054
-55.0485
-55.0432
-55.0379
-55.0326
-55.0275
-55.0224
-55.0174
-55.0125
-55.0078
-55.0031
-54.9985
-54.994
-54.9896
-54.9853
-54.9812
-54.9771
-54.9732
-54.9694
-54.9658
-54.9623
-54.9589
-54.9556
-54.9525
-54.9495
-54.9467
-54.944
-54.9414
-54.939
-54.9368
-54.9347
-54.9328
-54.931
-54.9293
-54.9278
-54.9265
-54.9254
-54.9244
-54.9235
-54.9228
-54.9223
-54.9219
-54.9217
-54.9217
-58.8437
-58.8437
-58.8439
-58.8443
-58.8448
-58.8455
-58.8464
-58.8474
-58.8486
-58.8499
-58.8514
-58.853
-58.8549
-58.8568
-58.8589
-58.8612
-58.8636
-58.8662
-58.8689
-58.8718
-58.8748
-58.8779
-58.8812
-58.8846
-58.8882
-58.8919
-58.8957
-58.8997
-58.9037
-58.9079
-58.9123
-58.9167
-58.9212
-58.9259
-58.9306
-58.9355
-58.9404
-58.9454
-58.9506
-58.9558
-58.9611
-58.9664
-58.9718
-58.9773
-58.9829
-58.9885
-58.9942
-58.9999
-59.0056
-59.0114
-59.0172
-59.023
-59.0289
-59.0347
-59.0406
-59.0465
-59.0523
-59.0582
-59.064
-59.0698
-59.0756
-59.0813
-59.087
-59.0926
-59.0982
-59.1037
-59.1091
-59.1145
-59.1198
-59.125
-59.1301
-59.1351
-59.14
-59.1448
-59.1494
-59.154
-59.1584
-59.1626
-59.1667
-59.1707
-59.1745
-59.1782
-59.1817
-59.185
-59.1882
-59.1912
-59.194
-59.1966
-59.199
-59.2013
-59.2033
-59.2052
-59.2068
-59.2083
-59.2095
-59.2106
-59.2114
-59.212
-59.2125
-59.2127
-59.2127
-59.2125
-59.212
-59.2114
-59.2106
-59.2095
-59.2083
-59.2068
-59.2052
-59.2033
-59.2013
-59.199
-59.1966
-59.1939
-59.1911
-59.1882
-59.185
-59.1817
-59.1781
-59.1745
-59.1707
-59.1667
-59.1626
-59.1583
-59.1539
-59.1494
-59.1447
-59.1399
-59.135
-59.13
-59.1249
-59.1197
-59.1144
-59.1091
-59.1036
-59.0981
-59.0925
-59.0869
-59.0812
-59.0755
-59.0697
-59.0639
-59.0581
-59.0522
-59.0464
-59.0405
-59.0346
-59.0288
-59.0229
-59.0171
-59.0113
-59.0055
-58.9998
-58.9941
-58.9884
-58.9828
-58.9772
-58.9717
-58.9663
-58.9609
-58.9556
-58.9504
-58.9453
-58.9403
-58.9353
-58.9305
-58.9257
-58.9211
-58.9165
-58.9121
-58.9078
-58.9036
-58.8995
-58.8956
-58.8918
-58.8881
-58.8845
-58.8811
-58.8778
-58.8746
-58.8716
-58.8688
-58.866
-58.8635
-58.8611
-58.8588
-58.8567
-58.8547
-58.8529
-58.8512
-58.8498
-58.8484
-58.8472
-58.8462
-58.8454
-58.8447
-58.8441
-58.8438
-58.8436
-58.8435
-62.7654
-62.7654
-62.7656
-62.766
-62.7665
-62.7672
-62.7681
-62.7691
-62.7703
-62.7717
-62.7732
-62.7748
-62.7767
-62.7786
-62.7808
-62.7831
-62.7855
-62.7881
-62.7909
-62.7937
-62.7968
-62.8
-62.8033
-62.8068
-62.8104
-62.8141
-62.818
-62.8219
-62.8261
-62.8303
-62.8347
-62.8391
-62.8437
-62.8484
-62.8532
-62.8581
-62.8631
-62.8682
-62.8734
-62.8787