/*--------------------------------*- C++ -*----------------------------------*\
| =========                 |                                                 |
| \\      /  F ield         | OpenFOAM: The Open Source CFD Toolbox           |
|  \\    /   O peration     | Version:  2412                                  |
|   \\  /    A nd           | Website:  www.openfoam.com                      |
|    \\/     M anipulation  |                                                 |
\*---------------------------------------------------------------------------*/
FoamFile
{
    version     2.0;
    format      ascii;
    arch        "LSB;label=32;scalar=64";
    class       volScalarField;
    location    "1.12";
    object      p_rgh;
}
// * * * * * * * * * * * * * * * * * * * * * * * * * * * * * * * * * * * * * //

dimensions      [1 -1 -2 0 0 0 0];

internalField   nonuniform List<scalar> 
40000
(
1.962
1.96194
1.96176
1.96142
1.96093
1.96029
1.9595
1.95856
1.95747
1.95623
1.95485
1.95331
1.95164
1.94981
1.94785
1.94575
1.9435
1.94112
1.93861
1.93596
1.93317
1.93026
1.92722
1.92406
1.92077
1.91737
1.91384
1.91021
1.90646
1.9026
1.89864
1.89457
1.89041
1.88615
1.8818
1.87736
1.87284
1.86824
1.86356
1.85881
1.854
1.84912
1.84418
1.83919
1.83415
1.82906
1.82394
1.81877
1.81358
1.80837
1.80313
1.79788
1.79262
1.78736
1.78209
1.77684
1.77159
1.76636
1.76116
1.75598
1.75084
1.74574
1.74068
1.73568
1.73073
1.72584
1.72102
1.71627
1.7116
1.70702
1.70252
1.69811
1.69381
1.68961
1.68552
1.68154
1.67768
1.67394
1.67033
1.66686
1.66352
1.66032
1.65726
1.65436
1.6516
1.649
1.64656
1.64428
1.64216
1.64021
1.63843
1.63683
1.63539
1.63413
1.63305
1.63215
1.63142
1.63088
1.63052
1.63034
1.63034
1.63052
1.63089
1.63143
1.63216
1.63306
1.63415
1.63541
1.63685
1.63846
1.64024
1.64219
1.64431
1.6466
1.64904
1.65164
1.6544
1.65731
1.66037
1.66357
1.66691
1.67039
1.674
1.67774
1.6816
1.68558
1.68968
1.69388
1.69819
1.70259
1.70709
1.71168
1.71635
1.7211
1.72593
1.73082
1.73577
1.74078
1.74583
1.75094
1.75608
1.76126
1.76646
1.77169
1.77694
1.7822
1.78746
1.79273
1.79799
1.80324
1.80848
1.8137
1.81889
1.82405
1.82918
1.83427
1.83931
1.8443
1.84924
1.85412
1.85894
1.86369
1.86837
1.87297
1.87749
1.88193
1.88628
1.89054
1.8947
1.89877
1.90273
1.90659
1.91034
1.91398
1.91751
1.92091
1.9242
1.92736
1.9304
1.93332
1.9361
1.93875
1.94127
1.94365
1.94589
1.948
1.94996
1.95178
1.95346
1.955
1.95638
1.95762
1.95872
1.95966
1.96046
1.9611
1.9616
1.96194
1.96213
1.96218
1.96204
1.962
1.96181
1.96148
1.96099
1.96035
1.95956
1.95861
1.95752
1.95628
1.9549
1.95336
1.95169
1.94986
1.9479
1.9458
1.94355
1.94117
1.93865
1.936
1.93322
1.93031
1.92727
1.9241
1.92081
1.91741
1.91388
1.91024
1.90649
1.90263
1.89867
1.8946
1.89044
1.88618
1.88183
1.87739
1.87287
1.86827
1.86359
1.85884
1.85402
1.84914
1.8442
1.8392
1.83416
1.82907
1.82395
1.81878
1.81359
1.80837
1.80313
1.79788
1.79262
1.78735
1.78209
1.77683
1.77158
1.76635
1.76115
1.75597
1.75083
1.74572
1.74066
1.73566
1.7307
1.72581
1.72099
1.71624
1.71157
1.70698
1.70248
1.69808
1.69377
1.68957
1.68547
1.68149
1.67763
1.6739
1.67029
1.66681
1.66347
1.66027
1.65721
1.6543
1.65155
1.64895
1.6465
1.64422
1.64211
1.64016
1.63837
1.63677
1.63533
1.63407
1.63299
1.63209
1.63136
1.63082
1.63046
1.63027
1.63028
1.63046
1.63082
1.63137
1.6321
1.633
1.63409
1.63535
1.63679
1.6384
1.64018
1.64214
1.64426
1.64654
1.64898
1.65159
1.65435
1.65726
1.66032
1.66352
1.66686
1.67034
1.67396
1.6777
1.68156
1.68554
1.68964
1.69384
1.69815
1.70256
1.70706
1.71165
1.71632
1.72108
1.7259
1.73079
1.73575
1.74076
1.74582
1.75092
1.75607
1.76125
1.76645
1.77168
1.77693
1.78219
1.78746
1.79273
1.79799
1.80324
1.80848
1.8137
1.8189
1.82406
1.82919
1.83428
1.83932
1.84432
1.84926
1.85414
1.85896
1.86371
1.86839
1.873
1.87752
1.88196
1.88631
1.89057
1.89474
1.8988
1.90277
1.90663
1.91038
1.91402
1.91755
1.92095
1.92424
1.92741
1.93045
1.93336
1.93614
1.9388
1.94131
1.9437
1.94594
1.94805
1.95001
1.95183
1.95351
1.95505
1.95644
1.95768
1.95877
1.95971
1.96051
1.96116
1.96165
1.96199
1.96218
1.96223
1.96224
1.96219
1.962
1.96167
1.96117
1.96053
1.95974
1.9588
1.9577
1.95646
1.95507
1.95354
1.95186
1.95004
1.94807
1.94597
1.94372
1.94134
1.93882
1.93616
1.93338
1.93046
1.92742
1.92425
1.92096
1.91755
1.91402
1.91038
1.90663
1.90276
1.89879
1.89472
1.89056
1.88629
1.88194
1.87749
1.87296
1.86836
1.86367
1.85892
1.85409
1.84921
1.84426
1.83926
1.83421
1.82912
1.82399
1.81882
1.81362
1.80839
1.80315
1.79789
1.79262
1.78735
1.78207
1.77681
1.77156
1.76632
1.76111
1.75592
1.75077
1.74566
1.7406
1.73558
1.73062
1.72573
1.7209
1.71614
1.71146
1.70687
1.70236
1.69795
1.69364
1.68943
1.68533
1.68134
1.67748
1.67373
1.67012
1.66664
1.66329
1.66008
1.65702
1.65411
1.65135
1.64874
1.6463
1.64401
1.64189
1.63994
1.63816
1.63654
1.63511
1.63385
1.63276
1.63186
1.63113
1.63059
1.63022
1.63004
1.63004
1.63023
1.63059
1.63114
1.63187
1.63278
1.63386
1.63513
1.63657
1.63818
1.63997
1.64192
1.64405
1.64633
1.64878
1.65139
1.65415
1.65707
1.66013
1.66334
1.66669
1.67017
1.67379
1.67754
1.68141
1.68539
1.6895
1.69371
1.69802
1.70244
1.70695
1.71154
1.71622
1.72098
1.72581
1.73071
1.73567
1.74069
1.74576
1.75087
1.75602
1.76121
1.76642
1.77166
1.77691
1.78218
1.78745
1.79273
1.798
1.80326
1.80851
1.81373
1.81893
1.8241
1.82924
1.83433
1.83938
1.84438
1.84933
1.85422
1.85904
1.8638
1.86848
1.87309
1.87762
1.88207
1.88642
1.89069
1.89486
1.89893
1.9029
1.90676
1.91052
1.91416
1.91769
1.9211
1.92439
1.92756
1.9306
1.93352
1.93631
1.93896
1.94148
1.94387
1.94611
1.94822
1.95019
1.95201
1.95369
1.95523
1.95662
1.95786
1.95895
1.9599
1.96069
1.96134
1.96183
1.96218
1.96237
1.96242
1.96258
1.96253
1.96234
1.962
1.96151
1.96087
1.96007
1.95913
1.95803
1.95679
1.9554
1.95386
1.95218
1.95035
1.94839
1.94628
1.94403
1.94164
1.93911
1.93646
1.93367
1.93075
1.9277
1.92452
1.92123
1.91781
1.91428
1.91063
1.90687
1.903
1.89902
1.89494
1.89077
1.88649
1.88213
1.87768
1.87314
1.86852
1.86383
1.85907
1.85423
1.84934
1.84438
1.83937
1.83431
1.82921
1.82406
1.81888
1.81367
1.80843
1.80318
1.79791
1.79263
1.78734
1.78206
1.77678
1.77151
1.76626
1.76104
1.75584
1.75068
1.74556
1.74048
1.73545
1.73048
1.72557
1.72073
1.71596
1.71127
1.70666
1.70214
1.69772
1.69339
1.68917
1.68506
1.68107
1.67719
1.67344
1.66981
1.66632
1.66296
1.65975
1.65668
1.65376
1.65099
1.64837
1.64592
1.64363
1.6415
1.63954
1.63776
1.63614
1.6347
1.63343
1.63235
1.63144
1.63071
1.63016
1.6298
1.62962
1.62962
1.6298
1.63017
1.63072
1.63145
1.63236
1.63345
1.63472
1.63616
1.63778
1.63957
1.64153
1.64366
1.64596
1.64841
1.65103
1.6538
1.65672
1.6598
1.66301
1.66637
1.66987
1.67349
1.67725
1.68113
1.68513
1.68924
1.69346
1.69779
1.70222
1.70674
1.71135
1.71604
1.72081
1.72566
1.73057
1.73554
1.74057
1.74565
1.75077
1.75594
1.76114
1.76636
1.77161
1.77688
1.78216
1.78745
1.79273
1.79802
1.80329
1.80855
1.81378
1.819
1.82418
1.82932
1.83443
1.83949
1.8445
1.84946
1.85436
1.85919
1.86396
1.86865
1.87327
1.87781
1.88226
1.88663
1.8909
1.89508
1.89916
1.90313
1.907
1.91076
1.91441
1.91795
1.92137
1.92466
1.92784
1.93089
1.93381
1.9366
1.93926
1.94178
1.94417
1.94642
1.94853
1.9505
1.95233
1.95401
1.95555
1.95694
1.95819
1.95928
1.96023
1.96103
1.96167
1.96217
1.96251
1.9627
1.96276
1.96307
1.96302
1.96283
1.96249
1.96199
1.96135
1.96055
1.9596
1.95851
1.95726
1.95587
1.95433
1.95264
1.95081
1.94884
1.94672
1.94447
1.94207
1.93954
1.93688
1.93408
1.93115
1.9281
1.92492
1.92161
1.91819
1.91464
1.91098
1.90721
1.90333
1.89935
1.89526
1.89107
1.88679
1.88241
1.87795
1.8734
1.86877
1.86406
1.85928
1.85443
1.84952
1.84455
1.83953
1.83445
1.82933
1.82417
1.81898
1.81375
1.8085
1.80322
1.79793
1.79264
1.78733
1.78203
1.77674
1.77145
1.76618
1.76094
1.75573
1.75054
1.7454
1.74031
1.73526
1.73027
1.72534
1.72048
1.7157
1.71099
1.70636
1.70183
1.69739
1.69304
1.68881
1.68468
1.68067
1.67678
1.67301
1.66937
1.66586
1.66249
1.65926
1.65618
1.65325
1.65046
1.64784
1.64538
1.64308
1.64094
1.63897
1.63718
1.63555
1.63411
1.63283
1.63174
1.63083
1.6301
1.62955
1.62919
1.629
1.629
1.62919
1.62956
1.63011
1.63084
1.63176
1.63285
1.63413
1.63558
1.6372
1.639
1.64097
1.64311
1.64541
1.64788
1.65051
1.65329
1.65623
1.65931
1.66254
1.66591
1.66942
1.67307
1.67684
1.68073
1.68475
1.68888
1.69312
1.69746
1.7019
1.70644
1.71107
1.71578
1.72057
1.72543
1.73036
1.73535
1.7404
1.7455
1.75064
1.75582
1.76104
1.76629
1.77155
1.77684
1.78214
1.78744
1.79274
1.79804
1.80333
1.80861
1.81386
1.81909
1.82429
1.82945
1.83457
1.83965
1.84468
1.84965
1.85456
1.85941
1.86419
1.8689
1.87353
1.87808
1.88254
1.88692
1.8912
1.89539
1.89948
1.90347
1.90735
1.91112
1.91478
1.91833
1.92175
1.92506
1.92824
1.9313
1.93422
1.93702
1.93969
1.94222
1.94461
1.94687
1.94899
1.95096
1.95279
1.95448
1.95602
1.95741
1.95866
1.95976
1.96071
1.96151
1.96216
1.96265
1.963
1.96319
1.96324
1.96371
1.96366
1.96347
1.96312
1.96263
1.96198
1.96118
1.96023
1.95913
1.95788
1.95648
1.95493
1.95324
1.95141
1.94943
1.9473
1.94504
1.94264
1.9401
1.93743
1.93463
1.93169
1.92862
1.92543
1.92212
1.91868
1.91512
1.91145
1.90767
1.90378
1.89978
1.89567
1.89147
1.88717
1.88278
1.8783
1.87373
1.86909
1.86436
1.85957
1.8547
1.84977
1.84478
1.83974
1.83464
1.8295
1.82432
1.8191
1.81385
1.80858
1.80328
1.79797
1.79265
1.78732
1.782
1.77668
1.77137
1.76608
1.76081
1.75558
1.75037
1.7452
1.74008
1.73501
1.73
1.72505
1.72017
1.71536
1.71062
1.70598
1.70142
1.69695
1.69259
1.68833
1.68418
1.68015
1.67623
1.67245
1.66879
1.66526
1.66187
1.65863
1.65553
1.65258
1.64978
1.64714
1.64467
1.64235
1.6402
1.63823
1.63642
1.63479
1.63333
1.63205
1.63095
1.63004
1.6293
1.62875
1.62838
1.6282
1.6282
1.62839
1.62876
1.62931
1.63005
1.63097
1.63207
1.63335
1.63481
1.63644
1.63825
1.64023
1.64238
1.6447
1.64718
1.64982
1.65262
1.65557
1.65868
1.66192
1.66531
1.66884
1.6725
1.6763
1.68021
1.68425
1.6884
1.69266
1.69703
1.70149
1.70605
1.7107
1.71544
1.72025
1.72514
1.73009
1.7351
1.74018
1.7453
1.75047
1.75567
1.76091
1.76618
1.77148
1.77678
1.78211
1.78743
1.79276
1.79808
1.80339
1.80869
1.81397
1.81922
1.82444
1.82962
1.83476
1.83986
1.8449
1.84989
1.85482
1.85969
1.86449
1.86921
1.87386
1.87843
1.88291
1.8873
1.8916
1.89581
1.89991
1.90391
1.90781
1.91159
1.91526
1.91882
1.92226
1.92557
1.92876
1.93183
1.93477
1.93757
1.94025
1.94279
1.94519
1.94745
1.94957
1.95156
1.95339
1.95508
1.95663
1.95803
1.95928
1.96038
1.96133
1.96214
1.96279
1.96329
1.96363
1.96382
1.96387
1.9645
1.96444
1.96425
1.9639
1.9634
1.96275
1.96195
1.961
1.95989
1.95864
1.95723
1.95568
1.95398
1.95214
1.95015
1.94802
1.94575
1.94334
1.9408
1.93811
1.9353
1.93235
1.92927
1.92607
1.92274
1.91929
1.91572
1.91203
1.90823
1.90432
1.9003
1.89618
1.89196
1.88765
1.88323
1.87873
1.87415
1.86948
1.86474
1.85992
1.85503
1.85008
1.84506
1.83999
1.83487
1.82971
1.8245
1.81926
1.81398
1.80868
1.80336
1.79802
1.79267
1.78732
1.78196
1.77661
1.77128
1.76596
1.76066
1.75539
1.75016
1.74496
1.73981
1.73471
1.72967
1.72469
1.71977
1.71493
1.71017
1.7055
1.70091
1.69642
1.69203
1.68774
1.68356
1.6795
1.67557
1.67175
1.66807
1.66452
1.66111
1.65784
1.65472
1.65175
1.64894
1.64628
1.64379
1.64146
1.63929
1.6373
1.63548
1.63384
1.63237
1.63108
1.62998
1.62905
1.62831
1.62776
1.62739
1.6272
1.62721
1.62739
1.62777
1.62832
1.62907
1.62999
1.6311
1.63239
1.63386
1.63551
1.63733
1.63932
1.64149
1.64382
1.64632
1.64898
1.6518
1.65477
1.65789
1.66116
1.66457
1.66813
1.67181
1.67563
1.67957
1.68363
1.68781
1.6921
1.69649
1.70098
1.70557
1.71025
1.71502
1.71986
1.72477
1.72976
1.7348
1.7399
1.74506
1.75025
1.75549
1.76076
1.76606
1.77138
1.77672
1.78207
1.78742
1.79278
1.79813
1.80347
1.80879
1.8141
1.81937
1.82462
1.82983
1.83499
1.84011
1.84519
1.8502
1.85515
1.86004
1.86486
1.86961
1.87428
1.87886
1.88337
1.88778
1.8921
1.89632
1.90044
1.90446
1.90837
1.91217
1.91585
1.91943
1.92288
1.92621
1.92941
1.93249
1.93544
1.93826
1.94094
1.94349
1.9459
1.94817
1.9503
1.95229
1.95413
1.95583
1.95739
1.95879
1.96005
1.96115
1.96211
1.96291
1.96356
1.96406
1.96441
1.9646
1.96466
1.96543
1.96537
1.96518
1.96483
1.96433
1.96368
1.96287
1.96191
1.9608
1.95954
1.95813
1.95657
1.95487
1.95302
1.95102
1.94888
1.9466
1.94418
1.94162
1.93893
1.9361
1.93313
1.93004
1.92682
1.92348
1.92001
1.91642
1.91272
1.9089
1.90497
1.90094
1.89679
1.89255
1.88821
1.88378
1.87925
1.87464
1.86995
1.86518
1.86034
1.85542
1.85044
1.8454
1.8403
1.83515
1.82996
1.82472
1.81944
1.81414
1.8088
1.80345
1.79808
1.79269
1.78731
1.78192
1.77654
1.77116
1.76581
1.76048
1.75517
1.7499
1.74467
1.73949
1.73435
1.72927
1.72426
1.71931
1.71443
1.70964
1.70493
1.7003
1.69578
1.69135
1.68704
1.68283
1.67874
1.67477
1.67093
1.66721
1.66364
1.6602
1.6569
1.65376
1.65077
1.64793
1.64525
1.64274
1.64039
1.63821
1.6362
1.63436
1.63271
1.63123
1.62993
1.62881
1.62788
1.62714
1.62658
1.6262
1.62602
1.62602
1.62621
1.62658
1.62715
1.6279
1.62883
1.62995
1.63125
1.63273
1.63439
1.63623
1.63824
1.64042
1.64277
1.64529
1.64797
1.65081
1.65381
1.65695
1.66025
1.66369
1.66727
1.67099
1.67483
1.6788
1.6829
1.68711
1.69143
1.69585
1.70038
1.705
1.70972
1.71451
1.71939
1.72434
1.72936
1.73444
1.73958
1.74477
1.75
1.75527
1.76058
1.76591
1.77127
1.77664
1.78202
1.78741
1.7928
1.79819
1.80356
1.80892
1.81425
1.81956
1.82484
1.83007
1.83527
1.84042
1.84552
1.85056
1.85555
1.86046
1.86531
1.87008
1.87477
1.87939
1.88391
1.88835
1.89269
1.89693
1.90107
1.90511
1.90904
1.91286
1.91656
1.92015
1.92362
1.92696
1.93018
1.93328
1.93624
1.93907
1.94177
1.94433
1.94675
1.94903
1.95117
1.95317
1.95502
1.95673
1.95828
1.95969
1.96096
1.96207
1.96303
1.96383
1.96449
1.96499
1.96534
1.96553
1.96559
1.96651
1.96645
1.96626
1.96591
1.96541
1.96475
1.96394
1.96297
1.96186
1.96059
1.95918
1.95761
1.9559
1.95403
1.95203
1.94988
1.94759
1.94515
1.94258
1.93987
1.93702
1.93405
1.93094
1.9277
1.92434
1.92085
1.91724
1.91352
1.90968
1.90573
1.90167
1.8975
1.89324
1.88887
1.88441
1.87986
1.87522
1.8705
1.8657
1.86082
1.85588
1.85086
1.84579
1.84066
1.83548
1.83025
1.82497
1.81966
1.81432
1.80895
1.80355
1.79814
1.79272
1.7873
1.78187
1.77645
1.77103
1.76564
1.76027
1.75492
1.74961
1.74434
1.73911
1.73393
1.72881
1.72376
1.71877
1.71385
1.70901
1.70426
1.6996
1.69504
1.69058
1.68622
1.68198
1.67785
1.67384
1.66997
1.66622
1.66261
1.65914
1.65582
1.65264
1.64962
1.64676
1.64405
1.64151
1.63914
1.63694
1.63491
1.63306
1.63139
1.6299
1.62859
1.62746
1.62652
1.62577
1.6252
1.62482
1.62464
1.62464
1.62483
1.62521
1.62578
1.62653
1.62748
1.6286
1.62992
1.63141
1.63309
1.63494
1.63697
1.63918
1.64155
1.64409
1.6468
1.64967
1.65269
1.65587
1.65919
1.66266
1.66628
1.67003
1.67391
1.67791
1.68204
1.68629
1.69065
1.69511
1.69968
1.70434
1.7091
1.71393
1.71885
1.72384
1.7289
1.73402
1.7392
1.74443
1.74971
1.75502
1.76037
1.76574
1.77114
1.77655
1.78197
1.7874
1.79283
1.79825
1.80367
1.80906
1.81443
1.81978
1.82509
1.83036
1.8356
1.84078
1.84591
1.85099
1.856
1.86095
1.86583
1.87063
1.87535
1.87999
1.88454
1.889
1.89337
1.89764
1.9018
1.90587
1.90982
1.91366
1.91738
1.92099
1.92448
1.92784
1.93108
1.93419
1.93717
1.94001
1.94272
1.9453
1.94773
1.95003
1.95218
1.95418
1.95605
1.95776
1.95933
1.96074
1.96201
1.96313
1.96409
1.9649
1.96556
1.96607
1.96642
1.96661
1.96667
1.96774
1.96769
1.96749
1.96714
1.96663
1.96597
1.96515
1.96418
1.96306
1.96179
1.96036
1.95879
1.95707
1.95519
1.95318
1.95101
1.94871
1.94626
1.94367
1.94094
1.93808
1.93509
1.93196
1.9287
1.92532
1.92181
1.91818
1.91443
1.91057
1.90659
1.90251
1.89831
1.89402
1.88962
1.88513
1.88055
1.87588
1.87112
1.86629
1.86138
1.8564
1.85135
1.84624
1.84107
1.83585
1.83058
1.82526
1.81991
1.81453
1.80911
1.80368
1.79822
1.79276
1.78729
1.78181
1.77634
1.77089
1.76545
1.76003
1.75463
1.74927
1.74396
1.73868
1.73346
1.72829
1.72319
1.71815
1.71319
1.70831
1.70351
1.6988
1.69419
1.68969
1.68529
1.681
1.67683
1.67279
1.66887
1.66509
1.66144
1.65793
1.65457
1.65137
1.64831
1.64542
1.64269
1.64012
1.63772
1.6355
1.63345
1.63158
1.62989
1.62838
1.62705
1.62591
1.62496
1.6242
1.62363
1.62325
1.62306
1.62306
1.62325
1.62364
1.62421
1.62498
1.62593
1.62707
1.6284
1.62991
1.6316
1.63348
1.63553
1.63776
1.64016
1.64273
1.64546
1.64836
1.65141
1.65462
1.65799
1.66149
1.66514
1.66893
1.67285
1.6769
1.68107
1.68536
1.68976
1.69427
1.69888
1.70359
1.70839
1.71327
1.71824
1.72327
1.72838
1.73355
1.73877
1.74405
1.74937
1.75473
1.76013
1.76555
1.77099
1.77645
1.78192
1.78739
1.79287
1.79833
1.80379
1.80923
1.81464
1.82003
1.82538
1.8307
1.83597
1.84119
1.84636
1.85147
1.85652
1.86151
1.86642
1.87125
1.87601
1.88068
1.88526
1.88976
1.89415
1.89845
1.90264
1.90673
1.91071
1.91457
1.91832
1.92195
1.92546
1.92884
1.9321
1.93523
1.93823
1.94109
1.94382
1.9464
1.94885
1.95116
1.95332
1.95534
1.95722
1.95894
1.96052
1.96194
1.96322
1.96434
1.96531
1.96612
1.96679
1.96729
1.96765
1.96784
1.9679
1.96912
1.96907
1.96887
1.96852
1.96801
1.96734
1.96652
1.96554
1.96442
1.96313
1.9617
1.96011
1.95838
1.9565
1.95446
1.95229
1.94997
1.9475
1.9449
1.94215
1.93927
1.93626
1.93311
1.92983
1.92642
1.92289
1.91923
1.91546
1.91157
1.90756
1.90345
1.89922
1.8949
1.89047
1.88594
1.88133
1.87662
1.87183
1.86696
1.86201
1.85699
1.8519
1.84674
1.84153
1.83627
1.83095
1.82559
1.82019
1.81476
1.8093
1.80382
1.79831
1.7928
1.78728
1.78175
1.77623
1.77072
1.76523
1.75976
1.75431
1.7489
1.74353
1.7382
1.73292
1.7277
1.72255
1.71746
1.71244
1.70751
1.70266
1.69791
1.69325
1.68869
1.68424
1.67991
1.67569
1.6716
1.66764
1.66381
1.66012
1.65658
1.65318
1.64993
1.64684
1.64391
1.64115
1.63855
1.63613
1.63387
1.6318
1.62991
1.62819
1.62667
1.62533
1.62417
1.62321
1.62244
1.62186
1.62147
1.62128
1.62128
1.62148
1.62187
1.62245
1.62322
1.62419
1.62534
1.62669
1.62822
1.62993
1.63183
1.63391
1.63616
1.63859
1.64119
1.64396
1.64689
1.64998
1.65323
1.65663
1.66018
1.66387
1.6677
1.67166
1.67576
1.67998
1.68431
1.68876
1.69332
1.69798
1.70274
1.70759
1.71253
1.71754
1.72263
1.72779
1.73302
1.73829
1.74362
1.749
1.75441
1.75986
1.76533
1.77083
1.77634
1.78186
1.78738
1.79291
1.79842
1.80393
1.80941
1.81488
1.82031
1.82571
1.83107
1.83639
1.84165
1.84687
1.85202
1.85711
1.86213
1.86709
1.87196
1.87675
1.88146
1.88608
1.8906
1.89503
1.89936
1.90358
1.9077
1.91171
1.9156
1.91937
1.92303
1.92656
1.92997
1.93325
1.9364
1.93942
1.9423
1.94504
1.94765
1.95011
1.95244
1.95461
1.95664
1.95853
1.96026
1.96185
1.96328
1.96457
1.9657
1.96667
1.96749
1.96816
1.96867
1.96903
1.96922
1.96928
1.97066
1.9706
1.9704
1.97005
1.96953
1.96886
1.96803
1.96705
1.96592
1.96463
1.96318
1.96158
1.95984
1.95794
1.9559
1.9537
1.95136
1.94888
1.94626
1.94349
1.94059
1.93755
1.93438
1.93108
1.92765
1.92409
1.9204
1.9166
1.91268
1.90864
1.90449
1.90023
1.89587
1.89141
1.88685
1.88219
1.87744
1.87261
1.8677
1.86271
1.85764
1.85251
1.84731
1.84205
1.83673
1.83137
1.82596
1.82051
1.81502
1.80951
1.80397
1.79842
1.79284
1.78727
1.78169
1.77611
1.77054
1.76499
1.75946
1.75396
1.74849
1.74306
1.73767
1.73233
1.72705
1.72184
1.71669
1.71162
1.70663
1.70172
1.69691
1.69219
1.68758
1.68308
1.67869
1.67442
1.67028
1.66627
1.66239
1.65866
1.65507
1.65162
1.64834
1.64521
1.64224
1.63944
1.63681
1.63435
1.63207
1.62997
1.62805
1.62631
1.62476
1.6234
1.62224
1.62126
1.62048
1.61989
1.6195
1.61931
1.61931
1.6195
1.6199
1.62049
1.62127
1.62225
1.62342
1.62478
1.62633
1.62807
1.62999
1.6321
1.63438
1.63684
1.63948
1.64228
1.64525
1.64838
1.65167
1.65512
1.65871
1.66245
1.66633
1.67034
1.67449
1.67876
1.68315
1.68765
1.69227
1.69699
1.7018
1.70671
1.7117
1.71678
1.72193
1.72714
1.73243
1.73776
1.74315
1.74858
1.75406
1.75956
1.76509
1.77065
1.77622
1.78179
1.78738
1.79296
1.79853
1.80409
1.80963
1.81514
1.82063
1.82608
1.83149
1.83685
1.84217
1.84743
1.85263
1.85777
1.86283
1.86783
1.87274
1.87758
1.88232
1.88698
1.89154
1.89601
1.90037
1.90463
1.90878
1.91282
1.91674
1.92054
1.92423
1.92779
1.93122
1.93452
1.9377
1.94074
1.94364
1.9464
1.94903
1.95151
1.95385
1.95604
1.95809
1.95999
1.96174
1.96333
1.96478
1.96607
1.9672
1.96819
1.96901
1.96969
1.9702
1.97056
1.97075
1.97081
1.97234
1.97229
1.97209
1.97173
1.97121
1.97053
1.9697
1.96871
1.96757
1.96627
1.96481
1.9632
1.96144
1.95953
1.95747
1.95526
1.9529
1.9504
1.94776
1.94497
1.94205
1.93898
1.93579
1.93245
1.92899
1.9254
1.92169
1.91785
1.9139
1.90983
1.90564
1.90135
1.89695
1.89244
1.88784
1.88314
1.87835
1.87348
1.86852
1.86348
1.85836
1.85318
1.84793
1.84262
1.83725
1.83183
1.82636
1.82086
1.81532
1.80974
1.80415
1.79853
1.7929
1.78726
1.78162
1.77598
1.77035
1.76473
1.75914
1.75357
1.74803
1.74254
1.73708
1.73168
1.72634
1.72106
1.71585
1.71071
1.70565
1.70069
1.69581
1.69103
1.68636
1.6818
1.67735
1.67303
1.66883
1.66476
1.66083
1.65704
1.6534
1.64991
1.64658
1.6434
1.64039
1.63755
1.63488
1.63239
1.63008
1.62794
1.62599
1.62423
1.62266
1.62128
1.6201
1.61911
1.61832
1.61772
1.61732
1.61713
1.61713
1.61733
1.61773
1.61833
1.61912
1.62011
1.6213
1.62268
1.62426
1.62602
1.62797
1.63011
1.63243
1.63492
1.63759
1.64044
1.64345
1.64663
1.64996
1.65345
1.6571
1.66089
1.66482
1.66889
1.67309
1.67742
1.68187
1.68643
1.69111
1.69589
1.70077
1.70574
1.71079
1.71593
1.72115
1.72643
1.73178
1.73718
1.74263
1.74813
1.75367
1.75924
1.76484
1.77045
1.77608
1.78173
1.78737
1.79301
1.79864
1.80426
1.80986
1.81543
1.82098
1.82648
1.83195
1.83737
1.84274
1.84805
1.8533
1.85849
1.8636
1.86865
1.87361
1.87848
1.88328
1.88797
1.89258
1.89708
1.90148
1.90578
1.90997
1.91404
1.91799
1.92183
1.92555
1.92914
1.9326
1.93593
1.93913
1.94219
1.94512
1.9479
1.95055
1.95305
1.95541
1.95762
1.95968
1.96159
1.96335
1.96496
1.96642
1.96772
1.96886
1.96985
1.97069
1.97136
1.97188
1.97224
1.97244
1.97249
1.97418
1.97413
1.97393
1.97356
1.97304
1.97236
1.97152
1.97052
1.96937
1.96806
1.96659
1.96497
1.96319
1.96127
1.95919
1.95696
1.95458
1.95206
1.94939
1.94658
1.94363
1.94054
1.93732
1.93396
1.93047
1.92685
1.9231
1.91923
1.91524
1.91113
1.9069
1.90257
1.89812
1.89358
1.88893
1.88419
1.87935
1.87442
1.86941
1.86432
1.85915
1.85391
1.84861
1.84324
1.83781
1.83234
1.82681
1.82124
1.81564
1.81
1.80434
1.79866
1.79296
1.78725
1.78154
1.77584
1.77014
1.76445
1.75878
1.75315
1.74754
1.74197
1.73645
1.73098
1.72556
1.72021
1.71493
1.70972
1.70459
1.69956
1.69461
1.68977
1.68503
1.6804
1.67589
1.6715
1.66724
1.66311
1.65912
1.65528
1.65158
1.64804
1.64465
1.64143
1.63837
1.63549
1.63278
1.63025
1.62789
1.62573
1.62375
1.62196
1.62037
1.61896
1.61776
1.61675
1.61595
1.61534
1.61494
1.61474
1.61474
1.61494
1.61535
1.61596
1.61677
1.61778
1.61898
1.62039
1.62198
1.62378
1.62576
1.62793
1.63028
1.63282
1.63553
1.63842
1.64148
1.6447
1.64809
1.65163
1.65533
1.65918
1.66317
1.6673
1.67157
1.67596
1.68047
1.6851
1.68984
1.69469
1.69964
1.70468
1.7098
1.71501
1.7203
1.72565
1.73107
1.73654
1.74207
1.74764
1.75325
1.75889
1.76455
1.77024
1.77594
1.78165
1.78736
1.79307
1.79877
1.80446
1.81012
1.81576
1.82136
1.82693
1.83246
1.83794
1.84336
1.84873
1.85404
1.85928
1.86445
1.86954
1.87455
1.87948
1.88432
1.88906
1.89371
1.89826
1.9027
1.90704
1.91126
1.91537
1.91937
1.92324
1.92699
1.93061
1.9341
1.93746
1.94069
1.94378
1.94673
1.94954
1.95221
1.95473
1.95711
1.95934
1.96142
1.96334
1.96512
1.96674
1.96821
1.96952
1.97068
1.97167
1.97251
1.97319
1.97372
1.97408
1.97428
1.97433
1.97618
1.97612
1.97592
1.97556
1.97503
1.97434
1.97349
1.97249
1.97132
1.97
1.96852
1.96688
1.96509
1.96315
1.96105
1.9588
1.95641
1.95386
1.95117
1.94833
1.94536
1.94224
1.93898
1.93559
1.93207
1.92841
1.92463
1.92072
1.91669
1.91254
1.90827
1.90389
1.8994
1.89481
1.89011
1.88532
1.88043
1.87545
1.87038
1.86524
1.86001
1.85472
1.84935
1.84392
1.83843
1.83289
1.8273
1.82166
1.81599
1.81029
1.80455
1.7988
1.79303
1.78725
1.78147
1.77568
1.76991
1.76415
1.75841
1.75269
1.74701
1.74136
1.73576
1.73021
1.72472
1.71929
1.71393
1.70864
1.70344
1.69833
1.69331
1.68839
1.68358
1.67888
1.6743
1.66984
1.66551
1.66132
1.65727
1.65336
1.6496
1.646
1.64256
1.63929
1.63618
1.63324
1.63049
1.62791
1.62552
1.62332
1.62131
1.61949
1.61786
1.61644
1.61522
1.61419
1.61337
1.61276
1.61235
1.61214
1.61214
1.61235
1.61276
1.61338
1.6142
1.61523
1.61646
1.61789
1.61951
1.62133
1.62335
1.62556
1.62795
1.63053
1.63329
1.63622
1.63933
1.64261
1.64605
1.64966
1.65342
1.65733
1.66138
1.66558
1.66991
1.67437
1.67895
1.68365
1.68847
1.69339
1.69841
1.70353
1.70873
1.71402
1.71938
1.72481
1.7303
1.73586
1.74146
1.74711
1.75279
1.75851
1.76425
1.77001
1.77579
1.78158
1.78736
1.79314
1.79891
1.80467
1.8104
1.81611
1.82178
1.82742
1.83301
1.83855
1.84404
1.84947
1.85484
1.86014
1.86537
1.87052
1.87558
1.88056
1.88545
1.89025
1.89494
1.89954
1.90403
1.90841
1.91267
1.91683
1.92086
1.92477
1.92855
1.93221
1.93573
1.93913
1.94238
1.9455
1.94848
1.95132
1.95401
1.95655
1.95895
1.9612
1.9633
1.96524
1.96703
1.96867
1.97015
1.97147
1.97264
1.97365
1.97449
1.97518
1.97571
1.97607
1.97627
1.97633
1.97833
1.97827
1.97807
1.9777
1.97717
1.97648
1.97562
1.97461
1.97343
1.9721
1.9706
1.96895
1.96714
1.96518
1.96306
1.96079
1.95837
1.9558
1.95309
1.95022
1.94722
1.94407
1.94078
1.93735
1.93379
1.9301
1.92628
1.92233
1.91825
1.91406
1.90975
1.90532
1.90078
1.89614
1.89139
1.88654
1.8816
1.87656
1.87144
1.86623
1.86094
1.85558
1.85015
1.84466
1.8391
1.83349
1.82783
1.82212
1.81638
1.8106
1.80479
1.79896
1.79311
1.78725
1.78139
1.77552
1.76967
1.76382
1.758
1.7522
1.74643
1.7407
1.73502
1.72938
1.72381
1.71829
1.71285
1.70748
1.7022
1.69701
1.69191
1.68691
1.68202
1.67724
1.67258
1.66805
1.66365
1.65938
1.65526
1.65129
1.64746
1.6438
1.6403
1.63696
1.6338
1.63082
1.62801
1.62539
1.62296
1.62071
1.61866
1.61681
1.61516
1.61371
1.61246
1.61142
1.61058
1.60996
1.60954
1.60933
1.60933
1.60954
1.60996
1.61059
1.61143
1.61248
1.61373
1.61518
1.61684
1.61869
1.62074
1.62299
1.62543
1.62805
1.63086
1.63385
1.63701
1.64035
1.64385
1.64752
1.65134
1.65532
1.65944
1.66371
1.66811
1.67265
1.67731
1.68209
1.68698
1.69198
1.69709
1.70228
1.70757
1.71294
1.71839
1.7239
1.72948
1.73512
1.7408
1.74653
1.7523
1.7581
1.76393
1.76977
1.77563
1.7815
1.78736
1.79322
1.79907
1.8049
1.81071
1.81649
1.82224
1.82795
1.83361
1.83922
1.84478
1.85028
1.85571
1.86107
1.86636
1.87157
1.87669
1.88173
1.88668
1.89153
1.89627
1.90092
1.90546
1.90989
1.9142
1.91839
1.92247
1.92642
1.93024
1.93393
1.9375
1.94092
1.94421
1.94736
1.95037
1.95323
1.95595
1.95852
1.96094
1.96321
1.96533
1.96729
1.9691
1.97075
1.97225
1.97358
1.97476
1.97577
1.97663
1.97732
1.97785
1.97822
1.97843
1.97848
1.98064
1.98058
1.98038
1.98001
1.97947
1.97877
1.97791
1.97688
1.97569
1.97434
1.97284
1.97117
1.96934
1.96736
1.96522
1.96293
1.96049
1.95789
1.95514
1.95225
1.94921
1.94603
1.94271
1.93925
1.93565
1.93191
1.92805
1.92406
1.91994
1.9157
1.91134
1.90686
1.90227
1.89757
1.89277
1.88786
1.88286
1.87776
1.87257
1.8673
1.86195
1.85652
1.85102
1.84545
1.83982
1.83414
1.8284
1.82262
1.81679
1.81093
1.80504
1.79913
1.7932
1.78725
1.7813
1.77535
1.76941
1.76348
1.75757
1.75168
1.74582
1.74
1.73423
1.7285
1.72283
1.71723
1.7117
1.70624
1.70087
1.69558
1.6904
1.68531
1.68033
1.67547
1.67073
1.66612
1.66164
1.6573
1.6531
1.64905
1.64516
1.64143
1.63786
1.63447
1.63125
1.6282
1.62534
1.62267
1.62019
1.61791
1.61582
1.61393
1.61224
1.61076
1.60949
1.60843
1.60758
1.60694
1.60651
1.6063
1.6063
1.60652
1.60695
1.60759
1.60844
1.60951
1.61078
1.61227
1.61395
1.61584
1.61794
1.62023
1.62271
1.62538
1.62824
1.63129
1.63451
1.63791
1.64148
1.64522
1.64911
1.65316
1.65736
1.6617
1.66619
1.6708
1.67555
1.68041
1.68539
1.69048
1.69567
1.70095
1.70633
1.71179
1.71732
1.72293
1.7286
1.73432
1.7401
1.74592
1.75178
1.75767
1.76358
1.76952
1.77546
1.78142
1.78737
1.79331
1.79925
1.80516
1.81105
1.81691
1.82274
1.82852
1.83426
1.83995
1.84558
1.85115
1.85665
1.86208
1.86743
1.87271
1.87789
1.88299
1.888
1.8929
1.89771
1.90241
1.907
1.91148
1.91584
1.92008
1.9242
1.92819
1.93206
1.93579
1.93939
1.94285
1.94618
1.94936
1.9524
1.95529
1.95804
1.96063
1.96308
1.96537
1.96751
1.96949
1.97132
1.97299
1.9745
1.97584
1.97703
1.97806
1.97892
1.97962
1.98016
1.98053
1.98074
1.98079
1.98311
1.98305
1.98285
1.98247
1.98193
1.98122
1.98035
1.97931
1.97811
1.97675
1.97523
1.97354
1.9717
1.96969
1.96753
1.96522
1.96274
1.96012
1.95735
1.95442
1.95135
1.94813
1.94477
1.94127
1.93763
1.93386
1.92995
1.92591
1.92174
1.91745
1.91304
1.90851
1.90386
1.89911
1.89424
1.88928
1.88421
1.87905
1.87379
1.86845
1.86303
1.85753
1.85195
1.84631
1.8406
1.83484
1.82902
1.82315
1.81724
1.8113
1.80532
1.79932
1.7933
1.78726
1.78122
1.77518
1.76914
1.76311
1.75711
1.75112
1.74517
1.73925
1.73338
1.72756
1.72179
1.71609
1.71046
1.70491
1.69944
1.69406
1.68878
1.6836
1.67854
1.67358
1.66875
1.66405
1.65949
1.65506
1.65079
1.64666
1.64269
1.63889
1.63525
1.63179
1.6285
1.6254
1.62248
1.61976
1.61723
1.61489
1.61276
1.61083
1.60912
1.60761
1.60631
1.60522
1.60435
1.6037
1.60327
1.60305
1.60305
1.60327
1.60371
1.60436
1.60524
1.60632
1.60762
1.60914
1.61086
1.61279
1.61492
1.61726
1.61979
1.62252
1.62544
1.62855
1.63184
1.6353
1.63894
1.64275
1.64672
1.65085
1.65513
1.65956
1.66412
1.66883
1.67366
1.67861
1.68368
1.68886
1.69415
1.69953
1.705
1.71055
1.71618
1.72189
1.72765
1.73348
1.73935
1.74527
1.75122
1.75721
1.76322
1.76925
1.77529
1.78133
1.78738
1.79341
1.79944
1.80544
1.81142
1.81736
1.82327
1.82914
1.83496
1.84073
1.84643
1.85208
1.85765
1.86316
1.86858
1.87392
1.87918
1.88434
1.88941
1.89438
1.89924
1.904
1.90865
1.91318
1.91759
1.92188
1.92605
1.93009
1.934
1.93778
1.94142
1.94492
1.94828
1.9515
1.95457
1.95749
1.96027
1.96289
1.96536
1.96768
1.96984
1.97185
1.97369
1.97538
1.9769
1.97826
1.97946
1.9805
1.98137
1.98208
1.98262
1.983
1.9832
1.98326
1.98574
1.98568
1.98547
1.98509
1.98455
1.98383
1.98295
1.9819
1.98069
1.97931
1.97777
1.97607
1.9742
1.97218
1.96999
1.96765
1.96515
1.9625
1.95969
1.95674
1.95363
1.95037
1.94697
1.94343
1.93975
1.93593
1.93197
1.92789
1.92367
1.91932
1.91486
1.91027
1.90556
1.90075
1.89582
1.89079
1.88565
1.88042
1.8751
1.86968
1.86418
1.8586
1.85295
1.84723
1.84144
1.83559
1.82968
1.82373
1.81773
1.81169
1.80562
1.79953
1.79341
1.78728
1.78114
1.775
1.76886
1.76273
1.75662
1.75053
1.74448
1.73846
1.73248
1.72655
1.72069
1.71488
1.70915
1.70349
1.69792
1.69244
1.68706
1.68178
1.67662
1.67157
1.66664
1.66185
1.65719
1.65268
1.64832
1.64411
1.64006
1.63617
1.63246
1.62892
1.62557
1.6224