/*--------------------------------*- C++ -*----------------------------------*\
| =========                 |                                                 |
| \\      /  F ield         | OpenFOAM: The Open Source CFD Toolbox           |
|  \\    /   O peration     | Version:  2412                                  |
|   \\  /    A nd           | Website:  www.openfoam.com                      |
|    \\/     M anipulation  |                                                 |
\*---------------------------------------------------------------------------*/
FoamFile
{
    version     2.0;
    format      ascii;
    arch        "LSB;label=32;scalar=64";
    class       surfaceScalarField;
    location    "1.12";
    object      phi;
}
// * * * * * * * * * * * * * * * * * * * * * * * * * * * * * * * * * * * * * //

dimensions      [0 3 -1 0 0 0 0];

oriented        oriented;

internalField   nonuniform List<scalar> 
79600
(
2.21864e-11
-2.21717e-11
5.02262e-11
-2.80404e-11
8.15117e-11
-3.12857e-11
1.14422e-10
-3.29112e-11
1.48062e-10
-3.36408e-11
1.81857e-10
-3.37948e-11
2.15532e-10
-3.36738e-11
2.48996e-10
-3.34631e-11
2.82209e-10
-3.32123e-11
3.15161e-10
-3.29523e-11
3.47845e-10
-3.26847e-11
3.8025e-10
-3.24038e-11
4.1236e-10
-3.21086e-11
4.44159e-10
-3.17978e-11
4.7563e-10
-3.14694e-11
5.06752e-10
-3.11217e-11
5.37505e-10
-3.0753e-11
5.67867e-10
-3.03629e-11
5.97817e-10
-2.99506e-11
6.27332e-10
-2.95154e-11
6.56389e-10
-2.90569e-11
6.84964e-10
-2.85745e-11
7.13032e-10
-2.80679e-11
7.40569e-10
-2.7537e-11
7.6755e-10
-2.69815e-11
7.93952e-10
-2.64013e-11
8.19749e-10
-2.57964e-11
8.44916e-10
-2.51669e-11
8.69429e-10
-2.45128e-11
8.93263e-10
-2.3834e-11
9.16392e-10
-2.31305e-11
9.38794e-10
-2.24019e-11
9.60442e-10
-2.16481e-11
9.81311e-10
-2.08693e-11
1.00138e-09
-2.00658e-11
1.02061e-09
-1.92377e-11
1.039e-09
-1.8385e-11
1.05651e-09
-1.75077e-11
1.07311e-09
-1.66056e-11
1.08879e-09
-1.56789e-11
1.10352e-09
-1.4728e-11
1.11727e-09
-1.37534e-11
1.13003e-09
-1.27556e-11
1.14176e-09
-1.17351e-11
1.15245e-09
-1.06922e-11
1.16208e-09
-9.62748e-12
1.17062e-09
-8.54163e-12
1.17806e-09
-7.43544e-12
1.18437e-09
-6.30981e-12
1.18953e-09
-5.16558e-12
1.19353e-09
-4.0035e-12
1.19636e-09
-2.82416e-12
1.19798e-09
-1.62754e-12
1.1984e-09
-4.12958e-13
1.19758e-09
8.18523e-13
1.19552e-09
2.05766e-12
1.19222e-09
3.30462e-12
1.18766e-09
4.55947e-12
1.18184e-09
5.82185e-12
1.17475e-09
7.09058e-12
1.16638e-09
8.36432e-12
1.15674e-09
9.64163e-12
1.14582e-09
1.0921e-11
1.13362e-09
1.22007e-11
1.12014e-09
1.34789e-11
1.10539e-09
1.47537e-11
1.08937e-09
1.60231e-11
1.07208e-09
1.7285e-11
1.05354e-09
1.85375e-11
1.03376e-09
1.97785e-11
1.01276e-09
2.10062e-11
9.90537e-10
2.22185e-11
9.67123e-10
2.34137e-11
9.42534e-10
2.45898e-11
9.1679e-10
2.57448e-11
8.89914e-10
2.68765e-11
8.61931e-10
2.79825e-11
8.3287e-10
2.90608e-11
8.02759e-10
3.01094e-11
7.71632e-10
3.11266e-11
7.39521e-10
3.21105e-11
7.06462e-10
3.30589e-11
6.72493e-10
3.39699e-11
6.37653e-10
3.48413e-11
6.01982e-10
3.56714e-11
5.65525e-10
3.64584e-11
5.28325e-10
3.72005e-11
4.90428e-10
3.78962e-11
4.51883e-10
3.85441e-11
4.1274e-10
3.91429e-11
3.73049e-10
3.96915e-11
3.3286e-10
4.01888e-11
2.92227e-10
4.06334e-11
2.51203e-10
4.10242e-11
2.09842e-10
4.13606e-11
1.682e-10
4.16421e-11
1.26332e-10
4.18683e-11
8.42951e-11
4.20384e-11
4.21446e-11
4.21517e-11
-6.14422e-14
4.22071e-11
-4.22674e-11
4.2207e-11
-8.44185e-11
4.21516e-11
-1.26457e-10
4.20385e-11
-1.68326e-10
4.18687e-11
-2.09969e-10
4.16425e-11
-2.5133e-10
4.13608e-11
-2.92355e-10
4.10245e-11
-3.32988e-10
4.0634e-11
-3.73178e-10
4.01895e-11
-4.12871e-10
3.96923e-11
-4.52016e-10
3.91437e-11
-4.90562e-10
3.85449e-11
-5.28459e-10
3.78971e-11
-5.65661e-10
3.72015e-11
-6.02121e-10
3.64598e-11
-6.37794e-10
3.56735e-11
-6.72637e-10
3.48439e-11
-7.0661e-10
3.39729e-11
-7.39673e-10
3.30624e-11
-7.71789e-10
3.21142e-11
-8.0292e-10
3.11304e-11
-8.33034e-10
3.01134e-11
-8.62099e-10
2.9065e-11
-8.90085e-10
2.79873e-11
-9.16966e-10
2.68818e-11
-9.42716e-10
2.57506e-11
-9.67312e-10
2.45963e-11
-9.90733e-10
2.3421e-11
-1.01296e-09
2.22258e-11
-1.03397e-09
2.10133e-11
-1.05376e-09
1.9786e-11
-1.0723e-09
1.8546e-11
-1.0896e-09
1.72944e-11
-1.10563e-09
1.6033e-11
-1.12039e-09
1.4765e-11
-1.13388e-09
1.34918e-11
-1.14609e-09
1.2215e-11
-1.15703e-09
1.09366e-11
-1.16669e-09
9.65804e-12
-1.17507e-09
8.38146e-12
-1.18218e-09
7.10804e-12
-1.18801e-09
5.83854e-12
-1.19259e-09
4.57478e-12
-1.1959e-09
3.31856e-12
-1.19797e-09
2.06984e-12
-1.1988e-09
8.285e-13
-1.1984e-09
-4.04355e-13
-1.19678e-09
-1.61967e-12
-1.19396e-09
-2.8159e-12
-1.18997e-09
-3.99352e-12
-1.18481e-09
-5.15328e-12
-1.17852e-09
-6.29459e-12
-1.1711e-09
-7.41669e-12
-1.16258e-09
-8.51941e-12
-1.15298e-09
-9.60249e-12
-1.14231e-09
-1.06654e-11
-1.13061e-09
-1.17073e-11
-1.11788e-09
-1.27275e-11
-1.10415e-09
-1.37256e-11
-1.08945e-09
-1.47007e-11
-1.0738e-09
-1.56526e-11
-1.05722e-09
-1.65799e-11
-1.03974e-09
-1.74819e-11
-1.02138e-09
-1.83589e-11
-1.00217e-09
-1.92104e-11
-9.82128e-10
-2.00365e-11
-9.61289e-10
-2.08376e-11
-9.39675e-10
-2.16142e-11
-9.17309e-10
-2.23664e-11
-8.94216e-10
-2.30942e-11
-8.70418e-10
-2.3797e-11
-8.45942e-10
-2.44756e-11
-8.20812e-10
-2.5128e-11
-7.95057e-10
-2.57538e-11
-7.68705e-10
-2.63522e-11
-7.41781e-10
-2.69239e-11
-7.14311e-10
-2.74704e-11
-6.86318e-10
-2.79929e-11
-6.57823e-10
-2.84945e-11
-6.28851e-10
-2.89733e-11
-5.99422e-10
-2.94293e-11
-5.69562e-10
-2.98612e-11
-5.39297e-10
-3.0266e-11
-5.08651e-10
-3.06442e-11
-4.77656e-10
-3.09963e-11
-4.46332e-10
-3.13239e-11
-4.14702e-10
-3.16289e-11
-3.82791e-10
-3.19126e-11
-3.50616e-10
-3.21758e-11
-3.182e-10
-3.24168e-11
-2.85567e-10
-3.26346e-11
-2.52738e-10
-3.28285e-11
-2.1974e-10
-3.2997e-11
-1.86602e-10
-3.3139e-11
-1.53348e-10
-3.32547e-11
-1.20012e-10
-3.33367e-11
-8.66567e-11
-3.3354e-11
-5.35312e-11
-3.31266e-11
-2.20746e-11
-3.14533e-11
-2.20783e-11
3.48024e-11
-5.69748e-11
7.99332e-11
-7.31738e-11
1.25353e-10
-7.67062e-11
1.71126e-10
-7.86804e-11
2.17287e-10
-7.97994e-11
2.63669e-10
-8.01753e-11
3.10115e-10
-8.01208e-11
3.5649e-10
-7.98379e-11
4.02704e-10
-7.94263e-11
4.48689e-10
-7.89358e-11
4.94391e-10
-7.83854e-11
5.39769e-10
-7.77801e-11
5.84785e-10
-7.71227e-11
6.29402e-10
-7.64139e-11
6.73587e-10
-7.56532e-11
7.17305e-10
-7.48394e-11
7.60523e-10
-7.39714e-11
8.03207e-10
-7.30483e-11
8.45325e-10
-7.20694e-11
8.86843e-10
-7.10338e-11
9.27727e-10
-6.99409e-11
9.67943e-10
-6.87898e-11
1.00746e-09
-6.75801e-11
1.04623e-09
-6.63114e-11
1.08423e-09
-6.49832e-11
1.12143e-09
-6.35954e-11
1.15778e-09
-6.2148e-11
1.19325e-09
-6.06407e-11
1.22781e-09
-5.90734e-11
1.26142e-09
-5.74458e-11
1.29405e-09
-5.57576e-11
1.32566e-09
-5.40087e-11
1.35621e-09
-5.21991e-11
1.38567e-09
-5.03292e-11
1.414e-09
-4.83991e-11
1.44117e-09
-4.64091e-11
1.46714e-09
-4.43591e-11
1.49189e-09
-4.22493e-11
1.51536e-09
-4.008e-11
1.53754e-09
-3.78519e-11
1.55837e-09
-3.55658e-11
1.57784e-09
-3.32227e-11
1.59591e-09
-3.08232e-11
1.61254e-09
-2.83684e-11
1.6277e-09
-2.58594e-11
1.64137e-09
-2.32976e-11
1.65352e-09
-2.06848e-11
1.6641e-09
-1.80227e-11
1.6731e-09
-1.53132e-11
1.6805e-09
-1.25583e-11
1.68625e-09
-9.76e-12
1.69035e-09
-6.92047e-12
1.69276e-09
-4.04206e-12
1.69348e-09
-1.12752e-12
1.69248e-09
1.82097e-12
1.68974e-09
4.79815e-12
1.68524e-09
7.80157e-12
1.67897e-09
1.08281e-11
1.67092e-09
1.38747e-11
1.66107e-09
1.6938e-11
1.64942e-09
2.00145e-11
1.63597e-09
2.31004e-11
1.62069e-09
2.61918e-11
1.60361e-09
2.92847e-11
1.58472e-09
3.23746e-11
1.56401e-09
3.54569e-11
1.54151e-09
3.85271e-11
1.51721e-09
4.15803e-11
1.49114e-09
4.46117e-11
1.4633e-09
4.76167e-11
1.43371e-09
5.05904e-11
1.4024e-09
5.35281e-11
1.36939e-09
5.64248e-11
1.33471e-09
5.92756e-11
1.29838e-09
6.20751e-11
1.26044e-09
6.48183e-11
1.22092e-09
6.75e-11
1.17986e-09
7.01155e-11
1.13731e-09
7.266e-11
1.09331e-09
7.51287e-11
1.0479e-09
7.75167e-11
1.00114e-09
7.98188e-11
9.53084e-10
8.20299e-11
9.03781e-10
8.41454e-11
8.53293e-10
8.61609e-11
8.01679e-10
8.80723e-11
7.49003e-10
8.98755e-11
6.95332e-10
9.15668e-11
6.40732e-10
9.31426e-11
5.85276e-10
9.45995e-11
5.29034e-10
9.59343e-11
4.72079e-10
9.71441e-11
4.14486e-10
9.82261e-11
3.56332e-10
9.91781e-11
2.97695e-10
9.99981e-11
2.38655e-10
1.00684e-10
1.79289e-10
1.01236e-10
1.1968e-10
1.0165e-10
5.99081e-11
1.01926e-10
5.35652e-14
1.02062e-10
-5.98009e-11
1.02062e-10
-1.19573e-10
1.01925e-10
-1.79184e-10
1.01648e-10
-2.3855e-10
1.01234e-10
-2.97592e-10
1.00684e-10
-3.56229e-10
9.99985e-11
-4.14383e-10
9.91788e-11
-4.71977e-10
9.8227e-11
-5.28934e-10
9.7145e-11
-5.85179e-10
9.59351e-11
-6.40637e-10
9.46005e-11
-6.95238e-10
9.31444e-11
-7.4891e-10
9.15694e-11
-8.01587e-10
8.98784e-11
-8.53202e-10
8.80752e-11
-9.03693e-10
8.61641e-11
-9.52998e-10
8.41489e-11
-1.00106e-09
8.20335e-11
-1.04782e-09
7.9823e-11
-1.09323e-09
7.75223e-11
-1.13724e-09
7.51359e-11
-1.17979e-09
7.26684e-11
-1.22085e-09
7.01245e-11
-1.26037e-09
6.75093e-11
-1.29832e-09
6.4828e-11
-1.33465e-09
6.20853e-11
-1.36934e-09
5.92864e-11
-1.40236e-09
5.64368e-11
-1.43367e-09
5.35415e-11
-1.46326e-09
5.0605e-11
-1.49111e-09
4.76322e-11
-1.51719e-09
4.46284e-11
-1.54149e-09
4.15982e-11
-1.564e-09
3.85458e-11
-1.58471e-09
3.54768e-11
-1.60361e-09
3.23964e-11
-1.6207e-09
2.93084e-11
-1.63598e-09
2.62174e-11
-1.64945e-09
2.31272e-11
-1.66111e-09
2.0042e-11
-1.67096e-09
1.69659e-11
-1.67903e-09
1.39018e-11
-1.6853e-09
1.08531e-11
-1.68981e-09
7.824e-12
-1.69255e-09
4.81825e-12
-1.69356e-09
1.83841e-12
-1.69286e-09
-1.11146e-12
-1.69045e-09
-4.02627e-12
-1.68636e-09
-6.9037e-12
-1.68061e-09
-9.74066e-12
-1.67323e-09
-1.25355e-11
-1.66424e-09
-1.52867e-11
-1.65366e-09
-1.79919e-11
-1.64153e-09
-2.06494e-11
-1.62788e-09
-2.3258e-11
-1.61272e-09
-2.58171e-11
-1.59611e-09
-2.83249e-11
-1.57805e-09
-3.07794e-11
-1.5586e-09
-3.31793e-11
-1.53778e-09
-3.55233e-11
-1.51562e-09
-3.78105e-11
-1.49216e-09
-4.00391e-11
-1.46743e-09
-4.22078e-11
-1.44147e-09
-4.43163e-11
-1.41432e-09
-4.63645e-11
-1.386e-09
-4.83524e-11
-1.35656e-09
-5.02798e-11
-1.32603e-09
-5.21475e-11
-1.29444e-09
-5.39537e-11
-1.26183e-09
-5.57004e-11
-1.22824e-09
-5.73868e-11
-1.1937e-09
-5.90138e-11
-1.15825e-09
-6.05793e-11
-1.12192e-09
-6.20819e-11
-1.08475e-09
-6.35219e-11
-1.04678e-09
-6.4898e-11
-1.00803e-09
-6.62143e-11
-9.68551e-10
-6.74731e-11
-9.28368e-10
-6.86762e-11
-8.87522e-10
-6.98232e-11
-8.46041e-10
-7.09122e-11
-8.0396e-10
-7.19423e-11
-7.61314e-10
-7.2911e-11
-7.18136e-10
-7.38207e-11
-6.74463e-10
-7.46714e-11
-6.30325e-10
-7.54631e-11
-5.85754e-10
-7.61999e-11
-5.40786e-10
-7.68816e-11
-4.9545e-10
-7.75103e-11
-4.4978e-10
-7.80877e-11
-4.0381e-10
-7.8608e-11
-3.57568e-10
-7.90704e-11
-3.11087e-10
-7.94758e-11
-2.64404e-10
-7.98233e-11
-2.17544e-10
-8.01153e-11
-1.70538e-10
-8.0345e-11
-1.2342e-10
-8.04691e-11
-7.64193e-11
-8.01288e-11
-3.13378e-11
-7.65323e-11
-5.34152e-11
3.47925e-11
-9.17674e-11
8.35071e-11
-1.2189e-10
1.32562e-10
-1.25762e-10
1.8115e-10
-1.27267e-10
2.29563e-10
-1.28209e-10
2.77928e-10
-1.28538e-10
3.26261e-10
-1.28453e-10
3.745e-10
-1.28076e-10
4.2258e-10
-1.27507e-10
4.70444e-10
-1.26799e-10
5.18038e-10
-1.25978e-10
5.65315e-10
-1.25056e-10
6.12232e-10
-1.24039e-10
6.58749e-10
-1.2293e-10
7.04827e-10
-1.21731e-10
7.50428e-10
-1.20441e-10
7.95517e-10
-1.19061e-10
8.40057e-10
-1.17589e-10
8.84012e-10
-1.16026e-10
9.27347e-10
-1.14369e-10
9.70026e-10
-1.1262e-10
1.01201e-09
-1.10776e-10
1.05327e-09
-1.08837e-10
1.09376e-09
-1.06803e-10
1.13345e-09
-1.04673e-10
1.1723e-09
-1.02446e-10
1.21028e-09
-1.00123e-10
1.24734e-09
-9.77034e-11
1.28345e-09
-9.51861e-11
1.31858e-09
-9.2571e-11
1.35267e-09
-8.98579e-11
1.38571e-09
-8.70468e-11
1.41765e-09
-8.41378e-11
1.44845e-09
-8.11312e-11
1.47808e-09
-7.80271e-11
1.5065e-09
-7.48257e-11
1.53366e-09
-7.15273e-11
1.55955e-09
-6.81323e-11
1.58411e-09
-6.46416e-11
1.60732e-09
-6.10562e-11
1.62913e-09
-5.73774e-11
1.64951e-09
-5.36063e-11
1.66843e-09
-4.97444e-11
1.68585e-09
-4.57931e-11
1.70175e-09
-4.17544e-11
1.71608e-09
-3.76307e-11
1.72882e-09
-3.34244e-11
1.73993e-09
-2.91385e-11
1.7494e-09
-2.47757e-11
1.75718e-09
-2.03391e-11
1.76325e-09
-1.58323e-11
1.76759e-09
-1.1259e-11
1.77017e-09
-6.62361e-12
1.77097e-09
-1.93106e-12
1.76998e-09
2.81496e-12
1.76717e-09
7.61059e-12
1.76252e-09
1.2451e-11
1.75602e-09
1.73305e-11
1.74765e-09
2.22435e-11
1.7374e-09
2.71842e-11
1.72527e-09
3.21469e-11
1.71125e-09
3.71254e-11
1.69532e-09
4.21134e-11
1.67751e-09
4.7104e-11
1.65779e-09
5.20902e-11
1.63618e-09
5.70649e-11
1.61269e-09
6.20204e-11
1.58732e-09
6.69493e-11
1.56008e-09
7.18441e-11
1.531e-09
7.6697e-11
1.50009e-09
8.15001e-11
1.46738e-09
8.62456e-11
1.43288e-09
9.09254e-11
1.39662e-09
9.55309e-11
1.35864e-09
1.00054e-10
1.31897e-09
1.04486e-10
1.27765e-09
1.0882e-10
1.23472e-09
1.13047e-10
1.19022e-09
1.1716e-10
1.1442e-09
1.2115e-10
1.09671e-09
1.2501e-10
1.0478e-09
1.2873e-10
9.97522e-10
1.32304e-10
9.45943e-10
1.35724e-10
8.9312e-10
1.38983e-10
8.39118e-10
1.42074e-10
7.84001e-10
1.44991e-10
7.27839e-10
1.47727e-10
6.70704e-10
1.50277e-10
6.12668e-10
1.52634e-10
5.53808e-10
1.54795e-10
4.942e-10
1.56753e-10
4.33922e-10
1.58505e-10
3.73055e-10
1.60046e-10
3.11681e-10
1.61374e-10
2.49882e-10
1.62486e-10
1.87741e-10
1.63377e-10
1.25345e-10
1.64047e-10
6.27765e-11
1.64494e-10
1.21691e-13
1.64717e-10
-6.2533e-11
1.64717e-10
-1.25101e-10
1.64493e-10
-1.87498e-10
1.64046e-10
-2.49639e-10
1.63376e-10
-3.11439e-10
1.62484e-10
-3.72814e-10
1.61374e-10
-4.33682e-10
1.60046e-10
-4.93961e-10
1.58505e-10
-5.53572e-10
1.56753e-10
-6.12434e-10
1.54795e-10
-6.7047e-10
1.52636e-10
-7.27606e-10
1.50279e-10
-7.83769e-10
1.47731e-10
-8.38886e-10
1.44995e-10
-8.9289e-10
1.42079e-10
-9.45713e-10
1.38988e-10
-9.97294e-10
1.35729e-10
-1.04757e-09
1.32309e-10
-1.09648e-09
1.28736e-10
-1.14398e-09
1.25016e-10
-1.19e-09
1.21159e-10
-1.2345e-09
1.1717e-10
-1.27744e-09
1.13058e-10
-1.31876e-09
1.08832e-10
-1.35843e-09
1.04499e-10
-1.39641e-09
1.00067e-10
-1.43267e-09
9.5545e-11
-1.46717e-09
9.09405e-11
-1.49989e-09
8.62625e-11
-1.5308e-09
8.15187e-11
-1.55989e-09
7.67167e-11
-1.58712e-09
7.18648e-11
-1.6125e-09
6.69714e-11
-1.63599e-09
6.20436e-11
-1.6576e-09
5.70892e-11
-1.67732e-09
5.21162e-11
-1.69514e-09
4.71315e-11
-1.71107e-09
4.21423e-11
-1.72509e-09
3.71555e-11
-1.73723e-09
3.21773e-11
-1.74748e-09
2.72145e-11
-1.75585e-09
2.22733e-11
-1.76235e-09
1.73589e-11
-1.767e-09
1.24775e-11
-1.76982e-09
7.63541e-12
-1.77082e-09
2.83802e-12
-1.77002e-09
-1.90947e-12
-1.76745e-09
-6.60191e-12
-1.76311e-09
-1.12363e-11
-1.75705e-09
-1.58073e-11
-1.74927e-09
-2.03107e-11
-1.73981e-09
-2.47436e-11
-1.7287e-09
-2.91027e-11
-1.71597e-09
-3.33848e-11
-1.70164e-09
-3.75875e-11
-1.68574e-09
-4.17087e-11
-1.66832e-09
-4.57462e-11
-1.6494e-09
-4.9697e-11
-1.62902e-09
-5.35593e-11
-1.60722e-09
-5.73307e-11
-1.58402e-09
-6.10097e-11
-1.55946e-09
-6.45953e-11
-1.53358e-09
-6.80856e-11
-1.50642e-09
-7.14793e-11
-1.47801e-09
-7.47755e-11
-1.44838e-09
-7.79749e-11
-1.41758e-09
-8.10767e-11
-1.38565e-09
-8.40812e-11
-1.35262e-09
-8.6987e-11
-1.31852e-09
-8.97958e-11
-1.2834e-09
-9.25073e-11
-1.24729e-09
-9.51206e-11
-1.21023e-09
-9.76362e-11
-1.17226e-09
-1.00052e-10
-1.13342e-09
-1.02368e-10
-1.09373e-09
-1.04585e-10
-1.05324e-09
-1.06706e-10
-1.01198e-09
-1.08733e-10
-9.69989e-10
-1.10665e-10
-9.27308e-10
-1.12506e-10
-8.83969e-10
-1.14252e-10
-8.40005e-10
-1.15903e-10
-7.95457e-10
-1.17461e-10
-7.50353e-10
-1.18924e-10
-7.04731e-10
-1.20294e-10
-6.58624e-10
-1.21572e-10
-6.12064e-10
-1.22757e-10
-5.65091e-10
-1.23854e-10
-5.17738e-10
-1.24864e-10
-4.70036e-10
-1.25787e-10
-4.22023e-10
-1.26622e-10
-3.73729e-10
-1.27366e-10
-3.25184e-10
-1.28018e-10
-2.76425e-10
-1.28584e-10
-2.27479e-10
-1.29061e-10
-1.78376e-10
-1.29445e-10
-1.29164e-10
-1.2968e-10
-8.00869e-11
-1.29207e-10
-3.3033e-11
-1.23587e-10
-8.64455e-11
3.36365e-11
-1.25403e-10
8.23473e-11
-1.70597e-10
1.32421e-10
-1.75834e-10
1.81965e-10
-1.76811e-10
2.31103e-10
-1.77345e-10
2.80032e-10
-1.77465e-10
3.28802e-10
-1.77221e-10
3.77406e-10
-1.76681e-10
4.25818e-10
-1.75918e-10
4.73994e-10
-1.74976e-10
5.21892e-10
-1.73876e-10
5.6947e-10
-1.72633e-10
6.16687e-10
-1.71255e-10
6.63504e-10
-1.69746e-10
7.09881e-10
-1.68108e-10
7.55782e-10
-1.66343e-10
8.0117e-10
-1.6445e-10
8.46009e-10
-1.62429e-10
8.90262e-10
-1.6028e-10
9.33894e-10
-1.58002e-10
9.76869e-10
-1.55594e-10
1.01915e-09
-1.53055e-10
1.0607e-09
-1.50385e-10
1.10148e-09
-1.47583e-10
1.14145e-09
-1.44649e-10
1.18059e-09
-1.41581e-10
1.21884e-09
-1.38379e-10
1.25618e-09
-1.35043e-10
1.29257e-09
-1.31572e-10
1.32796e-09
-1.27965e-10
1.36233e-09
-1.24223e-10
1.39563e-09
-1.20345e-10
1.42782e-09
-1.16332e-10
1.45887e-09
-1.12183e-10
1.48874e-09
-1.07899e-10
1.5174e-09
-1.0348e-10
1.5448e-09
-9.89271e-11
1.57091e-09
-9.42403e-11
1.59569e-09
-8.94211e-11
1.6191e-09
-8.44709e-11
1.64112e-09
-7.93913e-11
1.66169e-09
-7.41839e-11
1.6808e-09
-6.88507e-11
1.6984e-09
-6.33938e-11
1.71446e-09
-5.78161e-11
1.72895e-09
-5.21206e-11
1.74183e-09
-4.63108e-11
1.75309e-09
-4.03902e-11
1.76267e-09
-3.43629e-11
1.77057e-09
-2.82333e-11
1.77674e-09
-2.20061e-11
1.78117e-09
-1.56867e-11
1.78383e-09
-9.28083e-12
1.78469e-09
-2.79492e-12
1.78374e-09
3.76631e-12
1.78095e-09
1.03968e-11
1.77632e-09
1.70894e-11
1.76981e-09
2.38368e-11
1.76142e-09
3.06314e-11
1.75114e-09
3.74651e-11
1.73896e-09
4.43298e-11
1.72487e-09
5.12169e-11
1.70886e-09
5.81176e-11
1.69094e-09
6.50224e-11
1.67111e-09
7.19215e-11
1.64937e-09
7.88049e-11
1.62573e-09
8.56626e-11
1.60019e-09
9.24843e-11
1.57278e-09
9.92596e-11
1.5435e-09
1.05978e-10
1.51237e-09
1.12627e-10
1.47942e-09
1.19197e-10
1.44467e-09
1.25677e-10
1.40814e-09
1.32054e-10
1.36988e-09
1.38317e-10
1.32991e-09
1.44455e-10
1.28827e-09
1.50457e-10
1.24501e-09
1.56312e-10
1.20016e-09
1.62009e-10
1.15378e-09
1.67535e-10
1.10591e-09
1.7288e-10
1.0566e-09
1.78033e-10
1.00592e-09
1.82984e-10
9.53927e-10
1.87722e-10
9.00672e-10
1.92237e-10
8.46225e-10
1.9652e-10
7.90653e-10
2.00562e-10
7.34025e-10
2.04354e-10
6.76413e-10
2.07888e-10
6.17891e-10
2.11156e-10
5.58536e-10
2.14151e-10
4.98425e-10
2.16866e-10
4.37637e-10
2.19294e-10
3.76253e-10
2.21432e-10
3.14357e-10
2.23272e-10
2.52032e-10
2.24812e-10
1.89362e-10
2.26048e-10
1.26432e-10
2.26977e-10
6.3329e-11
2.27597e-10
1.39728e-13
2.27908e-10
-6.30497e-11
2.27908e-10
-1.26153e-10
2.27597e-10
-1.89082e-10
2.26977e-10
-2.51753e-10
2.26047e-10
-3.14079e-10
2.2481e-10
-3.75976e-10
2.2327e-10
-4.3736e-10
2.21429e-10
-4.9815e-10
2.19292e-10
-5.58263e-10
2.16864e-10
-6.17619e-10
2.14151e-10
-6.76141e-10
2.11158e-10
-7.33754e-10
2.07891e-10
-7.90383e-10
2.04358e-10
-8.45956e-10
2.00567e-10
-9.00403e-10
1.96526e-10
-9.53658e-10
1.92243e-10
-1.00566e-09
1.87728e-10
-1.05634e-09
1.82991e-10
-1.10564e-09
1.7804e-10
-1.15352e-09
1.72888e-10
-1.1999e-09
1.67544e-10
-1.24475e-09
1.62019e-10
-1.28802e-09
1.56325e-10
-1.32966e-09
1.50471e-10
-1.36963e-09
1.4447e-10
-1.40789e-09
1.38333e-10
-1.44441e-09
1.32071e-10
-1.47917e-09
1.25694e-10
-1.51212e-09
1.19216e-10
-1.54325e-09
1.12648e-10
-1.57253e-09
1.06e-10
-1.59995e-09
9.92831e-11
-1.62549e-09
9.25094e-11
-1.64913e-09
8.56893e-11
-1.67088e-09
7.88325e-11
-1.69071e-09
7.19499e-11
-1.70863e-09
6.50515e-11
-1.72463e-09
5.81475e-11
-1.73872e-09
5.12478e-11
-1.75091e-09
4.43611e-11
-1.76119e-09
3.74963e-11
-1.76958e-09
3.06626e-11
-1.77609e-09
2.38677e-11
-1.78073e-09
1.7119e-11
-1.78352e-09
1.04251e-11
-1.78447e-09
3.79367e-12
-1.78361e-09
-2.76875e-12
-1.78096e-09
-9.25465e-12
-1.77654e-09
-1.56596e-11
-1.77037e-09
-2.1977e-11
-1.76248e-09
-2.82012e-11
-1.75289e-09
-3.43276e-11
-1.74164e-09
-4.03517e-11
-1.72876e-09
-4.62694e-11
-1.71427e-09
-5.20767e-11
-1.69821e-09
-5.77699e-11
-1.68061e-09
-6.33462e-11
-1.6615e-09
-6.88023e-11
-1.64092e-09
-7.41357e-11
-1.61891e-09
-7.93433e-11
-1.59549e-09
-8.44227e-11
-1.57072e-09
-8.93728e-11
-1.54461e-09
-9.41914e-11
-1.51721e-09
-9.88768e-11
-1.48856e-09
-1.03428e-10
-1.45869e-09
-1.07845e-10
-1.42764e-09
-1.12127e-10
-1.39544e-09
-1.16274e-10
-1.36215e-09
-1.20286e-10
-1.32778e-09
-1.24161e-10
-1.29239e-09
-1.27902e-10
-1.256e-09
-1.31506e-10
-1.21866e-09
-1.34975e-10
-1.1804e-09
-1.38308e-10
-1.14126e-09
-1.41505e-10
-1.10128e-09
-1.44567e-10
-1.06049e-09
-1.47495e-10
-1.01894e-09
-1.50292e-10
-9.76644e-10
-1.52958e-10
-9.33656e-10
-1.55494e-10
-8.90006e-10
-1.579e-10
-8.45733e-10
-1.60176e-10
-8.0087e-10
-1.62324e-10
-7.55453e-10
-1.64342e-10
-7.09515e-10
-1.66231e-10
-6.63089e-10
-1.67995e-10
-6.16211e-10
-1.69632e-10
-5.68918e-10
-1.71146e-10
-5.21244e-10
-1.7254e-10
-4.73221e-10
-1.73811e-10
-4.24882e-10
-1.74959e-10
-3.76261e-10
-1.75985e-10
-3.27391e-10
-1.76888e-10
-2.78302e-10
-1.77672e-10
-2.29026e-10
-1.78337e-10
-1.79597e-10
-1.78874e-10
-1.30067e-10
-1.7921e-10
-8.06895e-11
-1.78583e-10
-3.33655e-11
-1.70911e-10
-1.1981e-10
3.31855e-11
-1.58589e-10
8.14209e-11
-2.18829e-10
1.31647e-10
-2.26057e-10
1.81629e-10
-2.26792e-10
2.31212e-10
-2.26927e-10
2.80505e-10
-2.26757e-10
3.29563e-10
-2.26278e-10
3.78406e-10
-2.25524e-10
4.27021e-10
-2.24533e-10
4.75377e-10
-2.23332e-10
5.2344e-10
-2.2194e-10
5.71175e-10
-2.20369e-10
6.18545e-10
-2.18624e-10
6.65511e-10
-2.16712e-10
7.12037e-10
-2.14634e-10
7.58086e-10
-2.12392e-10
8.03622e-10
-2.09987e-10
8.48609e-10
-2.07417e-10
8.93011e-10
-2.04682e-10
9.36793e-10
-2.01783e-10
9.79917e-10
-1.98717e-10
1.02235e-09
-1.95484e-10
1.06405e-09
-1.92084e-10
1.10498e-09
-1.88515e-10
1.14511e-09
-1.84776e-10
1.18439e-09
-1.80868e-10
1.2228e-09
-1.76787e-10
1.26029e-09
-1.72535e-10
1.29683e-09
-1.6811e-10
1.33238e-09
-1.63512e-10
1.3669e-09
-1.58741e-10
1.40035e-09
-1.53796e-10
1.43269e-09
-1.48677e-10
1.46389e-09
-1.43386e-10
1.49391e-09
-1.37921e-10
1.52272e-09
-1.32283e-10
1.55026e-09
-1.26474e-10
1.57652e-09
-1.20494e-10
1.60144e-09
-1.14344e-10
1.625e-09
-1.08027e-10
1.64715e-09
-1.01544e-10
1.66786e-09
-9.48977e-11
1.6871e-09
-8.809e-11
1.70483e-09
-8.11242e-11
1.72102e-09
-7.40037e-11
1.73563e-09
-6.67324e-11
1.74863e-09
-5.93144e-11
1.76e-09
-5.17544e-11
1.76969e-09
-4.40576e-11
1.77769e-09
-3.62295e-11
1.78396e-09
-2.82762e-11
1.78848e-09
-2.02044e-11
1.79121e-09
-1.20209e-11
1.79215e-09
-3.7339e-12
1.79127e-09
4.65086e-12
1.78854e-09
1.31244e-11
1.78396e-09
2.16777e-11
1.77749e-09
3.03017e-11
1.76914e-09
3.89867e-11
1.75888e-09
4.77226e-11
1.74671e-09
5.6499e-11
1.73262e-09
6.53048e-11
1.71661e-09
7.41283e-11
1.69868e-09
8.29576e-11
1.67882e-09
9.17802e-11
1.65704e-09
1.00584e-10
1.63334e-09
1.09355e-10
1.60775e-09
1.18081e-10
1.58026e-09
1.26749e-10
1.55089e-09
1.35343e-10
1.51967e-09
1.43851e-10
1.48661e-09
1.52258e-10
1.45173e-09
1.60549e-10
1.41508e-09
1.68709e-10
1.37667e-09
1.76725e-10
1.33654e-09
1.84581e-10
1.29474e-09
1.92264e-10
1.25129e-09
1.99758e-10
1.20625e-09
2.07049e-10
1.15966e-09
2.14123e-10
1.11158e-09
2.20965e-10
1.06205e-09
2.27562e-10
1.01113e-09
2.33901e-10
9.58887e-10
2.39967e-10
9.05374e-10
2.45749e-10
8.5066e-10
2.51234e-10
7.94811e-10
2.5641e-10
7.37898e-10
2.61266e-10
6.79993e-10
2.65792e-10
6.21171e-10
2.69978e-10
5.61509e-10
2.73814e-10
5.01083e-10
2.77292e-10
4.39976e-10
2.80403e-10
3.78268e-10
2.8314e-10
3.16043e-10
2.85498e-10
2.53385e-10
2.8747e-10
1.9038e-10
2.89054e-10
1.27113e-10
2.90244e-10
6.36714e-11
2.91039e-10
1.43153e-13
2.91437e-10
-6.33856e-11
2.91438e-10
-1.26828e-10
2.9104e-10
-1.90095e-10
2.90244e-10
-2.53101e-10
2.89053e-10
-3.15759e-10
2.87469e-10
-3.77985e-10
2.85495e-10
-4.39694e-10
2.83137e-10
-5.00802e-10
2.804e-10
-5.61228e-10
2.7729e-10
-6.20892e-10
2.73814e-10
-6.79714e-10
2.6998e-10
-7.3762e-10
2.65796e-10
-7.94534e-10
2.61271e-10
-8.50383e-10
2.56416e-10
-9.05097e-10
2.51241e-10
-9.5861e-10
2.45757e-10
-1.01086e-09
2.39975e-10
-1.06178e-09
2.33909e-10
-1.11131e-09
2.27571e-10
-1.15939e-09
2.20975e-10
-1.20598e-09
2.14133e-10
-1.25103e-09
2.07061e-10
-1.29447e-09
1.99772e-10
-1.33628e-09
1.9228e-10
-1.37641e-09
1.84598e-10
-1.41482e-09
1.76743e-10
-1.45147e-09
1.68728e-10
-1.48635e-09
1.60568e-10
-1.51941e-09
1.52278e-10
-1.55064e-09
1.43873e-10
-1.58e-09
1.35368e-10
-1.60749e-09
1.26775e-10
-1.63309e-09
1.18109e-10
-1.65679e-09
1.09384e-10
-1.67857e-09
1.00614e-10
-1.69843e-09
9.18106e-11
-1.71636e-09
8.2988e-11
-1.73238e-09
7.4159e-11
-1.74646e-09
6.53363e-11
-1.75863e-09
5.65316e-11
-1.76889e-09
4.77557e-11
-1.77725e-09
3.90199e-11
-1.78372e-09
3.03349e-11
-1.78831e-09
2.171e-11
-1.79104e-09
1.31555e-11
-1.79192e-09
4.68149e-12
-1.79099e-09
-3.70356e-12
-1.78825e-09
-1.19907e-11
-1.78374e-09
-2.01731e-11
-1.77747e-09
-2.82434e-11
-1.76948e-09
-3.61944e-11
-1.75979e-09
-4.40199e-11
-1.74842e-09
-5.17142e-11
-1.73542e-09
-5.92718e-11
-1.72081e-09
-6.66877e-11
-1.70462e-09
-7.39569e-11
-1.68689e-09
-8.10759e-11
-1.66765e-09
-8.80412e-11
-1.64694e-09
-9.48487e-11
-1.62479e-09
-1.01495e-10
-1.60123e-09
-1.07978e-10
-1.57631e-09
-1.14294e-10
-1.55006e-09
-1.20443e-10
-1.52251e-09
-1.26422e-10
-1.49371e-09
-1.3223e-10
-1.46369e-09
-1.37865e-10
-1.43249e-09
-1.4333e-10
-1.40014e-09
-1.4862e-10
-1.36669e-09
-1.53737e-10
-1.33217e-09
-1.5868e-10
-1.29662e-09
-1.63449e-10
-1.26008e-09
-1.68045e-10
-1.22259e-09
-1.72469e-10
-1.18418e-09
-1.76719e-10
-1.14489e-09
-1.80796e-10
-1.10475e-09
-1.84702e-10
-1.06381e-09
-1.88436e-10
-1.0221e-09
-1.92002e-10
-9.79657e-10
-1.95402e-10
-9.36518e-10
-1.98633e-10
-8.92716e-10
-2.01699e-10
-8.48294e-10
-2.046e-10
-8.03281e-10
-2.07336e-10
-7.57713e-10
-2.09909e-10
-7.11629e-10
-2.12318e-10
-6.65055e-10
-2.14565e-10
-6.18031e-10
-2.16654e-10
-5.70594e-10
-2.18586e-10
-5.22772e-10
-2.20361e-10
-4.74602e-10
-2.21981e-10
-4.26118e-10
-2.23444e-10
-3.77351e-10
-2.24751e-10
-3.28335e-10
-2.25904e-10
-2.79102e-10
-2.26906e-10
-2.29684e-10
-2.27754e-10
-1.80116e-10
-2.28441e-10
-1.30454e-10
-2.28872e-10
-8.09528e-11
-2.28085e-10
-3.35093e-11
-2.18352e-10
-1.53321e-10
3.31071e-11
-1.91696e-10
8.11159e-11
-2.66836e-10
1.31354e-10
-2.76293e-10
1.81548e-10
-2.76984e-10
2.31418e-10
-2.76796e-10
2.80995e-10
-2.76334e-10
3.30319e-10
-2.75601e-10
3.794e-10
-2.74606e-10
4.28228e-10
-2.73362e-10
4.76782e-10
-2.71886e-10
5.2503e-10
-2.7019e-10
5.72942e-10
-2.68281e-10
6.20484e-10
-2.66165e-10
6.67619e-10
-2.63847e-10
7.14311e-10
-2.61327e-10
7.60527e-10
-2.58608e-10
8.06229e-10
-2.55689e-10
8.51382e-10
-2.52571e-10
8.95952e-10
-2.49251e-10
9.39902e-10
-2.45731e-10
9.83195e-10
-2.42008e-10
1.02579e-09
-2.38083e-10
1.06766e-09
-2.33953e-10
1.10877e-09
-2.29618e-10
1.14907e-09
-2.25076e-10
1.18853e-09
-2.20326e-10
1.22711e-09
-2.15368e-10
1.26478e-09
-2.102e-10
1.30149e-09
-2.04822e-10
1.33721e-09
-1.99233e-10
1.3719e-09
-1.93433e-10
1.40553e-09
-1.87421e-10
1.43805e-09
-1.81198e-10
1.46942e-09
-1.74762e-10
1.49962e-09
-1.68116e-10
1.52859e-09
-1.61259e-10
1.55631e-09
-1.54193e-10
1.58274e-09
-1.46918e-10
1.60783e-09
-1.39437e-10
1.63155e-09
-1.31751e-10
1.65387e-09
-1.23862e-10
1.67474e-09
-1.15773e-10
1.69414e-09
-1.07488e-10
1.71203e-09
-9.901e-11
1.72836e-09
-9.03428e-11
1.74312e-09
-8.14912e-11
1.75627e-09
-7.24604e-11
1.76777e-09
-6.32559e-11
1.7776e-09
-5.38841e-11
1.78572e-09
-4.43515e-11
1.79211e-09
-3.46656e-11
1.79674e-09
-2.48341e-11
1.79958e-09
-1.48654e-11
1.80061e-09
-4.76905e-12
1.79982e-09
5.44732e-12
1.79717e-09
1.57726e-11
1.79265e-09
2.61959e-11
1.78625e-09
3.67063e-11
1.77794e-09
4.72921e-11
1.76773e-09
5.7941e-11
1.75558e-09
6.86402e-11
1.74151e-09
7.9376e-11
1.72551e-09
9.01342e-11
1.70756e-09
1.009e-10
1.68768e-09
1.11659e-10
1.66587e-09
1.22396e-10
1.64213e-09
1.33094e-10
1.61647e-09
1.43739e-10
1.58891e-09
1.54313e-10
1.55945e-09
1.64798e-10
1.52813e-09
1.75178e-10
1.49495e-09
1.85435e-10
1.45995e-09
1.95552e-10
1.42314e-09
2.05511e-10
1.38457e-09
2.15294e-10
1.34427e-09
2.24883e-10
1.30228e-09
2.3426e-10
1.25863e-09
2.43408e-10
1.21337e-09
2.52308e-10
1.16655e-09
2.60944e-10
1.11821e-09
2.69298e-10
1.06842e-09
2.77353e-10
1.01723e-09
2.85092e-10
9.64699e-10
2.925e-10
9.10888e-10
2.99561e-10
8.55863e-10
3.06259e-10
7.99692e-10
3.1258e-10
7.42447e-10
3.18511e-10
6.842e-10
3.24039e-10
6.25027e-10
3.29152e-10
5.65004e-10
3.33838e-10
5.0421e-10
3.38085e-10
4.42727e-10
3.41885e-10
3.80638e-10
3.45229e-10
3.18026e-10
3.48109e-10
2.54977e-10
3.50519e-10
1.91577e-10
3.52454e-10
1.27913e-10
3.53909e-10
6.40724e-11
3.54881e-10
1.4398e-13
3.55367e-10
-6.3785e-11
3.55367e-10
-1.27627e-10
3.54881e-10
-1.91292e-10
3.53909e-10
-2.54692e-10
3.52454e-10
-3.17742e-10
3.50519e-10
-3.80354e-10
3.48108e-10
-4.42444e-10
3.45227e-10
-5.03927e-10
3.41884e-10
-5.64721e-10
3.38084e-10
-6.24744e-10
3.33838e-10
-6.83919e-10
3.29154e-10
-7.42167e-10
3.24043e-10
-7.99413e-10
3.18516e-10
-8.55584e-10
3.12586e-10
-9.1061e-10
3.06266e-10
-9.64422e-10
2.99569e-10
-1.01696e-09
2.92508e-10
-1.06815e-09
2.85101e-10
-1.11794e-09
2.77362e-10
-1.16627e-09
2.69309e-10
-1.2131e-09
2.60956e-10
-1.25836e-09
2.52322e-10
-1.30201e-09
2.43424e-10
-1.34401e-09
2.34278e-10
-1.38431e-09
2.24902e-10
-1.42288e-09
2.15314e-10
-1.45969e-09
2.05532e-10
-1.49469e-09
1.95574e-10
-1.52787e-09
1.85458e-10
-1.5592e-09
1.75202e-10
-1.58865e-09
1.64824e-10
-1.61622e-09
1.54341e-10
-1.64188e-09
1.43769e-10
-1.66562e-09
1.33126e-10
-1.68744e-09
1.22428e-10
-1.70732e-09
1.11691e-10
-1.72526e-09
1.00933e-10
-1.74127e-09
9.01669e-11
-1.75534e-09
7.94094e-11
-1.76748e-09
6.86747e-11
-1.7777e-09
5.79762e-11
-1.78601e-09
4.73273e-11
-1.79241e-09
3.67414e-11
-1.79693e-09
2.62305e-11
-1.79958e-09
1.58063e-11
-1.80038e-09
5.48092e-12
-1.79935e-09
-4.73498e-12
-1.79651e-09
-1.48314e-11
-1.79188e-09
-2.47992e-11
-1.7855e-09
-3.46295e-11
-1.77738e-09
-4.43138e-11
-1.76756e-09
-5.38443e-11
-1.75606e-09
-6.3214e-11
-1.74291e-09
-7.24164e-11
-1.72815e-09
-8.14453e-11
-1.71182e-09
-9.02951e-11
-1.69393e-09
-9.89611e-11
-1.67453e-09
-1.07439e-10
-1.65366e-09
-1.15724e-10
-1.63134e-09
-1.23811e-10
-1.60762e-09
-1.31699e-10
-1.58253e-09
-1.39384e-10
-1.5561e-09
-1.46866e-10
-1.52839e-09
-1.5414e-10
-1.49941e-09
-1.61206e-10
-1.46922e-09
-1.68061e-10
-1.43784e-09
-1.74706e-10
-1.40532e-09
-1.8114e-10
-1.37169e-09
-1.87362e-10
-1.337e-09
-1.93373e-10
-1.30127e-09
-1.99172e-10
-1.26456e-09
-2.0476e-10
-1.22689e-09
-2.10137e-10
-1.1883e-09
-2.15304e-10
-1.14884e-09
-2.20261e-10