/*--------------------------------*- C++ -*----------------------------------*\
| =========                 |                                                 |
| \\      /  F ield         | OpenFOAM: The Open Source CFD Toolbox           |
|  \\    /   O peration     | Version:  2412                                  |
|   \\  /    A nd           | Website:  www.openfoam.com                      |
|    \\/     M anipulation  |                                                 |
\*---------------------------------------------------------------------------*/
FoamFile
{
    version     2.0;
    format      ascii;
    arch        "LSB;label=32;scalar=64";
    class       volVectorField;
    location    "1.12";
    object      U;
}
// * * * * * * * * * * * * * * * * * * * * * * * * * * * * * * * * * * * * * //

dimensions      [0 1 -1 0 0 0 0];

internalField   nonuniform List<vector> 
40000
(
(1.01965e-05 -8.07249e-06 0)
(3.59069e-05 -8.82811e-06 0)
(6.57887e-05 -1.10461e-05 0)
(9.75125e-05 -1.21199e-05 0)
(0.000131135 -1.24599e-05 0)
(0.00016494 -1.25408e-05 0)
(0.000198699 -1.24727e-05 0)
(0.000232273 -1.23723e-05 0)
(0.000265612 -1.22599e-05 0)
(0.000298702 -1.21521e-05 0)
(0.000331524 -1.20478e-05 0)
(0.000364071 -1.19402e-05 0)
(0.000396332 -1.18286e-05 0)
(0.00042829 -1.17123e-05 0)
(0.000459929 -1.15902e-05 0)
(0.000491229 -1.14613e-05 0)
(0.000522169 -1.13245e-05 0)
(0.00055273 -1.11798e-05 0)
(0.000582889 -1.10269e-05 0)
(0.000612625 -1.08656e-05 0)
(0.000641914 -1.06956e-05 0)
(0.000670732 -1.05168e-05 0)
(0.000699057 -1.0329e-05 0)
(0.000726862 -1.01321e-05 0)
(0.000754125 -9.92603e-06 0)
(0.000780819 -9.71081e-06 0)
(0.000806922 -9.48644e-06 0)
(0.000832407 -9.25301e-06 0)
(0.000857251 -9.01061e-06 0)
(0.000881427 -8.7592e-06 0)
(0.000904912 -8.4987e-06 0)
(0.000927681 -8.22899e-06 0)
(0.000949709 -7.95003e-06 0)
(0.00097097 -7.66189e-06 0)
(0.000991441 -7.3647e-06 0)
(0.0010111 -7.05859e-06 0)
(0.00102991 -6.74354e-06 0)
(0.00104786 -6.41947e-06 0)
(0.00106492 -6.08634e-06 0)
(0.00108106 -5.74418e-06 0)
(0.00109627 -5.39314e-06 0)
(0.00111052 -5.03344e-06 0)
(0.00112377 -4.6653e-06 0)
(0.00113602 -4.28886e-06 0)
(0.00114724 -3.90426e-06 0)
(0.0011574 -3.51169e-06 0)
(0.00116648 -3.1114e-06 0)
(0.00117447 -2.70371e-06 0)
(0.00118135 -2.28895e-06 0)
(0.00118709 -1.86746e-06 0)
(0.00119167 -1.43947e-06 0)
(0.00119509 -1.00512e-06 0)
(0.00119732 -5.64103e-07 0)
(0.00119834 -1.15683e-07 0)
(0.00119814 3.38377e-07 0)
(0.0011967 7.95745e-07 0)
(0.00119402 1.25506e-06 0)
(0.00119009 1.71672e-06 0)
(0.00118491 2.18084e-06 0)
(0.00117845 2.64711e-06 0)
(0.00117072 3.11511e-06 0)
(0.00116172 3.58435e-06 0)
(0.00115144 4.05429e-06 0)
(0.00113988 4.52429e-06 0)
(0.00112704 4.9937e-06 0)
(0.00111292 5.46177e-06 0)
(0.00109753 5.92776e-06 0)
(0.00108088 6.39092e-06 0)
(0.00106296 6.85052e-06 0)
(0.0010438 7.30581e-06 0)
(0.00102341 7.75609e-06 0)
(0.00100179 8.20066e-06 0)
(0.000978975 8.63891e-06 0)
(0.000954971 9.07016e-06 0)
(0.000929801 9.49369e-06 0)
(0.000903488 9.90864e-06 0)
(0.000876055 1.03142e-05 0)
(0.000847529 1.07096e-05 0)
(0.00081794 1.10941e-05 0)
(0.000787316 1.14672e-05 0)
(0.000755693 1.18282e-05 0)
(0.000723103 1.21764e-05 0)
(0.000689584 1.25108e-05 0)
(0.000655174 1.28309e-05 0)
(0.000619914 1.31358e-05 0)
(0.000583845 1.3425e-05 0)
(0.00054701 1.36979e-05 0)
(0.000509456 1.39537e-05 0)
(0.000471229 1.4192e-05 0)
(0.000432379 1.44123e-05 0)
(0.000392956 1.46144e-05 0)
(0.00035301 1.47977e-05 0)
(0.000312593 1.49618e-05 0)
(0.000271757 1.51061e-05 0)
(0.000230558 1.52305e-05 0)
(0.00018905 1.53349e-05 0)
(0.000147288 1.54193e-05 0)
(0.000105329 1.54832e-05 0)
(6.32287e-05 1.55264e-05 0)
(2.1045e-05 1.5548e-05 0)
(-2.11679e-05 1.55479e-05 0)
(-6.33518e-05 1.55261e-05 0)
(-0.000105453 1.54829e-05 0)
(-0.000147414 1.54191e-05 0)
(-0.000189176 1.53346e-05 0)
(-0.000230685 1.523e-05 0)
(-0.000271884 1.51054e-05 0)
(-0.00031272 1.49611e-05 0)
(-0.000353138 1.4797e-05 0)
(-0.000393086 1.46136e-05 0)
(-0.000432511 1.44115e-05 0)
(-0.000471362 1.41911e-05 0)
(-0.00050959 1.39529e-05 0)
(-0.000547145 1.36972e-05 0)
(-0.000583982 1.34248e-05 0)
(-0.000620054 1.3136e-05 0)
(-0.000655317 1.28314e-05 0)
(-0.00068973 1.25117e-05 0)
(-0.000723253 1.21776e-05 0)
(-0.000755847 1.18296e-05 0)
(-0.000787475 1.14686e-05 0)
(-0.000818102 1.10954e-05 0)
(-0.000847695 1.07109e-05 0)
(-0.000876225 1.03156e-05 0)
(-0.000903662 9.91012e-06 0)
(-0.00092998 9.4952e-06 0)
(-0.000955156 9.07187e-06 0)
(-0.000979168 8.64079e-06 0)
(-0.00100199 8.20241e-06 0)
(-0.00102362 7.75757e-06 0)
(-0.00104402 7.30732e-06 0)
(-0.00106318 6.85245e-06 0)
(-0.0010811 6.39316e-06 0)
(-0.00109777 5.93016e-06 0)
(-0.00111317 5.46469e-06 0)
(-0.00112729 4.99724e-06 0)
(-0.00114014 4.52839e-06 0)
(-0.00115172 4.05892e-06 0)
(-0.00116202 3.58934e-06 0)
(-0.00117104 3.12049e-06 0)
(-0.00117878 2.65275e-06 0)
(-0.00118525 2.18627e-06 0)
(-0.00119045 1.72172e-06 0)
(-0.0011944 1.25969e-06 0)
(-0.00119709 7.99724e-07 0)
(-0.00119854 3.41311e-07 0)
(-0.00119875 -1.13597e-07 0)
(-0.00119773 -5.6267e-07 0)
(-0.00119551 -1.00381e-06 0)
(-0.00119211 -1.43765e-06 0)
(-0.00118753 -1.86488e-06 0)
(-0.0011818 -2.28532e-06 0)
(-0.00117495 -2.69864e-06 0)
(-0.00116697 -3.10485e-06 0)
(-0.00115791 -3.50392e-06 0)
(-0.00114777 -3.8957e-06 0)
(-0.00113658 -4.2798e-06 0)
(-0.00112436 -4.65607e-06 0)
(-0.00111113 -5.02424e-06 0)
(-0.00109692 -5.38416e-06 0)
(-0.00108174 -5.73581e-06 0)
(-0.00106562 -6.07852e-06 0)
(-0.00104858 -6.41189e-06 0)
(-0.00103066 -6.7361e-06 0)
(-0.00101187 -7.05101e-06 0)
(-0.000992245 -7.35659e-06 0)
(-0.000971803 -7.65301e-06 0)
(-0.000950574 -7.94039e-06 0)
(-0.00092858 -8.21879e-06 0)
(-0.000905847 -8.48821e-06 0)
(-0.000882398 -8.74859e-06 0)
(-0.000858257 -9.00053e-06 0)
(-0.000833451 -9.24284e-06 0)
(-0.000808006 -9.47527e-06 0)
(-0.000781951 -9.69735e-06 0)
(-0.000755311 -9.90923e-06 0)
(-0.00072811 -1.01117e-05 0)
(-0.000700375 -1.03054e-05 0)
(-0.000672126 -1.04918e-05 0)
(-0.000643389 -1.06701e-05 0)
(-0.000614185 -1.08403e-05 0)
(-0.000584539 -1.10021e-05 0)
(-0.000554474 -1.11537e-05 0)
(-0.000524017 -1.12953e-05 0)
(-0.000493194 -1.14265e-05 0)
(-0.000462031 -1.15479e-05 0)
(-0.000430551 -1.16605e-05 0)
(-0.000398777 -1.17654e-05 0)
(-0.00036673 -1.18631e-05 0)
(-0.000334432 -1.19533e-05 0)
(-0.000301905 -1.20352e-05 0)
(-0.000269172 -1.21082e-05 0)
(-0.000236256 -1.21713e-05 0)
(-0.000203185 -1.22242e-05 0)
(-0.000169987 -1.22669e-05 0)
(-0.000136687 -1.22949e-05 0)
(-0.000103307 -1.22954e-05 0)
(-6.99432e-05 -1.22273e-05 0)
(-3.75379e-05 -1.17391e-05 0)
(-9.08486e-06 -9.09217e-06 0)
(1.47012e-05 -3.91698e-05 0)
(5.78589e-05 -4.98831e-05 0)
(0.000102883 -5.39477e-05 0)
(0.000147951 -5.61358e-05 0)
(0.000194008 -5.72248e-05 0)
(0.00024034 -5.7462e-05 0)
(0.000286807 -5.72969e-05 0)
(0.000333255 -5.6975e-05 0)
(0.000379577 -5.65798e-05 0)
(0.000425697 -5.61559e-05 0)
(0.000471555 -5.57103e-05 0)
(0.000517107 -5.52391e-05 0)
(0.000562313 -5.47413e-05 0)
(0.000607139 -5.42146e-05 0)
(0.000651547 -5.36566e-05 0)
(0.000695505 -5.30649e-05 0)
(0.000738979 -5.24374e-05 0)
(0.000781936 -5.1773e-05 0)
(0.000824343 -5.10706e-05 0)
(0.000866167 -5.03293e-05 0)
(0.000907373 -4.95481e-05 0)
(0.000947928 -4.87265e-05 0)
(0.000987797 -4.78639e-05 0)
(0.00102695 -4.69598e-05 0)
(0.00106534 -4.6014e-05 0)
(0.00110294 -4.50262e-05 0)
(0.00113972 -4.39965e-05 0)
(0.00117564 -4.29248e-05 0)
(0.00121066 -4.18111e-05 0)
(0.00124475 -4.06552e-05 0)
(0.00127788 -3.94568e-05 0)
(0.00131 -3.82158e-05 0)
(0.00134108 -3.69321e-05 0)
(0.00137109 -3.56058e-05 0)
(0.0014 -3.42374e-05 0)
(0.00142775 -3.28268e-05 0)
(0.00145433 -3.13742e-05 0)
(0.0014797 -2.98795e-05 0)
(0.00150381 -2.83428e-05 0)
(0.00152664 -2.67644e-05 0)
(0.00154815 -2.5145e-05 0)
(0.00156831 -2.34852e-05 0)
(0.00158708 -2.17857e-05 0)
(0.00160443 -2.00472e-05 0)
(0.00162034 -1.82703e-05 0)
(0.00163476 -1.64563e-05 0)
(0.00164767 -1.46062e-05 0)
(0.00165904 -1.27213e-05 0)
(0.00166884 -1.08032e-05 0)
(0.00167704 -8.85317e-06 0)
(0.00168361 -6.87259e-06 0)
(0.00168854 -4.8628e-06 0)
(0.0016918 -2.82479e-06 0)
(0.00169337 -7.58875e-07 0)
(0.00169323 1.33143e-06 0)
(0.00169136 3.44087e-06 0)
(0.00168775 5.56624e-06 0)
(0.00168237 7.70663e-06 0)
(0.00167521 9.86053e-06 0)
(0.00166626 1.20258e-05 0)
(0.00165552 1.42001e-05 0)
(0.00164296 1.63809e-05 0)
(0.0016286 1.85656e-05 0)
(0.00161242 2.07511e-05 0)
(0.00159443 2.29345e-05 0)
(0.00157463 2.51123e-05 0)
(0.00155303 2.72814e-05 0)
(0.00152962 2.94382e-05 0)
(0.00150444 3.15795e-05 0)
(0.00147748 3.37018e-05 0)
(0.00144876 3.58018e-05 0)
(0.00141831 3.78762e-05 0)
(0.00138615 3.99215e-05 0)
(0.00135229 4.19345e-05 0)
(0.00131678 4.39114e-05 0)
(0.00127964 4.58486e-05 0)
(0.0012409 4.77424e-05 0)
(0.00120061 4.95893e-05 0)
(0.0011588 5.1386e-05 0)
(0.00111551 5.31293e-05 0)
(0.0010708 5.48156e-05 0)
(0.00102471 5.64414e-05 0)
(0.000977297 5.80032e-05 0)
(0.000928608 5.94974e-05 0)
(0.000878703 6.09212e-05 0)
(0.000827643 6.22714e-05 0)
(0.000775489 6.35453e-05 0)
(0.000722305 6.47402e-05 0)
(0.000668159 6.58534e-05 0)
(0.000613121 6.68828e-05 0)
(0.000557261 6.78262e-05 0)
(0.000500651 6.86815e-05 0)
(0.000443367 6.94467e-05 0)
(0.000385482 7.012e-05 0)
(0.000327076 7.07002e-05 0)
(0.000268225 7.11863e-05 0)
(0.000209011 7.15773e-05 0)
(0.000149512 7.18719e-05 0)
(8.98099e-05 7.20689e-05 0)
(2.99873e-05 7.21674e-05 0)
(-2.98802e-05 7.21671e-05 0)
(-8.97028e-05 7.20681e-05 0)
(-0.000149406 7.18709e-05 0)
(-0.000208906 7.15767e-05 0)
(-0.000268121 7.11861e-05 0)
(-0.000326972 7.07002e-05 0)
(-0.000385379 7.01203e-05 0)
(-0.000443265 6.94472e-05 0)
(-0.000500551 6.86822e-05 0)
(-0.000557163 6.7827e-05 0)
(-0.000613025 6.68839e-05 0)
(-0.000668065 6.58551e-05 0)
(-0.000722212 6.47424e-05 0)
(-0.000775396 6.35479e-05 0)
(-0.000827552 6.22744e-05 0)
(-0.000878614 6.09248e-05 0)
(-0.000928521 5.95015e-05 0)
(-0.000977213 5.80075e-05 0)
(-0.00102463 5.64464e-05 0)
(-0.00107073 5.48213e-05 0)
(-0.00111544 5.31358e-05 0)
(-0.00115873 5.13933e-05 0)
(-0.00120054 4.95971e-05 0)
(-0.00124084 4.77507e-05 0)
(-0.00127958 4.58577e-05 0)
(-0.00131672 4.39212e-05 0)
(-0.00135224 4.19452e-05 0)
(-0.0013861 3.99334e-05 0)
(-0.00141827 3.7889e-05 0)
(-0.00144872 3.58154e-05 0)
(-0.00147744 3.37163e-05 0)
(-0.00150441 3.15954e-05 0)
(-0.0015296 2.94556e-05 0)
(-0.00155301 2.72998e-05 0)
(-0.00157462 2.51324e-05 0)
(-0.00159443 2.29567e-05 0)
(-0.00161242 2.07755e-05 0)
(-0.00162861 1.85919e-05 0)
(-0.00164298 1.64087e-05 0)
(-0.00165554 1.42288e-05 0)
(-0.0016663 1.20547e-05 0)
(-0.00167526 9.88846e-06 0)
(-0.00168243 7.73237e-06 0)
(-0.00168781 5.58953e-06 0)
(-0.00169144 3.4615e-06 0)
(-0.00169331 1.34907e-06 0)
(-0.00169346 -7.43399e-07 0)
(-0.0016919 -2.81015e-06 0)
(-0.00168865 -4.84744e-06 0)
(-0.00168373 -6.85467e-06 0)
(-0.00167716 -8.83166e-06 0)
(-0.00166897 -1.07775e-05 0)
(-0.00165918 -1.26907e-05 0)
(-0.00164782 -1.45703e-05 0)
(-0.00163493 -1.6416e-05 0)
(-0.00162052 -1.82271e-05 0)
(-0.00160463 -2.00023e-05 0)
(-0.00158729 -2.17404e-05 0)
(-0.00156853 -2.34401e-05 0)
(-0.00154838 -2.51006e-05 0)
(-0.00152689 -2.67212e-05 0)
(-0.00150407 -2.83e-05 0)
(-0.00147998 -2.9836e-05 0)
(-0.00145463 -3.13293e-05 0)
(-0.00142807 -3.27796e-05 0)
(-0.00140033 -3.41872e-05 0)
(-0.00137144 -3.55521e-05 0)
(-0.00134145 -3.68751e-05 0)
(-0.00131038 -3.81555e-05 0)
(-0.00127828 -3.93944e-05 0)
(-0.00124517 -4.0591e-05 0)
(-0.0012111 -4.17462e-05 0)
(-0.0011761 -4.28572e-05 0)
(-0.0011402 -4.39231e-05 0)
(-0.00110345 -4.49435e-05 0)
(-0.00106588 -4.59182e-05 0)
(-0.00102751 -4.68506e-05 0)
(-0.000988392 -4.77426e-05 0)
(-0.000948553 -4.8597e-05 0)
(-0.000908031 -4.94127e-05 0)
(-0.000866863 -5.01883e-05 0)
(-0.000825079 -5.09226e-05 0)
(-0.000782714 -5.16122e-05 0)
(-0.000739799 -5.22581e-05 0)
(-0.000696369 -5.28604e-05 0)
(-0.000652457 -5.34202e-05 0)
(-0.000608096 -5.39412e-05 0)
(-0.000563321 -5.44246e-05 0)
(-0.000518163 -5.48719e-05 0)
(-0.000472656 -5.52833e-05 0)
(-0.000426833 -5.5655e-05 0)
(-0.000380724 -5.59859e-05 0)
(-0.000334357 -5.62753e-05 0)
(-0.00028777 -5.65219e-05 0)
(-0.000240996 -5.67264e-05 0)
(-0.00019406 -5.68806e-05 0)
(-0.000146954 -5.69417e-05 0)
(-9.97645e-05 -5.66217e-05 0)
(-5.3784e-05 -5.3897e-05 0)
(-1.16842e-05 -3.74842e-05 0)
(1.33261e-05 -7.39411e-05 0)
(5.90563e-05 -9.68881e-05 0)
(0.00010848 -0.000100393 0)
(0.00015696 -0.000102298 0)
(0.000205348 -0.000103539 0)
(0.000253695 -0.000104026 0)
(0.000302049 -0.000104022 0)
(0.000350351 -0.000103734 0)
(0.000398528 -0.000103267 0)
(0.000446517 -0.000102682 0)
(0.000494259 -0.000102004 0)
(0.000541705 -0.000101245 0)
(0.000588812 -0.00010041 0)
(0.000635538 -9.95035e-05 0)
(0.000681843 -9.85251e-05 0)
(0.00072769 -9.74748e-05 0)
(0.000773042 -9.6352e-05 0)
(0.000817863 -9.5156e-05 0)
(0.000862117 -9.38861e-05 0)
(0.000905768 -9.25416e-05 0)
(0.00094878 -9.11217e-05 0)
(0.000991118 -8.96257e-05 0)
(0.00103275 -8.80531e-05 0)
(0.00107363 -8.64033e-05 0)
(0.00111372 -8.46761e-05 0)
(0.001153 -8.28711e-05 0)
(0.00119142 -8.09881e-05 0)
(0.00122894 -7.90269e-05 0)
(0.00126553 -7.69872e-05 0)
(0.00130116 -7.48687e-05 0)
(0.00133578 -7.26712e-05 0)
(0.00136935 -7.03945e-05 0)
(0.00140185 -6.80388e-05 0)
(0.00143322 -6.56043e-05 0)
(0.00146344 -6.30913e-05 0)
(0.00149247 -6.04998e-05 0)
(0.00152027 -5.783e-05 0)
(0.0015468 -5.50822e-05 0)
(0.00157203 -5.2257e-05 0)
(0.00159592 -4.93552e-05 0)
(0.00161843 -4.63779e-05 0)
(0.00163954 -4.3326e-05 0)
(0.00165919 -4.02007e-05 0)
(0.00167737 -3.70033e-05 0)
(0.00169403 -3.37352e-05 0)
(0.00170915 -3.03983e-05 0)
(0.00172269 -2.69948e-05 0)
(0.00173462 -2.3527e-05 0)
(0.00174492 -1.99974e-05 0)
(0.00175354 -1.64083e-05 0)
(0.00176047 -1.27626e-05 0)
(0.00176568 -9.0632e-06 0)
(0.00176915 -5.31355e-06 0)
(0.00177084 -1.5174e-06 0)
(0.00177075 2.32189e-06 0)
(0.00176885 6.2006e-06 0)
(0.00176512 1.01147e-05 0)
(0.00175955 1.406e-05 0)
(0.00175212 1.8032e-05 0)
(0.00174281 2.20264e-05 0)
(0.00173162 2.60383e-05 0)
(0.00171855 3.00629e-05 0)
(0.00170357 3.40951e-05 0)
(0.0016867 3.81293e-05 0)
(0.00166794 4.21598e-05 0)
(0.00164727 4.61808e-05 0)
(0.00162472 5.01861e-05 0)
(0.00160029 5.41695e-05 0)
(0.00157398 5.8125e-05 0)
(0.00154582 6.20462e-05 0)
(0.00151582 6.59269e-05 0)
(0.00148401 6.97607e-05 0)
(0.00145039 7.35412e-05 0)
(0.00141501 7.72617e-05 0)
(0.00137789 8.09156e-05 0)
(0.00133906 8.44961e-05 0)
(0.00129856 8.79968e-05 0)
(0.00125642 9.14114e-05 0)
(0.0012127 9.47337e-05 0)
(0.00116743 9.79572e-05 0)
(0.00112067 0.000101075 0)
(0.00107246 0.000104081 0)
(0.00102286 0.000106969 0)
(0.000971923 0.000109732 0)
(0.000919712 0.000112365 0)
(0.00086629 0.000114863 0)
(0.000811719 0.000117219 0)
(0.000756069 0.000119429 0)
(0.00069941 0.000121488 0)
(0.000641813 0.000123392 0)
(0.000583354 0.000125137 0)
(0.000524108 0.000126718 0)
(0.000464153 0.000128132 0)
(0.000403568 0.000129377 0)
(0.000342435 0.000130449 0)
(0.000280836 0.000131346 0)
(0.000218854 0.000132067 0)
(0.000156573 0.000132608 0)
(9.40778e-05 0.000132969 0)
(3.14563e-05 0.00013315 0)
(-3.12129e-05 0.000133149 0)
(-9.38342e-05 0.000132968 0)
(-0.000156329 0.000132606 0)
(-0.000218611 0.000132064 0)
(-0.000280594 0.000131344 0)
(-0.000342194 0.000130447 0)
(-0.000403328 0.000129374 0)
(-0.000463914 0.00012813 0)
(-0.000523871 0.000126715 0)
(-0.000583119 0.000125134 0)
(-0.000641579 0.00012339 0)
(-0.000699177 0.000121486 0)
(-0.000755837 0.000119428 0)
(-0.000811488 0.000117219 0)
(-0.000866058 0.000114864 0)
(-0.000919482 0.000112367 0)
(-0.000971694 0.000109735 0)
(-0.00102263 0.000106973 0)
(-0.00107223 0.000104086 0)
(-0.00112045 0.000101082 0)
(-0.00116721 9.79658e-05 0)
(-0.00121248 9.4744e-05 0)
(-0.00125621 9.14226e-05 0)
(-0.00129834 8.80082e-05 0)
(-0.00133885 8.45078e-05 0)
(-0.00137768 8.09276e-05 0)
(-0.0014148 7.72741e-05 0)
(-0.00145019 7.35542e-05 0)
(-0.0014838 6.97748e-05 0)
(-0.00151562 6.59421e-05 0)
(-0.00154562 6.20622e-05 0)
(-0.00157379 5.81419e-05 0)
(-0.00160009 5.41877e-05 0)
(-0.00162453 5.02052e-05 0)
(-0.00164708 4.62013e-05 0)
(-0.00166775 4.21823e-05 0)
(-0.00168652 3.81537e-05 0)
(-0.00170339 3.41215e-05 0)
(-0.00171837 3.00909e-05 0)
(-0.00173145 2.60671e-05 0)
(-0.00174264 2.20555e-05 0)
(-0.00175195 1.80607e-05 0)
(-0.00175938 1.40869e-05 0)
(-0.00176496 1.01393e-05 0)
(-0.00176869 6.22302e-06 0)
(-0.00177059 2.34201e-06 0)
(-0.00177069 -1.49907e-06 0)
(-0.001769 -5.29569e-06 0)
(-0.00176554 -9.04462e-06 0)
(-0.00176034 -1.27416e-05 0)
(-0.00175342 -1.63839e-05 0)
(-0.0017448 -1.99691e-05 0)
(-0.00173451 -2.34944e-05 0)
(-0.00172258 -2.69572e-05 0)
(-0.00170904 -3.0356e-05 0)
(-0.00169392 -3.36894e-05 0)
(-0.00167726 -3.69555e-05 0)
(-0.00165908 -4.01517e-05 0)
(-0.00163943 -4.32767e-05 0)
(-0.00161833 -4.63285e-05 0)
(-0.00159582 -4.93062e-05 0)
(-0.00157194 -5.22081e-05 0)
(-0.00154671 -5.50328e-05 0)
(-0.00152019 -5.77795e-05 0)
(-0.0014924 -6.04477e-05 0)
(-0.00146337 -6.30377e-05 0)
(-0.00143316 -6.55489e-05 0)
(-0.00140178 -6.79815e-05 0)
(-0.00136929 -7.03341e-05 0)
(-0.00133572 -7.26084e-05 0)
(-0.00130111 -7.48041e-05 0)
(-0.00126549 -7.69211e-05 0)
(-0.0012289 -7.89588e-05 0)
(-0.00119138 -8.09152e-05 0)
(-0.00115297 -8.2791e-05 0)
(-0.0011137 -8.45856e-05 0)
(-0.0010736 -8.63026e-05 0)
(-0.00103272 -8.79441e-05 0)
(-0.000991084 -8.95106e-05 0)
(-0.000948742 -9.10035e-05 0)
(-0.000905727 -9.24201e-05 0)
(-0.000862073 -9.37594e-05 0)
(-0.000817815 -9.50209e-05 0)
(-0.000772984 -9.62043e-05 0)
(-0.000727615 -9.73108e-05 0)
(-0.000681744 -9.83412e-05 0)
(-0.000635404 -9.92985e-05 0)
(-0.000588632 -0.000100185 0)
(-0.000541464 -0.000101004 0)
(-0.000493933 -0.000101754 0)
(-0.000446072 -0.000102434 0)
(-0.000397914 -0.000103038 0)
(-0.000349488 -0.000103568 0)
(-0.00030083 -0.000104025 0)
(-0.000251977 -0.000104409 0)
(-0.00020295 -0.000104715 0)
(-0.000153743 -0.000104894 0)
(-0.000104466 -0.000104489 0)
(-5.65525e-05 -9.98849e-05 0)
(-1.21803e-05 -6.97689e-05 0)
(1.23212e-05 -0.000109032 0)
(5.75886e-05 -0.000146518 0)
(0.000107694 -0.000150749 0)
(0.000157388 -0.00015189 0)
(0.000206635 -0.000152612 0)
(0.000255606 -0.000152847 0)
(0.000304427 -0.000152685 0)
(0.000353108 -0.000152246 0)
(0.00040162 -0.000151599 0)
(0.000449922 -0.000150789 0)
(0.000497968 -0.00014984 0)
(0.000545715 -0.000148766 0)
(0.000593121 -0.000147574 0)
(0.000640145 -0.00014627 0)
(0.000686749 -0.000144855 0)
(0.000732895 -0.00014333 0)
(0.000778547 -0.000141695 0)
(0.000823666 -0.00013995 0)
(0.000868219 -0.000138095 0)
(0.000912167 -0.000136129 0)
(0.000955476 -0.000134051 0)
(0.000998109 -0.00013186 0)
(0.00104003 -0.000129556 0)
(0.0010812 -0.000127139 0)
(0.00112158 -0.000124607 0)
(0.00116114 -0.000121961 0)
(0.00119985 -0.000119199 0)
(0.00123765 -0.000116322 0)
(0.00127452 -0.000113328 0)
(0.00131042 -0.000110218 0)
(0.0013453 -0.000106992 0)
(0.00137914 -0.000103648 0)
(0.00141189 -0.000100188 0)
(0.00144352 -9.66117e-05 0)
(0.00147399 -9.29189e-05 0)
(0.00150325 -8.91101e-05 0)
(0.00153129 -8.51856e-05 0)
(0.00155805 -8.1146e-05 0)
(0.0015835 -7.69925e-05 0)
(0.0016076 -7.27261e-05 0)
(0.00163032 -6.83482e-05 0)
(0.00165162 -6.38604e-05 0)
(0.00167147 -5.92643e-05 0)
(0.00168983 -5.45617e-05 0)
(0.00170666 -4.97551e-05 0)
(0.00172194 -4.48471e-05 0)
(0.00173564 -3.98408e-05 0)
(0.00174771 -3.47394e-05 0)
(0.00175813 -2.95464e-05 0)
(0.00176688 -2.42654e-05 0)
(0.00177392 -1.89007e-05 0)
(0.00177922 -1.34567e-05 0)
(0.00178277 -7.93855e-06 0)
(0.00178453 -2.35168e-06 0)
(0.00178449 3.2991e-06 0)
(0.00178263 9.00919e-06 0)
(0.00177892 1.47729e-05 0)
(0.00177335 2.05838e-05 0)
(0.00176591 2.6435e-05 0)
(0.00175657 3.23198e-05 0)
(0.00174534 3.82311e-05 0)
(0.0017322 4.41615e-05 0)
(0.00171716 5.01034e-05 0)
(0.0017002 5.60485e-05 0)
(0.00168132 6.19886e-05 0)
(0.00166054 6.79148e-05 0)
(0.00163784 7.38184e-05 0)
(0.00161325 7.96906e-05 0)
(0.00158677 8.55221e-05 0)
(0.00155842 9.13039e-05 0)
(0.00152821 9.70266e-05 0)
(0.00149617 0.000102681 0)
(0.00146231 0.000108256 0)
(0.00142667 0.000113744 0)
(0.00138927 0.000119133 0)
(0.00135015 0.000124415 0)
(0.00130934 0.000129579 0)
(0.00126688 0.000134617 0)
(0.00122282 0.000139519 0)
(0.0011772 0.000144275 0)
(0.00113006 0.000148875 0)
(0.00108147 0.00015331 0)
(0.00103147 0.00015757 0)
(0.000980119 0.000161647 0)
(0.000927483 0.000165532 0)
(0.000873623 0.000169218 0)
(0.000818602 0.000172695 0)
(0.000762491 0.000175957 0)
(0.000705359 0.000178997 0)
(0.000647281 0.000181807 0)
(0.000588331 0.000184383 0)
(0.000528586 0.000186717 0)
(0.000468124 0.000188805 0)
(0.000407026 0.000190642 0)
(0.000345374 0.000192225 0)
(0.000283251 0.000193549 0)
(0.00022074 0.000194611 0)
(0.000157927 0.00019541 0)
(9.4898e-05 0.000195943 0)
(3.17418e-05 0.000196209 0)
(-3.14624e-05 0.000196209 0)
(-9.46185e-05 0.000195943 0)
(-0.000157648 0.000195409 0)
(-0.000220461 0.00019461 0)
(-0.000282972 0.000193547 0)
(-0.000345096 0.000192222 0)
(-0.000406749 0.000190639 0)
(-0.000467849 0.000188802 0)
(-0.000528312 0.000186713 0)
(-0.000588059 0.000184379 0)
(-0.00064701 0.000181805 0)
(-0.000705088 0.000178996 0)
(-0.00076222 0.000175957 0)
(-0.000818332 0.000172696 0)
(-0.000873353 0.00016922 0)
(-0.000927214 0.000165536 0)
(-0.000979851 0.000161652 0)
(-0.0010312 0.000157576 0)
(-0.0010812 0.000153316 0)
(-0.0011298 0.000148883 0)
(-0.00117694 0.000144285 0)
(-0.00122256 0.000139532 0)
(-0.00126663 0.000134631 0)
(-0.00130909 0.000129594 0)
(-0.0013499 0.00012443 0)
(-0.00138902 0.000119149 0)
(-0.00142642 0.00011376 0)
(-0.00146206 0.000108272 0)
(-0.00149592 0.000102697 0)
(-0.00152797 9.7044e-05 0)
(-0.00155818 9.13221e-05 0)
(-0.00158653 8.55407e-05 0)
(-0.00161301 7.97101e-05 0)
(-0.0016376 7.38391e-05 0)
(-0.0016603 6.79364e-05 0)
(-0.00168108 6.20115e-05 0)
(-0.00169996 5.60729e-05 0)
(-0.00171692 5.01293e-05 0)
(-0.00173197 4.41891e-05 0)
(-0.00174511 3.82596e-05 0)
(-0.00175634 3.23488e-05 0)
(-0.00176567 2.64643e-05 0)
(-0.00177312 2.06125e-05 0)
(-0.00177869 1.48002e-05 0)
(-0.0017824 9.03508e-06 0)
(-0.00178427 3.32362e-06 0)
(-0.00178431 -2.32837e-06 0)
(-0.00178256 -7.91547e-06 0)
(-0.00177902 -1.34328e-05 0)
(-0.00177372 -1.88746e-05 0)
(-0.00176668 -2.4236e-05 0)
(-0.00175794 -2.95133e-05 0)
(-0.00174752 -3.47025e-05 0)
(-0.00173545 -3.97998e-05 0)
(-0.00172175 -4.48024e-05 0)
(-0.00170647 -4.97072e-05 0)
(-0.00168964 -5.45119e-05 0)
(-0.00167128 -5.92133e-05 0)
(-0.00165143 -6.38093e-05 0)
(-0.00163013 -6.82972e-05 0)
(-0.00160741 -7.26752e-05 0)
(-0.00158331 -7.69421e-05 0)
(-0.00155786 -8.10959e-05 0)
(-0.0015311 -8.5135e-05 0)
(-0.00150307 -8.90584e-05 0)
(-0.00147381 -9.28663e-05 0)
(-0.00144334 -9.65582e-05 0)
(-0.00141171 -0.000100133 0)
(-0.00137896 -0.000103591 0)
(-0.00134512 -0.000106933 0)
(-0.00131023 -0.000110158 0)
(-0.00127433 -0.000113265 0)
(-0.00123747 -0.000116256 0)
(-0.00119966 -0.00011913 0)
(-0.00116096 -0.000121885 0)
(-0.0011214 -0.000124524 0)
(-0.00108101 -0.000127047 0)
(-0.00103982 -0.000129459 0)
(-0.000997891 -0.000131758 0)
(-0.000955245 -0.000133947 0)
(-0.000911921 -0.000136023 0)
(-0.000867957 -0.000137985 0)
(-0.000823386 -0.000139836 0)
(-0.000778241 -0.000141575 0)
(-0.000732556 -0.000143202 0)
(-0.000686367 -0.000144721 0)
(-0.000639709 -0.000146131 0)
(-0.00059262 -0.000147438 0)
(-0.000545134 -0.000148642 0)
(-0.000497282 -0.000149742 0)
(-0.000449096 -0.000150736 0)
(-0.000400609 -0.000151622 0)
(-0.000351855 -0.000152398 0)
(-0.000302871 -0.000153069 0)
(-0.000253689 -0.000153637 0)
(-0.000204333 -0.000154096 0)
(-0.000154802 -0.000154381 0)
(-0.000105216 -0.000153836 0)
(-5.70546e-05 -0.000147195 0)
(-1.22877e-05 -0.000103085 0)
(1.21501e-05 -0.000142237 0)
(5.68064e-05 -0.000194881 0)
(0.000106661 -0.000200973 0)
(0.000156809 -0.000201769 0)
(0.000206544 -0.000202065 0)
(0.000255936 -0.000202022 0)
(0.000305081 -0.000201655 0)
(0.000354016 -0.000201019 0)
(0.00040274 -0.000200155 0)
(0.000451227 -0.000199094 0)
(0.000499442 -0.000197857 0)
(0.000547347 -0.000196456 0)
(0.000594906 -0.0001949 0)
(0.00064208 -0.000193193 0)
(0.000688833 -0.000191337 0)
(0.000735126 -0.000189336 0)
(0.000780925 -0.000187188 0)
(0.000826193 -0.000184894 0)
(0.000870894 -0.000182453 0)
(0.000914992 -0.000179864 0)
(0.00095845 -0.000177128 0)
(0.00100123 -0.000174242 0)
(0.0010433 -0.000171207 0)
(0.00108463 -0.000168022 0)
(0.00112516 -0.000164686 0)
(0.00116487 -0.000161197 0)
(0.00120373 -0.000157557 0)
(0.00124168 -0.000153763 0)
(0.00127871 -0.000149815 0)
(0.00131475 -0.000145713 0)
(0.00134979 -0.000141456 0)
(0.00138378 -0.000137045 0)
(0.00141669 -0.00013248 0)
(0.00144846 -0.00012776 0)
(0.00147908 -0.000122886 0)
(0.0015085 -0.000117858 0)
(0.00153668 -0.000112677 0)
(0.00156359 -0.000107344 0)
(0.00158918 -0.00010186 0)
(0.00161343 -9.62269e-05 0)
(0.00163629 -9.04459e-05 0)
(0.00165773 -8.45192e-05 0)
(0.00167771 -7.84491e-05 0)
(0.0016962 -7.22381e-05 0)
(0.00171316 -6.58894e-05 0)
(0.00172856 -5.94065e-05 0)
(0.00174238 -5.27932e-05 0)
(0.00175457 -4.60536e-05 0)
(0.0017651 -3.91923e-05 0)
(0.00177395 -3.22144e-05 0)
(0.00178109 -2.51251e-05 0)
(0.00178649 -1.79305e-05 0)
(0.00179012 -1.06369e-05 0)
(0.00179196 -3.25093e-06 0)
(0.00179199 4.22052e-06 0)
(0.00179019 1.17708e-05 0)
(0.00178653 1.93923e-05 0)
(0.00178101 2.70768e-05 0)
(0.0017736 3.48153e-05 0)
(0.0017643 4.25989e-05 0)
(0.00175309 5.04183e-05 0)
(0.00173996 5.82635e-05 0)
(0.00172491 6.61242e-05 0)
(0.00170794 7.39896e-05 0)
(0.00168904 8.18487e-05 0)
(0.00166822 8.96902e-05 0)
(0.00164548 9.75025e-05 0)
(0.00162084 0.000105274 0)
(0.00159429 0.000112993 0)
(0.00156586 0.000120647 0)
(0.00153556 0.000128223 0)
(0.00150341 0.000135708 0)
(0.00146944 0.00014309 0)
(0.00143368 0.000150357 0)
(0.00139614 0.000157494 0)
(0.00135686 0.000164489 0)
(0.00131589 0.000171329 0)
(0.00127326 0.000178002 0)
(0.00122901 0.000184494 0)
(0.00118319 0.000190793 0)
(0.00113584 0.000196885 0)
(0.00108703 0.000202759 0)
(0.0010368 0.000208402 0)
(0.000985205 0.000213803 0)
(0.000932316 0.00021895 0)
(0.000878193 0.000223832 0)
(0.0008229 0.000228439 0)
(0.000766508 0.000232762 0)
(0.000709088 0.00023679 0)
(0.000650713 0.000240515 0)
(0.000591459 0.000243929 0)
(0.000531403 0.000247024 0)
(0.000470624 0.000249792 0)
(0.000409204 0.000252228 0)
(0.000347225 0.000254327 0)
(0.000284771 0.000256082 0)
(0.000221926 0.000257491 0)
(0.000158777 0.00025855 0)
(9.541e-05 0.000259258 0)
(3.19149e-05 0.000259612 0)
(-3.16286e-05 0.000259613 0)
(-9.51242e-05 0.000259259 0)
(-0.000158492 0.000258551 0)
(-0.000221642 0.000257491 0)
(-0.000284487 0.000256082 0)
(-0.000346942 0.000254326 0)
(-0.000408922 0.000252227 0)
(-0.000470342 0.000249791 0)
(-0.000531122 0.000247023 0)
(-0.000591179 0.000243929 0)
(-0.000650434 0.000240517 0)
(-0.000708809 0.000236793 0)
(-0.00076623 0.000232766 0)
(-0.000822623 0.000228445 0)
(-0.000877915 0.000223838 0)
(-0.000932039 0.000218956 0)
(-0.000984929 0.00021381 0)
(-0.00103652 0.000208409 0)
(-0.00108676 0.000202767 0)
(-0.00113557 0.000196894 0)
(-0.00118292 0.000190803 0)
(-0.00122874 0.000184506 0)
(-0.001273 0.000178017 0)
(-0.00131563 0.000171346 0)
(-0.0013566 0.000164507 0)
(-0.00139588 0.000157512 0)
(-0.00143342 0.000150376 0)
(-0.00146919 0.00014311 0)
(-0.00150316 0.000135728 0)
(-0.00153531 0.000128243 0)
(-0.00156561 0.000120668 0)
(-0.00159404 0.000113016 0)
(-0.00162059 0.000105298 0)
(-0.00164523 9.75275e-05 0)
(-0.00166797 8.97158e-05 0)
(-0.00168879 8.18748e-05 0)
(-0.00170769 7.40162e-05 0)
(-0.00172467 6.61516e-05 0)
(-0.00173971 5.82923e-05 0)
(-0.00175284 5.04485e-05 0)
(-0.00176406 4.263e-05 0)
(-0.00177336 3.4847e-05 0)
(-0.00178077 2.71087e-05 0)
(-0.0017863 1.94236e-05 0)
(-0.00178995 1.1801e-05 0)
(-0.00179176 4.24993e-06 0)
(-0.00179173 -3.22219e-06 0)
(-0.00178989 -1.06079e-05 0)
(-0.00178627 -1.79003e-05 0)
(-0.00178087 -2.50931e-05 0)
(-0.00177374 -3.21796e-05 0)
(-0.00176489 -3.91546e-05 0)
(-0.00175436 -4.60129e-05 0)
(-0.00174217 -5.27496e-05 0)
(-0.00172836 -5.93604e-05 0)
(-0.00171295 -6.58411e-05 0)
(-0.00169599 -7.21885e-05 0)
(-0.0016775 -7.8399e-05 0)
(-0.00165751 -8.44695e-05 0)
(-0.00163608 -9.03967e-05 0)
(-0.00161322 -9.6178e-05 0)
(-0.00158897 -0.000101812 0)
(-0.00156338 -0.000107296 0)
(-0.00153648 -0.000112629 0)
(-0.0015083 -0.000117809 0)
(-0.00147888 -0.000122835 0)
(-0.00144826 -0.000127709 0)
(-0.00141648 -0.000132427 0)
(-0.00138358 -0.000136991 0)
(-0.00134958 -0.0001414 0)
(-0.00131454 -0.000145654 0)
(-0.00127849 -0.000149754 0)
(-0.00124147 -0.000153699 0)
(-0.00120351 -0.000157491 0)
(-0.00116466 -0.000161126 0)
(-0.00112494 -0.000164609 0)
(-0.0010844 -0.00016794 0)
(-0.00104307 -0.00017112 0)
(-0.00100098 -0.000174152 0)
(-0.000958183 -0.000177035 0)
(-0.000914708 -0.000179771 0)
(-0.000870593 -0.000182359 0)
(-0.000825872 -0.000184801 0)
(-0.000780576 -0.000187097 0)
(-0.000734742 -0.000189247 0)
(-0.000688406 -0.000191254 0)
(-0.000641602 -0.00019312 0)
(-0.000594369 -0.000194845 0)
(-0.000546738 -0.000196433 0)
(-0.00049874 -0.000197881 0)
(-0.000450406 -0.000199187 0)
(-0.00040177 -0.000200351 0)
(-0.000352869 -0.000201375 0)
(-0.000303742 -0.000202264 0)
(-0.000254419 -0.000203018 0)
(-0.000204922 -0.000203631 0)
(-0.000155254 -0.000204017 0)
(-0.00010554 -0.000203315 0)
(-5.72686e-05 -0.000194616 0)
(-1.23492e-05 -0.000136554 0)
(1.21188e-05 -0.000175226 0)
(5.6675e-05 -0.000242915 0)
(0.000106236 -0.000251207 0)
(0.000156576 -0.000251866 0)
(0.000206599 -0.000251798 0)
(0.000256293 -0.000251464 0)
(0.000305719 -0.000250859 0)
(0.000354906 -0.000249991 0)
(0.000403855 -0.000248882 0)
(0.000452544 -0.000247551 0)
(0.000500947 -0.000246013 0)
(0.000549032 -0.000244278 0)
(0.000596763 -0.000242352 0)
(0.000644106 -0.00024024 0)
(0.000691026 -0.000237943 0)
(0.000737486 -0.000235465 0)
(0.00078345 -0.000232804 0)
(0.000828884 -0.000229961 0)
(0.000873752 -0.000226935 0)
(0.000918017 -0.000223725 0)
(0.000961644 -0.000220331 0)
(0.0010046 -0.000216752 0)
(0.00104684 -0.000212988 0)
(0.00108833 -0.000209036 0)
(0.00112904 -0.000204896 0)
(0.00116892 -0.000200567 0)
(0.00120795 -0.000196048 0)
(0.00124608 -0.000191338 0)
(0.00128327 -0.000186437 0)