/*--------------------------------*- C++ -*----------------------------------*\
| =========                 |                                                 |
| \\      /  F ield         | OpenFOAM: The Open Source CFD Toolbox           |
|  \\    /   O peration     | Version:  2412                                  |
|   \\  /    A nd           | Website:  www.openfoam.com                      |
|    \\/     M anipulation  |                                                 |
\*---------------------------------------------------------------------------*/
FoamFile
{
    version     2.0;
    format      ascii;
    arch        "LSB;label=32;scalar=64";
    class       volScalarField;
    location    "4";
    object      alpha.water;
}
// * * * * * * * * * * * * * * * * * * * * * * * * * * * * * * * * * * * * * //

dimensions      [0 0 0 0 0 0 0];

internalField   nonuniform List<scalar> 
40000
(
0.927151
0.930553
0.930554
0.930554
0.930554
0.930553
0.93055
0.930504
0.929891
0.929684
0.929758
0.929728
0.911296
0.783808
0.850142
0.938294
0.938389
0.894987
0.871807
0.888822
0.888823
0.800153
0.800139
0.871269
0.937687
0.937581
0.934851
0.934866
0.935105
0.935173
0.935184
0.935185
0.935184
0.901362
0.882286
0.893958
0.893958
0.890789
0.883108
0.895662
0.90274
0.902837
0.90323
0.902854
0.902857
0.902858
0.902858
0.902858
0.902858
0.902853
0.881126
0.857008
0.857008
0.857031
0.895958
0.900064
0.900221
0.900277
0.900235
0.900235
0.843523
0.842146
0.842146
0.844606
0.904995
0.905253
0.90527
0.905271
0.90527
0.892375
0.871457
0.892736
0.923199
0.918683
0.912089
0.912306
0.913285
0.948179
0.964177
0.964171
0.964165
0.944848
0.920931
0.920711
0.926459
0.926459
0.926459
0.926459
0.926459
0.926458
0.926454
0.926432
0.92628
0.921744
0.853052
0.799892
0.869998
0.90126
0.901346
0.901245
0.899946
0.893252
0.88333
0.874981
0.880739
0.920781
0.920779
0.920796
0.920758
0.920596
0.920016
0.917694
0.914885
0.914927
0.914727
0.90979
0.910317
0.923845
0.93812
0.943218
0.943308
0.943359
0.943367
0.943367
0.943367
0.943367
0.943357
0.943308
0.943098
0.886843
0.882643
0.888251
0.930895
0.930746
0.871782
0.707701
0.707137
0.785871
0.903385
0.903397
0.90338
0.897757
0.870534
0.877512
0.893491
0.8935
0.893486
0.89263
0.871197
0.741649
0.688399
0.694295
0.875985
0.884341
0.837587
0.759716
0.831664
0.960977
0.960979
0.960981
0.960982
0.960982
0.960985
0.961047
0.96106
0.961064
0.961066
0.961066
0.961066
0.961066
0.961056
0.96092
0.96071
0.958202
0.957974
0.960811
0.961494
0.96153
0.961532
0.961532
0.961532
0.961532
0.961532
0.961532
0.961532
0.961531
0.961519
0.959842
0.837286
0.750334
0.741064
0.777166
0.833183
0.845299
0.843019
0.826854
0.853711
0.900214
0.94884
0.94884
0.930552
0.930554
0.930554
0.930554
0.930553
0.930551
0.843465
0.732556
0.77274
0.891122
0.929684
0.929732
0.840157
0.783818
0.827268
0.938303
0.938538
0.938601
0.909205
0.86341
0.862197
0.800169
0.905525
0.93803
0.937908
0.909659
0.866863
0.856717
0.848226
0.879982
0.9341
0.935184
0.935184
0.914598
0.87987
0.893487
0.893958
0.854915
0.774849
0.77255
0.77127
0.888502
0.902842
0.902929
0.902854
0.902857
0.902858
0.902858
0.901111
0.895576
0.897962
0.898626
0.898848
0.898977
0.898887
0.853603
0.698475
0.841099
0.900235
0.899984
0.89965
0.899162
0.89934
0.901939
0.902246
0.85694
0.894504
0.90527
0.905271
0.905187
0.905036
0.904899
0.848057
0.846772
0.893515
0.964176
0.964184
0.964181
0.964178
0.964177
0.96356
0.946843
0.920329
0.919453
0.926459
0.926459
0.926459
0.89908
0.898209
0.923126
0.926432
0.852002
0.517421
0.503588
0.495721
0.495355
0.680245
0.784633
0.798385
0.672818
0.409356
0.252322
0.221817
0.404957
0.762717
0.907381
0.919554
0.915176
0.913565
0.840409
0.597655
0.458761
0.61428
0.887573
0.73633
0.571368
0.571145
0.571368
0.623418
0.882564
0.924656
0.925636
0.940342
0.943367
0.943367
0.933303
0.897114
0.88006
0.89619
0.912163
0.921964
0.910795
0.93091
0.930899
0.930748
0.873824
0.709459
0.849514
0.90339
0.90338
0.903107
0.709215
0.593917
0.612753
0.87728
0.893486
0.87753
0.736167
0.736083
0.736083
0.845553
0.885608
0.885657
0.885608
0.850189
0.881388
0.880473
0.762642
0.838365
0.960451
0.960774
0.936256
0.915982
0.924371
0.957819
0.96106
0.961068
0.961066
0.961067
0.961056
0.947518
0.947305
0.95869
0.961216
0.961288
0.961334
0.961356
0.960996
0.95748
0.961541
0.961532
0.961532
0.961532
0.961532
0.757363
0.473788
0.432881
0.422761
0.461104
0.598138
0.375789
0.354578
0.354587
0.358197
0.35274
0.353784
0.537786
0.545131
0.622897
0.930522
0.930553
0.930553
0.930554
0.930552
0.916111
0.683109
0.438547
0.426863
0.426841
0.489171
0.891418
0.929335
0.920181
0.78638
0.794125
0.933894
0.938602
0.938742
0.903852
0.862262
0.861218
0.860405
0.938404
0.938156
0.93803
0.922237
0.901489
0.922168
0.724379
0.555149
0.731392
0.917395
0.911291
0.902701
0.826629
0.827513
0.887184
0.855469
0.774011
0.770387
0.767429
0.766874
0.796728
0.867121
0.877277
0.895913
0.90284
0.902854
0.902747
0.719346
0.69777
0.78624
0.882438
0.898887
0.897553
0.593526
0.587619
0.800706
0.893244
0.864001
0.86701
0.899977
0.900278
0.900961
0.880191
0.76937
0.775033
0.899888
0.905187
0.905067
0.905031
0.886116
0.848374
0.871339
0.964185
0.964185
0.964185
0.964184
0.96418
0.963198
0.93049
0.946001
0.945619
0.942155
0.823401
0.658858
0.673776
0.899748
0.923673
0.923621
0.925051
0.923326
0.919829
0.904409
0.532349
0.129855
0.0985765
0.114175
0.111732
0.0863367
0.0778469
0.0778403
0.0779515
0.0784983
0.0999182
0.28107
0.373342
0.367949
0.334363
0.3022
0.238278
0.275325
0.67511
0.846176
0.775462
0.571279
0.571368
0.595904
0.616835
0.525406
0.520387
0.518573
0.522459
0.641155
0.728602
0.636806
0.325555
0.262438
0.411713
0.833593
0.930807
0.93091
0.93091
0.93091
0.930899
0.930749
0.892648
0.704272
0.898024
0.902809
0.902292
0.687574
0.59332
0.59332
0.59332
0.79307
0.883785
0.883785
0.88344
0.856045
0.796091
0.885138
0.786988
0.655164
0.881599
0.881994
0.881599
0.724016
0.61172
0.610942
0.610923
0.610942
0.610942
0.629377
0.844225
0.912054
0.921997
0.952984
0.960992
0.960645
0.959297
0.857236
0.728687
0.821778
0.954263
0.961293
0.961334
0.934986
0.931208
0.934389
0.961531
0.96153
0.882931
0.439402
0.389672
0.389672
0.389672
0.398421
0.753387
0.827264
0.830323
0.769033
0.432502
0.35158
0.35158
0.655937
0.891204
0.835259
0.448148
0.443106
0.763951
0.802089
0.826623
0.930459
0.929805
0.614718
0.427394
0.426747
0.427066
0.442704
0.76557
0.849182
0.874224
0.857774
0.731833
0.89329
0.938747
0.938924
0.939033
0.863521
0.871098
0.938569
0.938564
0.925931
0.93597
0.935975
0.935938
0.935923
0.928654
0.55433
0.536309
0.654426
0.692301
0.699332
0.739372
0.890205
0.890528
0.89053
0.865032
0.868271
0.868184
0.760842
0.757486
0.758185
0.758959
0.770395
0.901804
0.902746
0.87334
0.632081
0.4047
0.396634
0.456324
0.470343
0.475725
0.487457
0.671139
0.67455
0.431353
0.394646
0.669696
0.897638
0.885506
0.596511
0.460386
0.715033
0.90233
0.904727
0.90504
0.905031
0.905025
0.850953
0.848985
0.960991
0.964021
0.964185
0.964184
0.80153
0.50229
0.724035
0.943442
0.945531
0.943555
0.897548
0.401523
0.129141
0.167597
0.488535
0.634609
0.620794
0.663216
0.812201
0.82844
0.529451
0.205472
0.104143
0.094093
0.0936683
0.0918543
0.0853203
0.0803992
0.0844987
0.0848574
0.0850983
0.0924175
0.100857
0.107747
0.102861
0.0954244
0.0917918
0.0900814
0.0841229
0.234967
0.4987
0.575156
0.662405
0.819024
0.839169
0.840745
0.843428
0.7178
0.508146
0.315065
0.261963
0.260694
0.260969
0.261503
0.261737
0.262438
0.291434
0.750171
0.930908
0.93091
0.930908
0.930868
0.930374
0.770819
0.694012
0.789535
0.902116
0.902219
0.901994
0.850843
0.606615
0.595892
0.598465
0.646293
0.883785
0.882921
0.780132
0.809294
0.880535
0.671992
0.56727
0.692962
0.694378
0.454042
0.416187
0.713703
0.821769
0.651504
0.610942
0.611566
0.613106
0.615391
0.618228
0.621798
0.753166
0.87344
0.925764
0.956074
0.771011
0.616171
0.616171
0.862199
0.961276
0.961291
0.961274
0.958341
0.960468
0.961456
0.85783
0.475758
0.444942
0.464379
0.436833
0.528014
0.81608
0.821417
0.830323
0.83412
0.837193
0.833219
0.688085
0.704277
0.891204
0.891204
0.891204
0.679969
0.442923
0.715449
0.715449
0.716071
0.874753
0.907604
0.53796
0.432799
0.427394
0.618875
0.678622
0.68179
0.340695
0.266514
0.487105
0.736824
0.938018
0.93893
0.939047
0.939112
0.86623
0.867362
0.938742
0.938829
0.925931
0.935132
0.935938
0.935923
0.874555
0.733111
0.512283
0.512297
0.537311
0.763976
0.89028
0.890519
0.890528
0.890531
0.890528
0.867012
0.868256
0.867874
0.763095
0.798608
0.842322
0.830464
0.78575
0.684289
0.664597
0.352211
0.1613
0.183758
0.389709
0.539016
0.570492
0.65185
0.72233
0.715742
0.398948
0.394619
0.395107
0.598838
0.642838
0.477814
0.460236
0.459674
0.556074
0.898677
0.904784
0.904978
0.905003
0.839425
0.850694
0.959581
0.962565
0.963858
0.906793
0.503722
0.229733
0.210417
0.216012
0.531811
0.799214
0.836127
0.61868
0.194534
0.126095
0.125801
0.163012
0.510445
0.60431
0.319548
0.138401
0.0989866
0.0948466
0.0948444
0.0952048
0.0949894
0.094092
0.13097
0.294813
0.472514
0.52914
0.512626
0.444452
0.405061
0.401222
0.416214
0.41861
0.421586
0.352939
0.214308
0.0803546
0.0285824
0.028461
0.028458
0.031187
0.352431
0.697575
0.827327
0.844485
0.844512
0.844716
0.844512
0.636531
0.260774
0.260671
0.265979
0.410354
0.371375
0.272887
0.341473
0.872894
0.930908
0.930905
0.930873
0.930463
0.813703
0.694579
0.694012
0.705053
0.885673
0.900927
0.900158
0.900047
0.837936
0.626119
0.626511
0.626063
0.756679
0.547138
0.301089
0.470298
0.61683
0.573524
0.417721
0.414358
0.414358
0.414358
0.442548
0.875512
0.945776
0.857476
0.841404
0.837846
0.796056
0.794418
0.765157
0.711836
0.711836
0.711836
0.890509
0.845739
0.616171
0.618968
0.809059
0.961274
0.961274
0.961271
0.96125
0.961051
0.916557
0.642545
0.483609
0.688035
0.835636
0.832449
0.826078
0.803237
0.702946
0.644587
0.795916
0.845048
0.85277
0.85518
0.891198
0.891204
0.891204
0.891204
0.891204
0.460995
0.75829
0.771666
0.869895
0.873039
0.748116
0.459914
0.448443
0.668861
0.675889
0.674933
0.573951
0.156988
0.125266
0.144941
0.61107
0.938153
0.939032
0.939269
0.939145
0.916415
0.867903
0.932591
0.939066
0.938838
0.921518
0.873525
0.933856
0.681912
0.512277
0.512167
0.63189
0.873221
0.875023
0.877855
0.87944
0.890519
0.890528
0.816985
0.688776
0.685266
0.76633
0.864285
0.864285
0.83651
0.621078
0.263583
0.139155
0.139155
0.309038
0.687791
0.930687
0.969834
0.96988
0.9691
0.871913
0.724992
0.604962
0.388076
0.395643
0.401442
0.421387
0.488887
0.478542
0.459539
0.459789
0.459631
0.547402
0.802694
0.878398
0.836743
0.833272
0.92901
0.957182
0.893301
0.718709
0.530055
0.213283
0.210417
0.210417
0.210417
0.213169
0.214586
0.196565
0.145348
0.126094
0.125801
0.124957
0.120387
0.11298
0.106759
0.10489
0.104647
0.101739
0.102681
0.14986
0.207816
0.269111
0.410031
0.605266
0.668998
0.669016
0.668998
0.668814
0.66837
0.667741
0.666919
0.665553
0.663158
0.660053
0.657505
0.656561
0.533517
0.213705
0.0284581
0.0284548
0.0284548
0.0284561
0.0285378
0.266539
0.801685
0.844716
0.844725
0.844716
0.835619
0.403692
0.260969
0.380764
0.735726
0.64799
0.273974
0.272934
0.295759
0.704651
0.930873
0.925952
0.853425
0.833933
0.831782
0.755858
0.693309
0.693096
0.70278
0.899741
0.89312
0.891896
0.890973
0.870412
0.604343
0.406787
0.258948
0.247795
0.248073
0.330356
0.55976
0.557622
0.430104
0.414358
0.699183
0.943061
0.954899
0.954899
0.954899
0.954892
0.954813
0.954344
0.953368
0.955179
0.880262
0.7496
0.71522
0.722388
0.851444
0.78314
0.625415
0.706493
0.961222
0.961271
0.96125
0.94988
0.66804
0.460152
0.502786
0.830319
0.837226
0.836385
0.835586
0.831426
0.446206
0.150374
0.150866
0.297123
0.581549
0.648058
0.581935
0.739151
0.891203
0.891204
0.891204
0.891204
0.458702
0.873572
0.873572
0.871109
0.643902
0.604866
0.649105
0.67926
0.678379
0.677611
0.604446
0.174657
0.124269
0.12459
0.12503
0.251128
0.8679
0.939263
0.939143
0.939289
0.939453
0.888666
0.925267
0.939174
0.939127
0.77127
0.411806
0.665917
0.738425
0.512229
0.513078
0.875157
0.876058
0.723886
0.468927
0.43927
0.817384
0.889364
0.889152
0.881681
0.642184
0.531131
0.697945
0.837082
0.372598
0.147425
0.147004
0.313608
0.892427
0.970135
0.97013
0.970126
0.970005
0.969834
0.659175
0.362476
0.362546
0.362341
0.382211
0.581971
0.845776
0.946975
0.943987
0.938231
0.881477
0.628767
0.462946
0.557473
0.772257
0.775826
0.793581
0.902658
0.926834
0.835712
0.606749
0.577348
0.563269
0.715055
0.613783
0.394481
0.330841
0.29629
0.163639
0.129312
0.126716
0.126497
0.126092
0.1258
0.144855
0.469653
0.567233
0.294971
0.169207
0.274438
0.559639
0.661024
0.64975
0.653754
0.659616
0.66573
0.669025
0.668998
0.668814
0.66837
0.666575
0.660482
0.641381
0.601328
0.572313
0.588622
0.638657
0.651167
0.60791
0.385171
0.033425
0.0284548
0.0284548
0.0284548
0.0284561
0.0285378
0.230665
0.838142
0.844716
0.844725
0.844461
0.632718
0.264242
0.342665
0.73596
0.73671
0.428762
0.273261
0.273634
0.430075
0.616197
0.447276
0.447087
0.455678
0.779231
0.808696
0.808704
0.808696
0.808696
0.737921
0.538876
0.847742
0.891563
0.891563
0.891563
0.579378
0.26152
0.248073
0.247795
0.248073
0.262434
0.47752
0.756653
0.900387
0.95476
0.954888
0.954888
0.954899
0.954892
0.949883
0.916039
0.906192
0.953101
0.957085
0.957597
0.958169
0.896094
0.767117
0.752728
0.834545
0.782705
0.635437
0.762864
0.961166
0.959316
0.674316
0.453246
0.453048
0.58743
0.837226
0.837425
0.837226
0.836385
0.503948
0.150106
0.150069
0.150227
0.150866
0.33101
0.411258
0.39455
0.511097
0.809215
0.891203
0.891202
0.891205
0.433584
0.873572
0.832681
0.509181
0.513558
0.680235
0.680235
0.680235
0.646113
0.356334
0.121894
0.122611
0.123988
0.124269
0.12459
0.12503
0.700295
0.938924
0.939241
0.93953
0.939558
0.939387
0.939423
0.93932
0.939174
0.667521
0.340557
0.403627
0.7372
0.719695
0.713372
0.876058
0.655008
0.119574
0.119616
0.120252
0.349285
0.761462
0.827104
0.750742
0.491586
0.485516
0.515237
0.647417
0.253513
0.147004
0.331484
0.947476
0.970148
0.970153
0.970131
0.970006
0.969758
0.954153
0.605278
0.363683
0.36234
0.364596
0.82766
0.95342
0.958756
0.962402
0.963167
0.96377
0.964315
0.949451
0.857378
0.883201
0.921647
0.90065
0.926791
0.923451
0.872856
0.619982
0.612304
0.602288
0.794405
0.794848
0.793032
0.777729
0.758284
0.73723
0.654238
0.62413
0.621374
0.543772
0.465211
0.543849
0.717192
0.738405
0.739112
0.739996
0.739996
0.739996
0.739065
0.735991
0.528126
0.386031
0.392172
0.514073
0.607207
0.590141
0.439095
0.304338
0.241895
0.205411
0.158798
0.112172
0.101995
0.108244
0.157522
0.175939
0.100587
0.0375055
0.0284551
0.0284548
0.0284548
0.0287036
0.0329495
0.0294584
0.0430222
0.528713
0.844716
0.844617
0.844394
0.759609
0.32002
0.389737
0.73671
0.738384
0.598329
0.273634
0.346843
0.643356
0.687539
0.556742
0.490985
0.603224
0.632367
0.7143
0.75302
0.753194
0.543643
0.448129
0.446793
0.555799
0.829745
0.891563
0.824021
0.431403
0.357506
0.423637
0.319222
0.249581
0.249407
0.250108
0.294988
0.417102
0.562465
0.695488
0.74368
0.777889
0.925791
0.866811
0.55802
0.360594
0.589717
0.895677
0.958169
0.958283
0.958348
0.95836
0.797219
0.786646
0.861063
0.761519
0.624694
0.783367
0.949909
0.750296
0.452898
0.452069
0.454397
0.716171
0.837333
0.837425
0.837173
0.519783
0.150915
0.150227
0.150866
0.151824
0.390422
0.336312
0.322028
0.395474
0.773095
0.891167
0.891191
0.8912
0.382226
0.545298
0.306183
0.490454
0.67031
0.678269
0.671549
0.454434
0.12042
0.120433
0.121145
0.121894
0.168349
0.391051
0.571626
0.148112
0.426629
0.938873
0.939308
0.939476
0.939298
0.939337
0.939359
0.939305
0.939203
0.709465
0.338123
0.333651
0.680722
0.871732
0.871586
0.86966
0.361194
0.11959
0.119556
0.119616
0.120252
0.124752
0.230136
0.514632
0.632678
0.485516
0.652171
0.878904
0.33242
0.154686
0.491687
0.970159
0.970159
0.970147
0.96473
0.925251
0.91285
0.94889
0.951377
0.725184
0.571464
0.795352
0.9141
0.907006
0.822455
0.818029
0.901132
0.962001
0.964435
0.964426
0.963862
0.963489
0.962796
0.959658
0.954195
0.91358
0.627667
0.623824
0.619982
0.771316
0.797774
0.796405
0.794892
0.792997
0.677645
0.517258
0.733545
0.738589
0.742617
0.73993
0.733033
0.72822
0.731081
0.736657
0.450343
0.279531
0.284164
0.291135
0.569605
0.741004
0.471307
0.249936
0.230971
0.21821
0.171412
0.138079
0.115619
0.105298
0.100568
0.099459
0.099459
0.099459
0.0993041
0.0871894
0.0725391
0.0479894
0.0315491
0.0286171
0.0284584
0.0284551
0.0284602
0.0656701
0.0796578
0.0435743
0.0380419
0.290292
0.844617
0.844394
0.84432
0.844258
0.799984
0.746513
0.671203
0.738332
0.73837
0.614904
0.41764
0.480823
0.696944
0.756055
0.756266
0.755836
0.754181
0.751893
0.700526
0.517728
0.460806
0.458199
0.44645
0.44645
0.44645
0.723261
0.763683
0.395013
0.390277
0.530609
0.585163
0.546549
0.479428
0.548766
0.593957
0.596923
0.52223
0.521393
0.520983
0.521209
0.633233
0.597147
0.332784
0.265917
0.265951
0.328433
0.882684
0.958348
0.95836
0.958361
0.95836
0.803897
0.801353
0.912297
0.745045
0.614796
0.79264
0.886804
0.721125
0.452488
0.452069
0.452963
0.523292
0.837173
0.769204
0.768848
0.54053
0.312139
0.151824
0.17341
0.648724
0.66411
0.320302
0.337859
0.803725
0.890855
0.890892
0.891156
0.377483
0.396189
0.296201
0.630827
0.663232
0.501929
0.161392
0.119737
0.120172
0.120328
0.137764
0.183096
0.545424
0.727998
0.727534
0.507905
0.438232
0.77002
0.938476
0.939304
0.93932
0.939341
0.939349
0.939232
0.939274
0.650753
0.333651
0.3336
0.386418
0.761048
0.871757
0.859111
0.398646
0.119556
0.119616
0.327117
0.567588
0.746334
0.847989
0.847982
0.847793
0.721459
0.646375
0.954143
0.672954
0.329395
0.645522
0.970159
0.970159
0.970136
0.962726
0.757147
0.72865
0.86831
0.95391
0.953766
0.953869
0.953737
0.829365
0.729458
0.728782
0.75532
0.94996
0.964432
0.96445
0.96452
0.964432
0.964105
0.963359
0.962629
0.93789
0.656234
0.631121
0.627667
0.719502
0.7989
0.798425
0.797692
0.796386
0.506923
0.336678
0.337335
0.396904
0.703573
0.741188
0.742617
0.73993
0.510294
0.317598
0.285161
0.267683
0.272354
0.286099
0.5883
0.741984
0.742682
0.735499
0.555174
0.602311
0.675319
0.692695
0.692257
0.582749
0.426551
0.273974
0.157757
0.118406
0.107602
0.191566
0.413441
0.499599
0.437613
0.294814
0.11857
0.0286171
0.0284989
0.0418021
0.0796578
0.0797601
0.0675115
0.0363349
0.115855
0.690281
0.844336
0.844265
0.844182
0.843671
0.62166
0.421282
0.618381
0.737881
0.738483
0.737579
0.434339
0.297061
0.356197
0.403038
0.488449
0.566605
0.502724
0.484688
0.635731
0.659344
0.659342
0.646229
0.509204
0.455294
0.514654
0.57828
0.621516
0.417984
0.411865
0.411779
0.485188
0.795014
0.798826
0.800854
0.802602
0.803739
0.833973
0.773018
0.547254
0.724885
0.843962
0.809922
0.373621
0.265915
0.267623
0.408512
0.924274
0.958361
0.958361
0.958361
0.93306
0.806446
0.831143
0.873218
0.70007
0.595978
0.777506
0.878337
0.766309
0.588491
0.523246
0.775866
0.688158
0.406835
0.406835
0.523421
0.670451
0.295513
0.172694
0.517166
0.67388
0.320207
0.306389
0.488364
0.772306
0.853164
0.625164
0.498742
0.193853
0.327105
0.284816
0.186262
0.119617
0.119618
0.119677
0.119737
0.120172
0.242778
0.244714
0.141249
0.28749
0.693075
0.906712
0.460587
0.468988
0.865819
0.939325
0.939341
0.939343
0.939351
0.939426
0.673871
0.334481
0.3336
0.333636
0.357822
0.664908
0.726195
0.851638
0.569168
0.120096
0.544322
0.8481
0.848185
0.848156
0.848143
0.847988
0.775077
0.573194
0.702666
0.966176
0.967477
0.943216
0.952146
0.970159
0.970137
0.970068
0.969748
0.830323
0.725462
0.723074
0.895853
0.953923
0.953737
0.86467
0.729166
0.728508
0.783318
0.964565
0.964532
0.964416
0.964287
0.964524
0.964521
0.964432
0.964102
0.962429
0.814021
0.637593
0.634576
0.679716
0.7989
0.799227
0.799067
0.798425
0.794825
0.529728
0.336848
0.336662
0.337335
0.348514
0.547157
0.552546
0.330402
0.22596
0.235676
0.248378
0.253428
0.298905
0.634003
0.741852
0.742682
0.741614
0.739613
0.738207
0.737357
0.738705
0.740156
0.740851
0.741039
0.740851
0.740851
0.710341
0.648078
0.607906
0.542458
0.541224
0.541823
0.535476
0.525978
0.500961
0.195803
0.0561568
0.0419763
0.0780998
0.0797525
0.0784919
0.0359937
0.0352473
0.286825
0.801177
0.844174
0.843558
0.537953
0.421282
0.421282
0.421282
0.423324
0.449558
0.714229
0.407492
0.291364
0.291364
0.290253
0.285683
0.279311
0.27511
0.273824
0.273866
0.467188
0.49545
0.520098
0.613526
0.613526
0.525416
0.523347
0.689347
0.54417
0.410288
0.410288
0.410288
0.498203
0.506737
0.455504
0.571182
0.831631
0.843274
0.843829
0.843925
0.843962
0.843971
0.843972
0.843971
0.54141
0.268618
0.292024
0.778379
0.958302
0.958361
0.886389
0.904515
0.885379
0.827837
0.87403
0.875598
0.593344
0.574841
0.69587
0.872478
0.883083
0.890061
0.900249
0.863272
0.456683
0.406781
0.498861
0.837502
0.551734
0.173531
0.303029
0.67535
0.602426
0.302486
0.29278
0.315067
0.381625
0.306005
0.369826
0.138527
0.262294
0.119713
0.119618
0.119618
0.119615
0.119618
0.119908
0.206972
0.203706
0.134825
0.134039
0.13404
0.595385
0.910579
0.596339
0.493772
0.8593
0.939331
0.939343
0.939343
0.939343
0.844866
0.650904
0.439497
0.333636
0.3336
0.372487
0.76061
0.678889
0.843244
0.68578
0.157112
0.678354
0.848185
0.848195
0.848185
0.848126
0.830381
0.573194
0.573194
0.574946
0.880765
0.969081
0.969212
0.969664
0.970137
0.970069
0.969749
0.964947
0.954271
0.793557
0.723074
0.722872
0.952391
0.950552
0.772126
0.728508
0.75618
0.964557
0.964571
0.964543
0.964208
0.964271
0.96454
0.964527
0.964436
0.963804
0.95088
0.679012
0.642362
0.641596
0.798697
0.799227
0.799227
0.799227
0.799067
0.798579
0.793509
0.714759
0.514733
0.510923
0.56439
0.553007
0.367461
0.198124
0.209286
0.27744
0.285896
0.26304
0.425509
0.711299
0.735161
0.710295
0.692022
0.700745
0.702208
0.683567
0.677853
0.696389
0.72399
0.740851
0.740851
0.739849
0.739713
0.740042
0.739713
0.733682
0.541242
0.415997
0.456256
0.467692
0.4895
0.478267
0.388307
0.173
0.0734813
0.0627175
0.0778515
0.0619148
0.035041
0.0351234
0.0760709
0.53474
0.819241
0.770683
0.479858
0.421282
0.473406
0.68215
0.688917
0.659876
0.673219
0.6718
0.617776
0.642415
0.744718
0.758358
0.630433
0.455256
0.289286
0.238163
0.237081
0.237104
0.270258
0.439957
0.371799
0.525514
0.83488
0.770056
0.487278
0.420906
0.494085
0.49623
0.452653
0.452653
0.452653
0.453207
0.455195
0.498293
0.798273
0.843868
0.843962
0.843971
0.843973
0.843123
0.347422
0.295954
0.655705
0.958019
0.958302
0.609408
0.502499
0.782956
0.852416
0.875598
0.875598
0.857002
0.572893
0.572893
0.590497
0.659823
0.858185
0.901094
0.901094
0.759709
0.724419
0.915977
0.947227
0.930648
0.337041
0.213121
0.676887
0.68177
0.49204
0.291316
0.288638
0.288638
0.360924
0.203992
0.137698
0.119857
0.119659
0.119634
0.119616
0.119618
0.119688
0.267421
0.515849
0.212768
0.134039
0.134039
0.134039
0.495337
0.913715
0.91676
0.85543
0.921774
0.939339
0.939343
0.939343
0.939343
0.839047
0.815185
0.813539
0.657269
0.333636
0.397387
0.760936
0.679158
0.752623
0.720116
0.382557
0.411556
0.836114
0.848192
0.848195
0.848169
0.848483
0.834063
0.593961
0.578057
0.581325
0.655435
0.929556
0.928652
0.895699
0.92624
0.867638
0.842387
0.952578
0.949153
0.740942
0.72267
0.815318
0.945189
0.790805
0.729606
0.817664
0.964571
0.964577
0.964577
0.964576
0.964573
0.964561
0.964529
0.964355
0.963525
0.959193
0.750582
0.644115
0.775856
0.798923
0.799066
0.799227
0.799081
0.774983
0.470633
0.417279
0.547264
0.566725
0.566738
0.566725
0.544764
0.23201
0.176809
0.480911
0.482378
0.482378
0.482378
0.371978
0.228489
0.186088
0.144896
0.115965
0.124406
0.125609
0.0977065
0.0902175
0.112774
0.171977
0.286457
0.473682
0.616089
0.710234
0.739713
0.739958
0.736387
0.514042
0.410522
0.274019
0.251014
0.239235
0.289966
0.414407
0.412943
0.187656
0.0480962
0.0452338
0.0436924
0.0350441
0.0350396
0.0351234
0.0395084
0.0614654
0.0885285
0.403723
0.8448
0.87003
0.871297
0.87204
0.872273
0.875012
0.875009
0.875009
0.874978
0.874846
0.874608
0.874349
0.874139
0.817917
0.574313
0.366311
0.246592
0.253184
0.260409
0.264515
0.326143
0.846076
0.899665
0.900528
0.639998
0.483752
0.465061
0.455294
0.725931
0.909893
0.769678
0.463261
0.463081
0.467586
0.467589
0.722419
0.843491
0.843942
0.843165
0.568498
0.303235
0.587488
0.9559
0.958017
0.651727
0.287847
0.356516
0.769542
0.772173
0.847064
0.935883
0.887423
0.580191
0.533551
0.52755
0.522048
0.534631
0.665036
0.916471
0.946569
0.947227
0.947227
0.947227
0.6852
0.192579
0.651758
0.68177
0.68177
0.571951
0.288638
0.293461
0.797316
0.20378
0.130309
0.120934
0.119794
0.119659
0.119634
0.119688
0.122429
0.469582
0.591051
0.561897
0.179795
0.134039
0.134124
0.247681
0.911222
0.937324
0.938277
0.939293
0.93934
0.939339
0.854466
0.693279
0.65846
0.796111
0.811645
0.810892
0.473803
0.397077
0.746385
0.714404
0.690944
0.723694
0.824381
0.42443
0.490485
0.674132
0.539596
0.690302
0.850187
0.850584
0.851713
0.8397
0.620935
0.568477
0.560597
0.560558
0.560597
0.616966
0.615752
0.774698
0.948991
0.946065
0.890873
0.722778
0.731062
0.938143
0.856783
0.733098
0.771428
0.964527
0.964576
0.964577
0.964576
0.964572
0.964544
0.964412
0.963942
0.961073
0.871275
0.70702
0.78066
0.798842
0.798941
0.798923
0.798636
0.796241
0.491055
0.0900973
0.08201
0.162349
0.252072
0.223993
0.219245
0.111731
0.0433346
0.0512193
0.0872664
0.0868426
0.0777052
0.0664862
0.0636427
0.0586695
0.0466232
0.0358776
0.0321034
0.0314849
0.0314061
0.0314061
0.0313877
0.0314061
0.031443
0.0314647
0.0314789
0.069348
0.200105
0.4049
0.608837
0.705595
0.709116
0.712845
0.628586
0.405461
0.223813
0.216042
0.22339
0.410346
0.411503
0.253394
0.0451811
0.0418711
0.0351621
0.0351657
0.0374331
0.0610712
0.0871999
0.0897753
0.0963376
0.105809
0.107732
0.351801
0.751275
0.8709
0.875009
0.875016
0.874978
0.874846
0.870115
0.871366
0.874139
0.873949
0.86897
0.861991
0.857396
0.767141
0.603188
0.565878
0.579219
0.718284
0.900342
0.900571
0.900629
0.900635
0.575396
0.476653
0.467819
0.777576
0.926136
0.928053
0.910612
0.672298
0.686082
0.778294
0.620926
0.591677
0.809481
0.843181
0.534341
0.318132
0.484786
0.931034
0.957398
0.929801
0.290328
0.238746
0.347423
0.632258
0.773996
0.941546
0.943996
0.923454
0.807016
0.521134
0.520335
0.520157
0.519801
0.520058
0.670413
0.938916
0.947227
0.929597
0.46113
0.163395
0.533573
0.679227
0.66895
0.65017
0.340358
0.491662
0.797316
0.203743
0.284745
0.373542
0.140131
0.119794
0.119887
0.119937
0.123572
0.46839
0.593403
0.595493
0.510963
0.134143
0.134759
0.135306
0.552439
0.938049
0.938976
0.939203
0.939293
0.753327
0.281971
0.147188
0.147878
0.544779
0.810892
0.810546
0.453646
0.399027
0.759845
0.873672
0.690977
0.773586
0.878346
0.811563
0.535038
0.284456
0.273834
0.273613
0.426525
0.804003
0.854241
0.855566
0.856251
0.857504
0.697975
0.560597
0.560536
0.562241
0.590777
0.758722
0.625362
0.845165
0.889802
0.742973
0.73405
0.832271
0.947752
0.735491
0.735491
0.882454
0.901933
0.751137
0.806085
0.960106
0.964414
0.96402
0.824716
0.462913
0.26432
0.560239
0.798665
0.798915
0.798915
0.798931
0.798635
0.795799
0.540703
0.0759563
0.0748144
0.0664277
0.0504399
0.0366675
0.0304518
0.0278721
0.0277619
0.0277523
0.0277534
0.0285631
0.0299409
0.10915
0.184762
0.269631
0.326119
0.280726
0.0948579
0.0321667
0.031485
0.0313818
0.0314061
0.0314359
0.031458
0.031472
0.0314737
0.102897
0.148748
0.158828
0.175828
0.301056
0.574874
0.718894
0.723543
0.72382
0.635365
0.305576
0.206243
0.206243
0.324674
0.397749
0.397438
0.135188
0.0351148
0.0409825
0.133351
0.433803
0.693395
0.714875
0.725216
0.682491
0.28449
0.2281
0.228613
0.650643
0.874616
0.874922
0.799989
0.547237
0.399968
0.412263
0.493868
0.557022
0.559903
0.608432
0.746373
0.870244
0.891631
0.897357
0.899731
0.900679
0.900571
0.900629
0.900643
0.900635
0.673792
0.492022
0.592116
0.899997
0.928185
0.928792
0.928911
0.928972
0.928981
0.928977
0.814215
0.590852
0.624935
0.788465
0.450004
0.332041
0.385034
0.89146
0.956339
0.955691
0.450618
0.235651
0.235458
0.334407
0.688319
0.943996
0.945148
0.94648
0.947027
0.878254
0.83775
0.658347
0.520128
0.519801
0.520128
0.84854
0.947946
0.839838
0.309615
0.15107
0.385206
0.252951
0.172496
0.316309
0.766387
0.815029
0.796649
0.20368
0.531722
0.655311
0.17422
0.1211
0.176142
0.120158
0.120955
0.222623
0.57187
0.595485
0.595491
0.22401
0.135306
0.136844
0.143007
0.567496
0.821101
0.879374
0.740226
0.226358
0.139737
0.139069
0.140405
0.444198
0.805834
0.640095
0.450562
0.505381
0.864956
0.878373
0.814064
0.878405
0.878368
0.878346
0.658535
0.273897
0.273601
0.27355
0.273812
0.273786
0.578551
0.799633
0.857504
0.857585
0.857695
0.785801
0.596118
0.678079
0.678294
0.495042
0.0945657
0.330786
0.861411
0.848544
0.736281
0.805242
0.968317
0.874803
0.779928
0.721239
0.402888
0.135568
0.175045
0.533449
0.67531
0.476745
0.194387
0.11183
0.111821
0.202845
0.622468
0.737747
0.765952
0.797426
0.795764
0.733113
0.308265
0.0647873
0.10573
0.265692
0.266144
0.267124
0.0750343
0.0277619
0.0277523
0.0277523
0.0277523
0.0347167
0.334714
0.61038
0.706088
0.706147
0.705944
0.705802
0.577712
0.115582
0.0318065
0.0314739
0.0314359
0.0314586
0.0314672
0.0314693
0.156118
0.643554
0.776709
0.620958
0.311257
0.241271
0.241271
0.317059
0.623248
0.726373
0.728354
0.726648
0.525427
0.210179
0.207819
0.318569
0.238626
0.0403159
0.03713
0.0390063
0.315036
0.725252
0.727628
0.727892
0.727892
0.72787
0.727525
0.648969
0.578409
0.809859
0.86595
0.796606
0.339931
0.178588
0.177781
0.177781
0.177024
0.177407
0.177282
0.177261
0.177098
0.278031
0.535397
0.753364
0.885073
0.899723
0.900342
0.900571
0.900629
0.900635
0.853362
0.618429
0.775661
0.929383
0.928565
0.92892
0.928972
0.92898
0.928981
0.928983
0.928977
0.840113
0.358922
0.235614
0.333429
0.338902
0.491553
0.927532
0.955691
0.955714
0.51586
0.235458
0.235313
0.235305
0.486523
0.807455
0.94648
0.947026
0.947632
0.94887
0.949604
0.949755
0.883337
0.543137
0.583006
0.915395
0.949845
0.86479
0.357113
0.130132
0.160049
0.0977106
0.077327
0.0773219
0.54165
0.815522
0.767202
0.20368
0.385108
0.656039
0.172202
0.422433
0.728207
0.155763
0.121632
0.121647
0.395846
0.595485
0.495229
0.298246
0.342362
0.277967
0.142484
0.14382
0.238096
0.276815
0.179468
0.139479
0.139027
0.138995
0.170148
0.554604
0.72649
0.561607
0.536453
0.842282
0.878373
0.878392
0.878405
0.878419
0.878405
0.814729
0.44344
0.273742
0.27355
0.273801
0.273799
0.273798
0.273798
0.275846
0.681373
0.857695
0.857748
0.857763
0.768545
0.550677
0.543155
0.24532
0.0667352
0.0945125
0.674954
0.846102