/*--------------------------------*- C++ -*----------------------------------*\
| =========                 |                                                 |
| \\      /  F ield         | OpenFOAM: The Open Source CFD Toolbox           |
|  \\    /   O peration     | Version:  2412                                  |
|   \\  /    A nd           | Website:  www.openfoam.com                      |
|    \\/     M anipulation  |                                                 |
\*---------------------------------------------------------------------------*/
FoamFile
{
    version     2.0;
    format      ascii;
    arch        "LSB;label=32;scalar=64";
    class       surfaceScalarField;
    location    "4";
    object      alphaPhi0.water;
}
// * * * * * * * * * * * * * * * * * * * * * * * * * * * * * * * * * * * * * //

dimensions      [0 3 -1 0 0 0 0];

oriented        oriented;

internalField   nonuniform List<scalar> 
79600
(
-1.93003e-09
1.9237e-09
-5.48802e-09
3.558e-09
-1.06662e-08
5.17817e-09
-1.81051e-08
7.43893e-09
-2.80267e-08
9.9215e-09
-3.82719e-08
1.02452e-08
-4.39247e-08
5.65261e-09
-4.09997e-08
-2.92707e-09
-2.90015e-08
-1.20242e-08
-8.33286e-09
-2.06264e-08
1.4302e-08
-2.26035e-08
3.03163e-08
-1.59799e-08
3.23603e-08
-3.1105e-09
2.28681e-08
6.1072e-09
1.72975e-08
8.20174e-09
1.148e-08
5.78124e-09
9.44434e-09
2.01088e-09
8.86723e-09
1.70356e-10
8.15588e-09
4.81219e-10
7.13462e-09
1.09183e-09
4.53487e-09
2.67593e-09
-9.4061e-10
5.0392e-09
-5.22358e-09
3.8547e-09
-6.67729e-09
1.16906e-09
-4.05706e-09
-2.68607e-09
6.82472e-10
-4.79641e-09
5.95005e-09
-5.34047e-09
1.09516e-08
-4.99673e-09
1.32395e-08
-2.28696e-09
1.45033e-08
-1.26113e-09
1.78258e-08
-3.32164e-09
2.15678e-08
-3.74087e-09
2.38275e-08
-2.25869e-09
2.25139e-08
-1.12537e-09
2.47516e-08
-9.80563e-10
2.61596e-08
-1.39648e-09
2.80473e-08
-1.87606e-09
2.94593e-08
-1.75955e-09
3.12372e-08
-1.45626e-09
3.3309e-08
-1.49393e-09
3.55334e-08
-2.23744e-09
3.89524e-08
-3.42e-09
4.30582e-08
-4.32931e-09
4.76382e-08
-4.5782e-09
5.21704e-08
-4.53167e-09
5.63298e-08
-4.1594e-09
6.00377e-08
-3.70789e-09
6.31316e-08
-3.09377e-09
6.52663e-08
-2.13454e-09
6.63391e-08
-1.07394e-09
6.37669e-08
-5.96371e-10
6.44614e-08
-9.24082e-10
6.57767e-08
-1.54489e-09
6.89026e-08
-2.08196e-09
7.32115e-08
-2.02565e-09
7.42488e-08
-9.94884e-10
7.50615e-08
-7.56647e-10
7.65854e-08
-1.47118e-09
7.8084e-08
-1.44805e-09
7.44508e-08
-5.39048e-10
7.29318e-08
8.10922e-10
7.01758e-08
2.67519e-09
6.5037e-08
5.07754e-09
6.10142e-08
7.87024e-09
5.08621e-08
1.01678e-08
3.89924e-08
1.18708e-08
2.72325e-08
1.17601e-08
1.62377e-08
1.0995e-08
6.69287e-09
9.54513e-09
-4.01181e-10
7.08115e-09
-4.42011e-09
3.91351e-09
-5.25075e-09
6.64444e-10
-2.56691e-09
-2.44247e-09
2.99599e-09
-5.19174e-09
1.0863e-08
-7.54025e-09
1.90335e-08
-7.84186e-09
2.46195e-08
-5.26925e-09
2.4316e-08
6.10715e-10
1.84344e-08
5.89237e-09
7.89479e-09
1.0549e-08
-5.49534e-09
1.33987e-08
-1.82754e-08
1.30981e-08
-3.04667e-08
1.20951e-08
-4.12367e-08
1.09104e-08
-5.09398e-08
9.70311e-09
-5.95793e-08
8.63949e-09
-6.72354e-08
7.65609e-09
-7.39019e-08
6.66648e-09
-7.9733e-08
5.83038e-09
-8.492e-08
5.18678e-09
-8.9607e-08
4.68774e-09
-9.39804e-08
4.37718e-09
-9.83807e-08
4.42425e-09
-1.02285e-07
5.39396e-09
-9.88339e-08
5.52698e-09
-1.03365e-07
4.32087e-09
-1.20134e-07
4.40867e-09
-1.23227e-07
3.17248e-09
-1.23203e-07
4.29847e-11
-1.20894e-07
-2.22595e-09
-1.17754e-07
-2.70576e-09
-1.14386e-07
-1.73856e-09
-1.11099e-07
-1.17479e-09
-1.08274e-07
-1.64671e-09
-1.08398e-07
-3.73949e-09
-1.05396e-07
-5.92039e-09
-9.7956e-08
-7.29757e-09
-9.00241e-08
-7.78866e-09
-8.23552e-08
-7.51814e-09
-7.59094e-08
-6.27233e-09
-7.18594e-08
-3.80996e-09
-6.95194e-08
-1.87932e-09
-6.72237e-08
-1.9093e-09
-6.35978e-08
-3.27137e-09
-6.02544e-08
-2.9261e-09
-5.85098e-08
-1.00514e-09
-5.75804e-08
-7.47266e-10
-5.73878e-08
-8.83444e-10
-5.63199e-08
-1.5307e-09
-5.32527e-08
-3.06104e-09
-4.96406e-08
-3.60947e-09
-4.66786e-08
-2.96084e-09
-4.45802e-08
-2.09698e-09
-4.31258e-08
-1.45292e-09
-4.20701e-08
-1.05434e-09
-4.12849e-08
-7.83666e-10
-4.04362e-08
-8.46454e-10
-3.90021e-08
-1.43169e-09
-3.75134e-08
-1.48329e-09
-3.55143e-08
4.03349e-10
-3.85466e-08
2.76578e-09
-4.36419e-08
3.4528e-09
-4.43707e-08
7.31683e-10
-4.21031e-08
-2.24361e-09
-3.0378e-08
-2.62195e-09
-3.09897e-08
7.51227e-11
-3.43942e-08
2.90186e-09
-4.52319e-08
2.8168e-09
-4.40625e-08
-1.16006e-09
-3.9445e-08
-4.60952e-09
-3.32828e-08
-6.15224e-09
-2.84202e-08
-3.92548e-09
-2.90252e-08
9.27596e-10
-3.33209e-08
2.85756e-09
-3.39977e-08
6.83217e-10
-2.9927e-08
-4.0662e-09
-2.35476e-08
-6.37263e-09
-1.90506e-08
-4.34058e-09
-1.61605e-08
-2.20965e-09
-1.13896e-08
-5.24711e-10
-1.06498e-08
-1.07636e-09
-9.04863e-09
-2.35683e-09
-1.0559e-08
-3.54641e-10
-1.41833e-08
3.61807e-09
-1.84227e-08
6.99118e-09
-2.8374e-08
7.46317e-09
-4.24061e-08
9.01731e-09
-5.1438e-08
9.02953e-09
-5.89769e-08
7.53668e-09
-6.35286e-08
4.54976e-09
-6.5752e-08
2.22233e-09
-6.66659e-08
9.13606e-10
-6.67027e-08
3.54937e-11
-6.56049e-08
-1.0987e-09
-6.24401e-08
-3.16241e-09
-5.72492e-08
-5.18859e-09
-5.06247e-08
-6.62228e-09
-4.2725e-08
-7.89752e-09
-3.3374e-08
-9.34875e-09
-2.24227e-08
-1.09491e-08
-1.06708e-08
-1.17496e-08
-2.79992e-10
-1.03858e-08
7.18234e-09
-7.45854e-09
1.16186e-08
-4.598e-09
1.45242e-08
-2.97559e-09
1.64714e-08
-1.81343e-09
1.69094e-08
-5.11894e-10
1.60532e-08
8.15927e-10
1.42725e-08
1.77961e-09
1.19324e-08
2.34011e-09
9.17855e-09
2.75387e-09
6.18733e-09
2.99121e-09
2.70139e-09
3.48593e-09
-3.37828e-09
6.07967e-09
-1.30771e-08
9.69879e-09
-2.59244e-08
1.28473e-08
-3.63918e-08
1.04683e-08
-3.96954e-08
3.7709e-09
-3.39985e-08
-1.92131e-09
-2.4477e-08
-5.84633e-09
-1.67812e-08
-5.15988e-09
-1.40963e-08
-2.66444e-09
-1.47177e-08
-1.19158e-10
-1.62374e-08
1.56863e-09
-1.68992e-08
8.29152e-10
-1.43858e-08
-1.61663e-09
-8.15267e-09
-5.44837e-09
-2.21934e-09
-5.29478e-09
-1.50037e-09
-6.88001e-10
-1.4694e-09
-5.36923e-09
7.29286e-09
-1.20288e-08
1.02176e-08
-1.8341e-08
1.14904e-08
-2.36786e-08
1.27765e-08
-2.77483e-08
1.39912e-08
-2.91818e-08
1.16785e-08
-2.42227e-08
2.66572e-09
-1.74304e-08
-4.45436e-09
-7.28584e-09
-1.30715e-08
1.03514e-08
-3.02541e-08
2.9974e-08
-4.21838e-08
4.55512e-08
-3.15232e-08
4.90348e-08
-1.1078e-08
4.3762e-08
7.99903e-09
4.12867e-08
1.61146e-08
2.91601e-08
1.78986e-08
1.98569e-08
1.12836e-08
1.40026e-08
5.97039e-09
7.90877e-09
5.30014e-09
3.07069e-09
6.04546e-09
-2.57568e-09
8.61285e-09
-8.33913e-09
1.03566e-08
-1.08066e-08
6.57585e-09
-9.14604e-09
-5.49214e-10
-4.49503e-09
-7.39883e-09
2.17959e-09
-1.1485e-08
8.76302e-09
-1.1926e-08
1.63095e-08
-1.13498e-08
1.84088e-08
-3.57904e-09
1.7117e-08
9.95219e-10
1.71331e-08
-3.09492e-09
1.9272e-08
-5.87881e-09
2.26992e-08
-5.68485e-09
2.41876e-08
-5.96603e-09
2.96984e-08
-5.4726e-09
3.33844e-08
-4.97872e-09
3.72043e-08
-5.68438e-09
3.38459e-08
-4.80307e-09
3.74368e-08
-3.5751e-09
4.09672e-08
-3.51883e-09
4.62386e-08
-3.90799e-09
5.1589e-08
-5.79014e-09
5.42186e-08
-6.95357e-09
5.79881e-08
-8.39059e-09
6.20103e-08
-8.56315e-09
6.60753e-08
-8.22608e-09
7.02306e-08
-7.86317e-09
7.43965e-08
-7.25962e-09
7.71628e-08
-5.8147e-09
7.97873e-08
-3.64087e-09
8.23499e-08
-2.98163e-09
8.53531e-08
-3.87917e-09
8.90451e-08
-5.22567e-09
9.30012e-08
-6.04811e-09
9.67697e-08
-5.62419e-09
8.35796e-08
-3.21855e-09
8.78299e-08
-1.75322e-09
1.02578e-07
-3.34413e-09
1.04081e-07
-2.9008e-09
1.05091e-07
-1.41873e-09
1.06059e-07
4.55261e-11
1.064e-07
2.6524e-09
1.05126e-07
6.66397e-09
1.00297e-07
1.1883e-08
9.34445e-08
1.7114e-08
8.20408e-08
1.65516e-08
7.32627e-08
2.14749e-08
6.10256e-08
2.32325e-08
4.82477e-08
2.23233e-08
3.60095e-08
1.93211e-08
2.6034e-08
1.38919e-08
1.94255e-08
7.05299e-09
1.56134e-08
4.56603e-10
1.63569e-08
-6.15435e-09
2.07032e-08
-1.03671e-08
1.67424e-08
-3.87217e-09
4.1027e-09
7.37778e-09
-1.53859e-08
2.01086e-08
-3.83044e-08
2.88221e-08
-6.08344e-08
3.30898e-08
-8.00069e-08
3.28755e-08
-9.42643e-08
2.81395e-08
-1.04773e-07
2.28683e-08
-1.11003e-07
1.80801e-08
-1.19288e-07
1.79882e-08
-1.29001e-07
1.83527e-08
-1.37866e-07
1.65207e-08
-1.46266e-07
1.43942e-08
-1.55967e-07
1.22964e-08
-1.65809e-07
1.11815e-08
-1.7004e-07
8.92201e-09
-1.41868e-07
6.85454e-09
-9.93773e-08
4.41476e-09
-9.62599e-08
3.08091e-09
-9.52757e-08
2.04036e-09
-1.00364e-07
6.85944e-10
-1.30754e-07
7.4097e-10
-1.37976e-07
-8.09452e-10
-1.366e-07
-2.34197e-09
-1.02414e-07
-2.66019e-09
-5.83537e-08
-6.78569e-10
-3.83676e-08
-6.57891e-10
-3.18081e-08
-7.33131e-10
-7.20201e-08
-1.32042e-09
-1.10903e-07
-3.71031e-09
-1.14088e-07
-9.40151e-09
-1.07627e-07
-1.29167e-08
-1.00774e-07
-1.28516e-08
-9.50294e-08
-1.11657e-08
-7.65295e-08
-8.58183e-09
-5.10509e-08
-4.7769e-09
-3.85594e-08
-2.88958e-09
-6.22171e-08
-4.48482e-09
-7.61953e-08
-7.87592e-09
-4.62401e-08
-6.5971e-09
-4.4087e-08
-3.3551e-09
-4.14214e-08
-3.5632e-09
-3.79463e-08
-4.55532e-09
-4.43596e-08
-5.25391e-09
-4.9812e-08
-5.85534e-09
-4.71773e-08
-5.54149e-09
-4.49155e-08
-4.72059e-09
-4.38848e-08
-3.17912e-09
-4.37587e-08
-1.57766e-09
-4.40922e-08
-7.19284e-10
-4.33315e-08
-3.43894e-10
-4.21712e-08
-2.84111e-10
-4.16918e-08
-8.88296e-10
-4.18466e-08
-1.65868e-09
-4.00508e-08
5.32068e-10
-4.40529e-08
4.65984e-09
-4.79627e-08
5.99394e-09
-4.94382e-08
2.20837e-09
-4.89684e-08
-2.71119e-09
-4.77047e-08
-3.87009e-09
-4.06432e-08
3.21871e-10
-3.86015e-08
5.67127e-09
-5.24887e-08
5.24449e-09
-5.33664e-08
-2.73604e-10
-5.13859e-08
-6.5801e-09
-4.79694e-08
-9.52746e-09
-3.03703e-08
-5.70612e-09
-3.02104e-08
4.95394e-11
-3.55304e-08
2.62584e-09
-4.2761e-08
1.16673e-10
-4.08064e-08
-6.01394e-09
-3.04804e-08
-1.20841e-08
-2.57158e-08
-1.02484e-08
-2.26024e-08
-6.50646e-09
-2.19948e-08
-2.3157e-09
-2.45132e-08
-1.53196e-09
-2.62822e-08
-5.49741e-10
-3.43291e-08
7.74513e-09
-4.57147e-08
1.50417e-08
-5.81355e-08
1.66421e-08
-6.58684e-08
1.62417e-08
-6.84195e-08
1.27416e-08
-6.37051e-08
7.37325e-09
-7.89903e-08
6.68427e-09
-8.04283e-08
3.45776e-09
-7.88195e-08
6.81082e-10
-7.49824e-08
-3.45492e-10
-7.29511e-08
-1.03232e-09
-7.31126e-08
-2.7375e-09
-7.07486e-08
-6.80808e-09
-6.6282e-08
-9.65279e-09
-6.09201e-08
-1.19848e-08
-5.42971e-08
-1.45183e-08
-4.59e-08
-1.77436e-08
-3.5063e-08
-2.17837e-08
-2.24712e-08
-2.4114e-08
-1.12056e-08
-2.20331e-08
-4.044e-09
-1.44657e-08
6.39801e-10
-9.28714e-09
4.77727e-09
-7.11823e-09
8.76801e-09
-5.83689e-09
1.15828e-08
-3.35413e-09
1.26444e-08
-2.24615e-10
1.14633e-08
2.95198e-09
8.29917e-09
5.49816e-09
3.16069e-09
7.89234e-09
-5.23205e-09
1.13839e-08
-1.79679e-08
1.62218e-08
-3.12869e-08
1.93986e-08
-3.33809e-08
1.71214e-08
-3.20537e-08
1.12987e-08
-2.81278e-08
6.18806e-09
-2.24143e-08
2.18753e-10
-1.75861e-08
-8.07145e-09
-2.19145e-08
-1.83085e-08
-1.03658e-08
-1.68265e-08
-4.4666e-09
-8.69456e-09
-4.31548e-09
-3.98604e-10
-5.411e-09
1.83826e-09
-5.55576e-09
8.53368e-10
-4.16911e-09
-3.1924e-09
-9.68928e-10
-1.53584e-08
3.58291e-09
-1.0144e-08
3.62725e-09
-2.86286e-10
2.81636e-09
-2.88643e-09
1.01793e-08
-6.78128e-09
1.41124e-08
-8.88573e-09
1.35948e-08
-6.91499e-09
1.08056e-08
-2.7025e-09
9.50289e-09
8.48307e-10
4.61328e-09
4.04065e-09
-1.18185e-09
8.26763e-09
-8.91267e-09
1.5099e-08
-2.01265e-08
3.58977e-08
-2.975e-08
5.68546e-08
-5.15499e-08
6.24392e-08
-3.70295e-08
6.37199e-08
-1.33201e-08
5.72474e-08
9.55376e-09
5.21183e-08
2.11745e-08
4.01272e-08
3.10402e-08
2.72256e-08
2.4131e-08
1.72067e-08
1.59313e-08
8.31278e-09
1.2913e-08
1.06186e-09
1.3882e-08
-5.30967e-09
1.58032e-08
-8.88428e-09
1.48823e-08
-9.34838e-09
6.99161e-09
-8.12044e-09
-1.82644e-09
-5.15933e-09
-1.04177e-08
1.26902e-09
-1.83154e-08
9.82266e-09
-2.30246e-08
1.56745e-08
-1.9776e-08
1.53414e-08
-6.94929e-09
1.10381e-08
2.07041e-09
1.33919e-08
4.71027e-10
1.46163e-08
-6.42376e-09
1.90707e-08
-1.03233e-08
2.46993e-08
-1.17176e-08
2.97015e-08
-1.03458e-08
3.45562e-08
-9.71924e-09
3.47358e-08
-8.55937e-09
3.31016e-08
-6.73788e-09
3.44335e-08
-3.59903e-09
3.55806e-08
-3.17632e-09
3.71847e-08
-4.01095e-09
3.83314e-08
-5.47771e-09
4.15358e-08
-6.7624e-09
4.50306e-08
-9.65709e-09
4.78544e-08
-1.12632e-08
5.12613e-08
-1.15663e-08
5.52743e-08
-1.18786e-08
5.91765e-08
-1.11619e-08
5.55377e-08
-9.35295e-09
4.79732e-08
-5.46755e-09
5.53499e-08
-4.34732e-09
6.73959e-08
-4.89595e-09
7.31234e-08
-6.87435e-09
7.45592e-08
-7.48221e-09
7.04427e-08
-6.08227e-09
5.77211e-08
-5.42967e-09
5.84128e-08
-4.91377e-09
9.37367e-08
-6.94111e-09
9.34438e-08
-3.48128e-09
9.24406e-08
-1.42876e-09
9.76324e-08
-1.91759e-09
1.00025e-07
3.79764e-10
1.00943e-07
5.84103e-09
9.89234e-08
1.35674e-08
8.46373e-08
1.7602e-08
8.04861e-08
1.83292e-08
8.09991e-08
2.68173e-08
7.49702e-08
3.09851e-08
6.51535e-08
3.21417e-08
5.38045e-08
3.06731e-08
4.19601e-08
2.57411e-08
3.00264e-08
1.69907e-08
2.19604e-08
7.92847e-09
1.70111e-08
5.01562e-10
1.96314e-09
4.68635e-09
-2.19765e-08
2.00729e-08
-4.8587e-08
3.39947e-08
-7.27714e-08
4.43003e-08
-9.47935e-08
5.08532e-08
-1.09847e-07
4.63918e-08
-1.24502e-07
4.06335e-08
-1.30057e-07
3.4265e-08
-1.33728e-07
2.67454e-08
-1.38471e-07
2.26001e-08
-1.12017e-07
1.56022e-08
-1.078e-07
1.04907e-08
-1.40758e-07
8.46782e-09
-1.68822e-07
1.7947e-08
-1.74225e-07
1.79901e-08
-1.76833e-07
1.40967e-08
-1.77404e-07
9.65708e-09
-1.76235e-07
6.16924e-09
-1.73664e-07
3.18814e-09
-1.6689e-07
1.40914e-09
-6.95991e-08
4.28913e-10
-2.59378e-08
-5.65643e-11
-1.93896e-08
-3.84517e-10
-1.84925e-08
-1.01e-09
-1.52226e-08
-1.46111e-09
-1.14523e-08
-2.06846e-09
-1.08699e-08
-1.5595e-09
-1.02956e-08
-1.52676e-09
-1.00697e-08
-1.32027e-09
-1.07751e-08
-1.08909e-09
-1.80984e-08
-2.85111e-09
-3.23365e-08
-4.08311e-09
-3.39247e-08
-4.8395e-09
-3.18458e-08
-4.63927e-09
-2.84755e-08
-3.98645e-09
-2.07719e-08
-2.67178e-09
-1.32349e-08
-1.10882e-09
-2.64017e-08
-8.63972e-10
-5.44708e-08
-2.99949e-09
-6.45657e-08
-7.11523e-09
-4.76182e-08
-8.34226e-09
-4.3421e-08
-7.7182e-09
-3.87992e-08
-8.38188e-09
-3.76218e-08
-9.99293e-09
-3.45605e-08
-1.16371e-08
-2.68714e-08
-1.15734e-08
-2.10649e-08
-9.38466e-09
-1.70614e-08
-6.67906e-09
-1.70919e-08
-3.44466e-09
-2.29351e-08
-2.22784e-10
-2.86631e-08
1.54338e-09
-2.12881e-08
1.22712e-09
-1.31535e-08
5.189e-10
-1.32033e-08
-7.55404e-10
-2.56001e-08
-8.0059e-10
-4.18304e-08
1.38523e-09
-4.364e-08
6.46219e-09
-4.46248e-08
6.97993e-09
-4.62602e-08
3.845e-09
-4.75918e-08
-1.37838e-09
-4.73272e-08
-4.13247e-09
-4.61088e-08
-8.80876e-10
-4.28059e-08
6.3622e-09
-4.25136e-08
7.65824e-09
-5.26201e-08
3.93952e-09
-5.56447e-08
-3.49573e-09
-5.62151e-08
-8.84816e-09
-3.65339e-08
-9.26637e-09
-3.20514e-08
-5.21091e-09
-2.93488e-08
-8.54819e-10
-2.88937e-08
-1.11636e-09
-3.85082e-08
-4.64974e-09
-4.00825e-08
-1.00405e-08
-3.57497e-08
-1.44025e-08
-3.13384e-08
-1.07277e-08
-2.79765e-08
-3.28861e-09
-3.47342e-08
1.49131e-09
-4.15028e-08
6.07566e-09
-4.22703e-08
1.29669e-08
-6.34139e-08
1.56747e-08
-7.03116e-08
2.46238e-08
-7.16314e-08
1.83279e-08
-6.8811e-08
1.09978e-08
-5.20496e-08
5.14012e-09
-4.82079e-08
2.64886e-09
-4.58333e-08
8.51458e-10
-4.48857e-08
-5.3267e-10
-4.41126e-08
-1.35867e-09
-4.26365e-08
-2.74856e-09
-4.44218e-08
-4.1946e-09
-5.38754e-08
-6.85978e-09
-5.4059e-08
-9.14141e-09
-5.31534e-08
-1.14905e-08
-5.05927e-08
-1.69144e-08
-4.625e-08
-2.2083e-08
-4.04365e-08
-2.75883e-08
-3.19212e-08
-3.25764e-08
-1.99672e-08
-2.56119e-08
-1.4619e-08
-1.22597e-08
-1.62025e-08
-8.38951e-09
-1.50016e-08
-9.39601e-09
-1.05818e-08
-1.0265e-08
-6.59123e-09
-7.37757e-09
-3.91439e-09
-2.69961e-09
-3.76575e-09
2.70841e-09
-7.66863e-09
9.16652e-09
-1.70343e-08
1.72579e-08
-3.08258e-08
2.51754e-08
-3.2997e-08
2.24333e-08
-2.74851e-08
1.57354e-08
-2.70789e-08
1.45052e-08
-2.74802e-08
9.49006e-09
-2.83156e-08
4.81345e-09
-3.08312e-08
-3.68023e-09
-4.08572e-08
-1.97115e-08
-2.94726e-08
-3.01678e-08
-1.50867e-08
-3.16328e-08
-3.22279e-09
-2.22072e-08
1.98681e-11
-3.67884e-09
-9.69007e-10
2.78117e-09
-3.04163e-09
2.88002e-09
-3.84783e-09
-7.99747e-09
1.27698e-10
-1.9334e-08
4.622e-09
-2.09578e-08
4.66829e-09
-1.25201e-09
5.78292e-09
2.03831e-09
6.42403e-09
3.55899e-09
1.05995e-08
6.20065e-09
9.16601e-09
1.31321e-08
3.86872e-09
2.28549e-08
-2.38478e-10
1.63177e-08
-1.85679e-09
2.096e-08
-6.05814e-09
2.65836e-08
-1.47683e-08
3.67557e-08
-3.0493e-08
5.46154e-08
-4.41475e-08
8.18154e-08
-5.85839e-08
7.64761e-08
-2.78453e-08
6.92726e-08
-4.8634e-09
5.83356e-08
1.4245e-08
5.46741e-08
2.80834e-08
4.48357e-08
4.28337e-08
3.14779e-08
3.74407e-08
2.00136e-08
2.73346e-08
1.06604e-08
2.22057e-08
2.7092e-09
2.21879e-08
-3.35623e-09
2.16902e-08
-5.85702e-09
1.73384e-08
-7.32465e-09
8.4101e-09
-9.39851e-09
1.51951e-10
-9.84892e-09
-1.0292e-08
-5.53511e-09
-2.25884e-08
2.80909e-09
-3.13057e-08
9.00488e-09
-2.59074e-08
8.94595e-09
-9.09677e-09
4.05189e-09
3.57483e-09
7.56479e-09
2.27117e-10
1.38958e-08
-8.51616e-09
2.15752e-08
-1.45903e-08
2.94065e-08
-1.69102e-08
3.19162e-08
-1.35289e-08
3.21838e-08
-1.00997e-08
3.06291e-08
-7.00284e-09
2.79876e-08
-4.0945e-09
2.35503e-08
-9.67796e-10
2.03641e-08
3.44604e-11
1.72542e-08
-9.1489e-10
1.43296e-08
-3.20929e-09
1.69601e-08
-1.0086e-08
2.26067e-08
-1.60211e-08
2.95006e-08
-1.89035e-08
3.36275e-08
-1.58462e-08
3.61212e-08
-1.41668e-08
3.55878e-08
-1.06277e-08
2.95781e-08
-5.64173e-09
1.50138e-08
-8.79462e-10
1.47423e-08
-1.3816e-09
2.04918e-08
-3.73599e-09
2.72077e-08
-5.8e-09
3.05922e-08
-5.69537e-09
3.88334e-08
-9.50335e-09
4.92633e-08
-1.0432e-08
5.12189e-08
-8.68273e-09
4.703e-08
-7.11376e-09
3.93113e-08
-3.65182e-09
4.05174e-08
-2.77342e-09
8.45568e-08
-5.09479e-09
8.7433e-08
-2.14866e-09
7.53193e-08
3.87469e-09
5.10594e-08
9.99678e-09
5.4476e-08
1.37455e-08
8.10597e-08
2.01852e-08
7.54182e-08
3.28629e-08
6.96414e-08
3.67997e-08
6.16348e-08
4.01528e-08
5.12631e-08
4.10496e-08
3.88272e-08
3.81836e-08
2.54777e-08
2.98699e-08
1.39054e-08
1.97489e-08
-5.69046e-09
2.12117e-08
-3.72189e-08
3.62108e-08
-6.54467e-08
4.83062e-08
-7.98466e-08
4.83968e-08
-6.49829e-08
2.83607e-08
-6.87015e-08
2.29711e-08
-1.21502e-07
2.16897e-08
-1.34084e-07
4.47307e-08
-1.35918e-07
3.64063e-08
-1.36069e-07
2.6676e-08
-1.18041e-07
2.02113e-08
-4.25301e-08
5.17844e-09
-2.87622e-08
5.54933e-09
-4.32915e-08
5.09089e-09
-8.70035e-08
3.55047e-09
-9.70349e-08
6.65329e-09
-9.91776e-08
5.11304e-09
-1.25319e-07
2.59679e-09
-1.36916e-07
2.0332e-09
-1.28244e-07
1.87632e-10
-7.25633e-08
-2.186e-10
-3.48687e-08
-4.11399e-10
-1.56797e-08
-4.47015e-10
-1.37816e-08
-9.32375e-10
-1.36856e-08
-1.20983e-09
-1.23418e-08
-2.29552e-09
-1.09029e-08
-3.17934e-09
-1.02986e-08
-3.23696e-09
-9.578e-09
-4.87767e-09
-8.71558e-09
-4.45269e-09
-8.28726e-09
-2.76658e-09
-8.13703e-09
-4.6001e-09
-8.18367e-09
-5.8613e-09
-8.10474e-09
-7.10753e-09
-7.19698e-09
-7.20076e-09
-5.85003e-09
-6.61405e-09
-4.44137e-09
-5.20826e-09
-3.57669e-09
-2.94634e-09
-5.19401e-09
-2.00173e-10
-1.51385e-08
-4.91552e-11
-2.4215e-08
-1.55447e-10
-3.07487e-08
-4.14187e-10
-4.11984e-08
-1.70511e-09
-4.763e-08
-8.08597e-09
-4.70525e-08
-1.08263e-08
-4.3722e-08
-1.51506e-08
-3.74584e-08
-1.7876e-08
-3.06702e-08
-1.86404e-08
-1.70828e-08
-1.58611e-08
-7.76315e-09
-8.39701e-09
-7.13621e-09
-9.94226e-10
-8.39355e-09
2.70014e-09
-1.04049e-08
3.10762e-09
-1.11505e-08
1.21683e-09
-1.01683e-08
-1.6655e-09
-9.92553e-09
-9.60235e-10
-1.86561e-08
1.67957e-09
-4.43337e-08
5.04538e-09
-4.60511e-08
8.69887e-09
-4.73227e-08
5.11781e-09
-4.86335e-08
-6.59797e-11
-4.8719e-08
-4.04219e-09
-4.63998e-08
-3.16211e-09
-3.39466e-08
2.68315e-09
-3.40001e-08
7.30507e-09
-4.39584e-08
6.66576e-09
-4.96064e-08
2.26533e-09
-5.44978e-08
-3.83991e-09
-5.51696e-08
-8.46719e-09
-4.37157e-08
-9.39014e-09
-3.06943e-08
-7.5561e-09
-2.51067e-08
-7.44147e-09
-2.43037e-08
-6.14981e-09
-3.22051e-08
-8.16596e-09
-3.44918e-08
-1.19372e-08
-3.20879e-08
-1.28878e-08
-3.19852e-08
-1.46654e-09
-4.21125e-08
5.38969e-09
-4.67792e-08
1.11888e-08
-4.35764e-08
1.22044e-08
-4.64069e-08
1.58016e-08
-5.24768e-08
1.65251e-08
-4.47498e-08
1.26842e-08
-3.19817e-08
6.89205e-09
-3.25605e-08
4.21643e-09
-4.43985e-08
3.39961e-09
-5.30252e-08
1.77084e-10
-4.26256e-08
-1.45846e-09
-4.12968e-08
-2.92758e-09
-3.92216e-08
-5.07544e-09
-3.65037e-08
-7.11743e-09
-3.39496e-08
-9.5703e-09
-3.04326e-08
-1.28508e-08
-2.96378e-08
-1.26419e-08
-3.15412e-08
-1.66682e-08
-3.53996e-08
-1.77819e-08
-3.88737e-08
-2.36206e-08
-3.64654e-08
-3.47056e-08
-2.22365e-08
-2.79897e-08
-2.14429e-08
-1.35786e-08
-2.27584e-08
-7.5993e-09
-3.12996e-08
-1.03226e-08
-2.68697e-08
-1.46941e-08
-2.21246e-08
-1.2131e-08
-1.92237e-08
-5.59957e-09
-2.08059e-08
4.30415e-09
-2.89799e-08
1.73569e-08
-4.17544e-08
3.00344e-08
-4.16436e-08
2.85367e-08
-3.46265e-08
2.15973e-08
-3.53046e-08
1.87843e-08
-3.1586e-08
2.16025e-08
-2.57422e-08
1.67209e-08
-4.89486e-08
6.91032e-09
-5.33756e-08
-7.25053e-09
-4.78562e-08
-2.46971e-08
-3.72327e-08
-4.12116e-08
-2.19707e-08
-4.76569e-08
-7.42911e-09
-3.78476e-08
1.08412e-09
-1.22654e-08
1.22284e-09
7.35419e-09
-1.47767e-09
7.81327e-09
-3.18892e-09
-6.28625e-09
-2.25664e-09
-2.02663e-08
2.68405e-09
-2.58985e-08
6.0308e-09
-8.03576e-09
1.01177e-08
4.27132e-09
1.74351e-09
9.32039e-09
5.14125e-09
1.54274e-08
2.64734e-09
2.53807e-08
-5.19369e-09
2.99401e-08
-1.08749e-08
2.74168e-08
-8.7388e-09
3.37444e-08
-1.29928e-08
4.71513e-08
-2.84091e-08
6.54073e-08
-4.5709e-08
6.85582e-08
-4.75307e-08
5.21048e-08
-4.63356e-08
2.3345e-08
-9.93953e-09
2.9479e-08
9.29246e-10
5.31219e-08
5.13452e-09
5.55817e-08
3.31667e-08
4.38068e-08
5.46215e-08
3.1963e-08
4.92196e-08
2.14106e-08
3.78492e-08
1.30133e-08
3.05384e-08
5.93166e-09
2.94768e-08
8.54069e-10
2.6981e-08
-2.27847e-09
2.04246e-08
-6.01097e-09
1.21337e-08
-1.05964e-08
4.81946e-09
-1.44463e-08
-6.30793e-09
-1.45225e-08
-2.2449e-08
-9.52588e-09
-3.62379e-08
-6.04832e-09
-2.50017e-08
-2.83183e-09
-5.75128e-09
-5.19256e-10
9.85502e-10
5.80331e-09
-6.40614e-09
1.74845e-08
-1.98276e-08
2.39056e-08
-2.24021e-08
2.46712e-08
-1.76754e-08
2.05855e-08
-9.44139e-09
1.50906e-08
-4.60296e-09
9.74667e-09
-1.65711e-09
3.94597e-09
1.70805e-09
-2.01476e-09
4.45465e-09
-7.09413e-09
5.13751e-09
-8.23623e-09
3.84306e-10
-2.83511e-09
-9.09e-09
6.05206e-09
-2.0603e-08
1.32787e-08
-2.23858e-08
1.28198e-08
-1.85387e-08
8.68701e-09
-7.00925e-09
2.421e-09
-8.41899e-10
-2.2769e-09
-1.78078e-09
-1.24191e-09
-6.53509e-10
-7.84477e-10
-6.12735e-09
2.01241e-09
-1.18842e-08
1.22853e-08
-2.60985e-08
2.21765e-08
-2.94543e-08
3.0484e-08
-2.34521e-08
3.52897e-08
-1.79567e-08
4.01995e-08
-1.49935e-08
3.07803e-08
-1.44098e-08
2.75054e-08
-6.91161e-09
2.91451e-08
-5.76683e-09
3.13017e-08
-5.66603e-09
5.6381e-08
-4.35731e-09
4.77666e-08
-3.81791e-09
4.17134e-08
2.93226e-09
4.15952e-08
9.66314e-09
3.93204e-08
1.56669e-08
6.08914e-08
2.31258e-08
6.22188e-08
3.37318e-08
5.57227e-08
4.32808e-08
4.70377e-08
4.88393e-08
3.61415e-08
5.1952e-08
2.51448e-08
4.73974e-08
1.11639e-08
4.32543e-08
-9.53707e-09
4.11007e-08
-4.25843e-08
5.41029e-08
-6.9312e-08
6.29249e-08
-7.94082e-08
4.93179e-08
-4.47622e-08
2.48817e-08
-3.15332e-08
1.94656e-08
-3.00073e-08
1.81852e-08
-3.25845e-08
1.85631e-08
-8.19372e-08
2.20623e-08
-1.06156e-07
1.74982e-08
-1.17005e-07
1.6478e-08
-6.68895e-08
8.5199e-09
-2.30256e-08
7.00658e-09
-2.24244e-08
4.8133e-09
-2.18745e-08
4.46498e-09
-3.98082e-08
3.27815e-09
-7.57933e-08
4.88316e-09
-8.04233e-08
4.94541e-09
-3.8866e-08
2.11479e-09
-1.79004e-08
4.83128e-10
-1.30969e-08
-2.35479e-10
-1.28646e-08
-6.66297e-10
-1.23072e-08
-1.40943e-09
-1.20388e-08
-1.13123e-09
-1.13945e-08
-1.39019e-09
-1.04244e-08
-2.21924e-09
-1.50461e-08
-7.54691e-09
-3.29785e-08
-1.75303e-08
-4.53112e-08
-1.91842e-08
-4.81485e-08
-2.08585e-08
-4.32487e-08
-2.08622e-08
-3.43707e-08
-2.08286e-08
-2.94903e-08
-2.11954e-08
-2.70867e-08
-2.18645e-08
-2.49163e-08
-2.24677e-08
-2.30272e-08
-2.30247e-08
-1.99704e-08
-2.34302e-08
-1.20082e-08
-2.26223e-08
-3.64443e-09
-1.69404e-08
-5.23259e-10
-4.43859e-09
-3.3245e-10
-1.2254e-10
-5.73065e-10
2.18273e-10
-1.11982e-09
1.32298e-10
-3.61718e-09
-7.35792e-12
-1.84247e-08
-2.98769e-10
-3.28782e-08
-2.04216e-09
-4.02456e-08
-9.89412e-09
-3.89979e-08
-1.90928e-08
-3.41353e-08
-2.34536e-08
-2.79843e-08
-2.19802e-08
-2.18588e-08
-1.44731e-08
-6.68843e-09
-2.86182e-09
-7.77561e-09
3.68195e-09
-1.01912e-08
5.42864e-09
-1.35573e-08
3.07643e-09
-1.64495e-08
-4.42597e-09
-1.16023e-08
-2.04394e-09
-1.25413e-08
2.6538e-09
-2.88847e-08
5.16534e-09
-4.61558e-08
7.97939e-09
-4.78552e-08
6.8188e-09
-4.88805e-08
9.61592e-10
-4.99892e-08
-2.92725e-09
-4.91403e-08
-3.95962e-09
-3.34306e-08
-1.6374e-09
-2.83599e-08
1.76457e-09
-2.54822e-08
3.38149e-09
-2.91276e-08
3.28991e-09
-3.92279e-08
1.03134e-09
-4.54145e-08
-2.16443e-09
-4.84018e-08
-6.22625e-09
-4.60696e-08
-9.70204e-09
-3.48633e-08
-1.36211e-08
-2.44136e-08
-1.56274e-08
-2.04822e-08
-1.46795e-08
-2.64724e-08
-8.64962e-09
-3.02081e-08
-6.28729e-09
-1.80298e-08
4.52424e-10
-1.75116e-08
4.773e-09
-2.89035e-08
6.55519e-09
-3.85466e-08
1.07988e-08
-3.04029e-08
1.1551e-08
-2.55946e-08
1.06565e-08
-2.40415e-08
1.00292e-08
-2.48211e-08
6.56979e-09
-2.64632e-08
4.75674e-09
-3.65741e-08
3.55753e-09
-5.56859e-08
1.75088e-09
-5.73995e-08
-5.47325e-10
-5.63314e-08
-3.23201e-09
-5.47038e-08
-7.15485e-09
-5.04507e-08
-1.16578e-08
-4.68801e-08
-1.70151e-08
-4.18284e-08
-2.29968e-08
-3.21967e-08
-2.51106e-08
-2.63607e-08
-2.4061e-08
-2.37633e-08
-2.19362e-08
-2.75632e-08
-2.13775e-08
-3.54576e-08
-2.47678e-08
-2.67515e-08
-2.76069e-08
-2.44381e-08
-1.64173e-08
-2.60178e-08
-6.4903e-09
-3.66097e-08
-9.08507e-09
-3.47545e-08
-1.65485e-08
-3.2082e-08
-1.48024e-08
-3.20373e-08
-5.64319e-09
-3.72646e-08
9.5326e-09
-4.70473e-08
2.71321e-08
-5.46533e-08
3.28834e-08
-4.56612e-08
1.67279e-08
-4.61381e-08
2.7764e-08
-5.52637e-08
2.80836e-08
-5.83855e-08
2.49327e-08
-6.0479e-08
1.97751e-08
-6.09435e-08
8.13827e-09
-5.51605e-08
-8.90727e-09
-4.36551e-08
-1.38748e-08
-3.91812e-08
-1.54533e-08
-3.04198e-08
-4.8947e-08
-1.62677e-08
-5.33302e-08
-5.74857e-09
-2.44286e-08
-2.55111e-09
2.29747e-09
-5.58422e-09
1.08413e-08
-7.61672e-09
-4.25377e-09
-4.61139e-09
-2.32716e-08
8.63574e-10
-3.13735e-08
6.29388e-09
-1.34662e-08
1.36281e-08
4.82325e-09
-2.98523e-09
1.08257e-08
-2.41598e-10
1.70295e-08
-3.07185e-09
2.34275e-08
-1.08795e-08
2.16752e-08
-1.6807e-08
2.9098e-08
-1.85543e-08
5.02294e-08
-3.69197e-08
6.98977e-08
-4.53968e-08
7.50239e-08
-4.73185e-08
6.85336e-08
-3.76202e-08
2.60746e-08
-1.74417e-08
1.10089e-08
-2.42559e-09
1.02785e-08
1.89741e-09
2.17242e-08
6.51352e-09
4.44091e-08
2.35263e-08
3.82651e-08
6.07131e-08
2.95573e-08
5.79038e-08
2.10685e-08
4.61803e-08
1.44203e-08
3.716e-08
9.35582e-09
3.50572e-08
5.34162e-09
3.1214e-08
1.65196e-09
2.41587e-08
-3.23206e-09
1.69538e-08
-8.5589e-09
1.01545e-08
-1.41882e-08
5.28694e-10
-2.15795e-08
-1.25252e-08
-2.15254e-08
-3.57429e-08
-1.05595e-08
-2.70281e-08
-8.74976e-09
-7.75462e-09
-2.58093e-09
-5.41592e-09
9.59457e-09
-2.39091e-08
1.7705e-08
-2.7244e-08
1.50325e-08
-1.90309e-08
7.45897e-09
-9.31823e-09
-2.47593e-09
4.03356e-10
-1.2022e-08
4.94496e-09
-1.92632e-08
5.58593e-09
-2.31273e-08
6.37753e-09
-2.19407e-08
5.30839e-09
-1.72323e-08
1.54584e-09
-1.72449e-08
-4.61428e-09
-9.91636e-09
-1.49109e-08
-3.92479e-09
-2.50869e-08
-6.6869e-09
-1.59106e-08
-1.06526e-08
-1.12261e-09
-5.00891e-09
5.31237e-10
-7.11486e-09
4.79605e-10
-5.8932e-09
-3.78688e-09
-1.31074e-08
-1.51251e-08
-1.58344e-08
-2.33924e-08
-4.21126e-09
-3.22403e-08
9.04346e-09
-3.93147e-08
2.06566e-08
-4.10358e-08
2.59031e-08
-2.83e-08
2.24541e-08
-1.1811e-08
1.69412e-08
-9.21718e-09
1.76163e-08
-7.69811e-09
1.48652e-08
-6.49724e-09
2.07788e-08
-1.2799e-08
2.74924e-08
-1.27079e-08
3.35984e-08
-1.33579e-08
3.57254e-08
-6.58159e-09
3.45269e-08
2.92488e-09
3.33123e-08
1.04621e-08
3.17344e-08
1.68223e-08
3.03866e-08
2.40751e-08
4.26104e-08
3.04175e-08
4.12598e-08
4.62109e-08
2.66316e-08
4.9835e-08
1.66871e-08
5.61152e-08
3.54335e-09
5.75693e-08
-1.42374e-08
6.1616e-08
-4.27779e-08
6.9915e-08
-7.20755e-08
6.27627e-08
-8.29745e-08
5.67656e-08
-4.76319e-08
3.957e-08
-2.47944e-08
2.93083e-08
-2.27752e-08
1.67238e-08
-2.29633e-08
1.51554e-08
-2.36748e-08
1.60541e-08
-2.4678e-08
1.65402e-08
-2.55026e-08
4.20017e-09
-2.24711e-08
6.02316e-09
-1.75815e-08
6.05543e-09
-1.72388e-08
6.50064e-09
-1.83033e-08
5.79813e-09
-1.86168e-08
4.86139e-09
-1.914e-08
4.73639e-09
-1.78364e-08
4.74585e-09
-1.47733e-08
3.16848e-09
-1.32374e-08
1.13035e-09
-1.30495e-08
3.52941e-10
-1.28226e-08
-3.88565e-10
-1.32341e-08
-1.93775e-09
-1.74092e-08
-5.1098e-09
-1.9986e-08
-8.3498e-09
-2.44554e-08
-1.01721e-08
-4.25397e-08
-1.29362e-08
-6.4386e-08
-1.62641e-08
-6.25096e-08
-1.91815e-08
-6.04642e-08
-2.10149e-08
-5.78476e-08
-2.31608e-08
-5.5075e-08
-2.32989e-08
-5.21227e-08
-2.34219e-08
-4.9065e-08
-2.38544e-08
-4.59319e-08
-2.45083e-08
-4.25993e-08
-2.50557e-08
-3.86066e-08
-2.58628e-08
-3.34321e-08
-2.7066e-08
-2.6307e-08
-2.80025e-08
-1.53687e-08
-2.61232e-08
-6.89974e-09
-1.61786e-08
-1.25034e-10
-3.63267e-09
-1.128e-10
2.05708e-10
-2.3618e-10
2.55628e-10
-3.61877e-10
1.18289e-10
-6.6531e-10
4.48102e-12
-2.64416e-09
-6.98114e-11
-2.05254e-08
-7.13934e-10
-3.48952e-08
-9.75011e-09
-3.38776e-08
-2.44392e-08
-2.95211e-08
-2.63101e-08
-2.59288e-08
-1.80334e-08
-2.12963e-08
-4.60707e-09
-9.03792e-09
8.92779e-09
-1.119e-08
7.44985e-09
-2.79887e-08
5.85668e-09
-2.84726e-08
-3.89033e-09
-1.19967e-08
-3.55636e-09
-1.27221e-08
2.48712e-09
-1.29418e-08
4.87337e-09
-1.67981e-08
3.70575e-09
-4.11095e-08
3.19122e-09
-4.15305e-08
1.38883e-09
-4.29042e-08
-6.56048e-11
-4.32633e-08
-8.75799e-10
-4.28677e-08
-2.40331e-09
-3.69595e-08
-4.08599e-09
-2.31933e-08
-2.72653e-09
-1.93087e-08
-9.73108e-10
-1.77302e-08
-9.06389e-10
-2.18324e-08
1.48078e-10
-3.10526e-08
3.81237e-10
-3.92243e-08
-2.15442e-09
-4.01234e-08
-1.29626e-08
-3.47078e-08
-2.03683e-08
-2.91511e-08
-2.14906e-08
-2.31474e-08
-1.29644e-08
-1.61377e-08
-3.04322e-09
-1.04007e-08
1.11413e-09
-1.09591e-08
5.12331e-09
-1.16338e-08
6.99949e-09
-1.90912e-08
9.46416e-09
-2.11815e-08
1.15866e-08
-2.45269e-08
1.2152e-08
-1.64373e-08
1.30647e-08
-2.07477e-08
9.77842e-09
-3.81997e-08
9.7887e-09
-4.55464e-08
7.49066e-09
-4.87303e-08
4.93565e-09
-5.1563e-08
2.28616e-09
-5.30766e-08
-1.71756e-09
-5.40331e-08
-6.1969e-09
-5.50205e-08
-1.0664e-08