/*--------------------------------*- C++ -*----------------------------------*\
| =========                 |                                                 |
| \\      /  F ield         | OpenFOAM: The Open Source CFD Toolbox           |
|  \\    /   O peration     | Version:  2412                                  |
|   \\  /    A nd           | Website:  www.openfoam.com                      |
|    \\/     M anipulation  |                                                 |
\*---------------------------------------------------------------------------*/
FoamFile
{
    version     2.0;
    format      ascii;
    arch        "LSB;label=32;scalar=64";
    class       volScalarField;
    location    "4";
    object      p;
}
// * * * * * * * * * * * * * * * * * * * * * * * * * * * * * * * * * * * * * //

dimensions      [1 -1 -2 0 0 0 0];

internalField   nonuniform List<scalar> 
40000
(
0
-0.0745996
-0.222449
-0.449809
-0.813748
-1.32906
-1.73447
-1.60766
-0.767808
0.690312
2.04623
2.69493
2.74773
2.58474
2.4233
2.33742
2.30281
2.27867
2.22259
2.12847
2.01605
1.8851
1.79953
1.69671
1.58968
1.44227
1.2231
0.936749
0.604088
0.334599
0.180905
0.0510391
-0.117001
-0.303223
-0.490834
-0.666387
-0.83577
-1.01597
-1.21352
-1.39751
-1.57812
-1.76667
-2.01196
-2.32773
-2.70803
-3.12781
-3.55919
-4.00228
-4.47503
-4.9869
-5.52267
-6.0925
-6.73806
-7.47985
-8.28764
-9.14451
-9.98448
-10.6785
-11.2778
-11.8011
-12.1947
-12.4273
-12.504
-12.4167
-12.1645
-11.8063
-11.3634
-10.8833
-10.4313
-10.039
-9.70552
-9.42738
-9.22439
-9.10856
-9.13356
-9.37941
-9.78664
-10.2117
-10.4966
-10.7206
-11.042
-11.5675
-12.2812
-13.1095
-13.9601
-14.7203
-15.341
-15.8589
-16.3058
-16.6703
-16.9403
-17.124
-17.1915
-17.0482
-16.7397
-16.2434
-15.5627
-14.8505
-14.1931
-13.6329
-13.0365
-12.3693
-11.6166
-10.7599
-9.82711
-8.92154
-8.12022
-7.44563
-6.91163
-6.55014
-6.32626
-6.07734
-5.72583
-5.39441
-5.17614
-4.93179
-4.60247
-4.23347
-3.83034
-3.42355
-3.1042
-2.86542
-2.67665
-2.51145
-2.3653
-2.23185
-2.07043
-1.83356
-1.52509
-1.15594
-0.708744
-0.217522
0.259843
0.681183
1.06116
1.40157
1.81954
2.36128
2.90221
3.39169
3.787
4.07995
4.49054
5.10615
5.79519
6.39153
6.87788
7.24978
7.58901
7.91894
8.24641
8.51184
8.75852
9.07421
9.43688
9.76315
10.0535
10.3356
10.6509
10.9496
11.22
11.5207
11.8832
12.3225
12.8388
13.3831
13.9358
14.4825
14.9892
15.3849
15.5751
15.5466
15.3518
15.2537
15.1999
15.1249
15.0239
14.9223
14.8475
14.8171
14.8279
14.8633
14.8919
14.9192
14.9913
15.1283
15.3027
15.476
15.6646
15.808
15.7581
15.5709
15.325
15.2159
15.2314
15.4089
15.6912
15.8555
15.7849
15.8354
-4.73197
-4.81429
-4.97602
-5.22136
-5.6696
-6.44359
-7.16726
-7.29275
-6.54801
-4.99001
-3.33923
-2.39604
-2.23442
-2.36518
-2.46695
-2.47946
-2.47183
-2.48266
-2.53421
-2.63104
-2.75278
-2.87351
-2.99748
-3.13836
-3.26187
-3.39606
-3.61059
-3.92526
-4.29136
-4.57883
-4.70945
-4.81243
-4.96344
-5.12131
-5.29541
-5.47142
-5.63259
-5.79846
-5.97367
-6.14013
-6.31011
-6.52086
-6.79266
-7.13783
-7.55613
-7.99424
-8.4186
-8.84842
-9.30917
-9.80421
-10.2821
-10.7917
-11.4305
-12.2224
-13.1066
-14.0139
-14.8191
-15.529
-16.2158
-16.8284
-17.2741
-17.5865
-17.7434
-17.6865
-17.3975
-16.924
-16.3419
-15.7358
-15.1933
-14.7377
-14.3617
-14.0669
-13.877
-13.7843
-13.8985
-14.3065
-14.7743
-15.1577
-15.4362
-15.5909
-15.8358
-16.4236
-17.2434
-18.1412
-19.0296
-19.7896
-20.3844
-20.8737
-21.3245
-21.6896
-21.9289
-22.0322
-21.9863
-21.8035
-21.5261
-21.1347
-20.6076
-19.966
-19.2391
-18.4426
-17.6786
-16.9319
-16.2035
-15.4707
-14.683
-13.8297
-13.0048
-12.2862
-11.6907
-11.2439
-10.9635
-10.7461
-10.4577
-10.1613
-9.90574
-9.63843
-9.30046
-8.93119
-8.55412
-8.20115
-7.89436
-7.66449
-7.49813
-7.35154
-7.21993
-7.10787
-6.97005
-6.73428
-6.39857
-5.96176
-5.50686
-5.06964
-4.63535
-4.17879
-3.72394
-3.26243
-2.86195
-2.46813
-1.97062
-1.46589
-1.04085
-0.677721
-0.213808
0.344842
0.935175
1.54098
2.07531
2.51601
2.88931
3.2471
3.57236
3.81466
4.04289
4.3749
4.73399
5.00018
5.19939
5.38832
5.62832
5.89851
6.19509
6.53356
6.90255
7.32874
7.83762
8.37495
8.91501
9.44857
9.94938
10.3623
10.5739
10.5203
10.3461
10.291
10.3181
10.2535
10.1313
10.0088
9.9282
9.90409
9.92969
9.98631
10.0526
10.0749
10.1347
10.2562
10.3871
10.5811
10.9084
11.1779
11.2334
11.0793
10.8183
10.6174
10.5834
10.7545
11.0304
11.182
11.0903
11.0492
-9.51031
-9.58988
-9.75909
-9.9859
-10.4375
-11.3003
-12.1688
-12.5016
-12.0312
-10.7163
-9.08831
-8.01268
-7.72496
-7.72326
-7.65076
-7.46461
-7.33152
-7.2967
-7.32683
-7.41792
-7.56213
-7.71927
-7.89372
-8.02837
-8.13081
-8.25435
-8.48456
-8.8897
-9.25615
-9.4611
-9.52584
-9.64096
-9.80514
-9.96374
-10.1255
-10.2872
-10.4475
-10.5922
-10.719
-10.8302
-10.9543
-11.1721
-11.4727
-11.8888
-12.3908
-12.8685
-13.2765
-13.6831
-14.1243
-14.5424
-14.9123
-15.3645
-16.0381
-16.9252
-17.8884
-18.7839
-19.5617
-20.3972
-21.2542
-21.9648
-22.5019
-22.9352
-23.2724
-23.3694
-23.1022
-22.4864
-21.7231
-20.9425
-20.1701
-19.449
-18.8273
-18.3565
-18.0794
-18.1073
-18.3702
-18.8853
-19.567
-20.1208
-20.5094
-20.8336
-21.304
-22.0196
-22.8501
-23.7249
-24.6067
-25.344
-25.9439
-26.4141
-26.7907
-27.0857
-27.2372
-27.1779
-26.9269
-26.613
-26.226
-25.7667
-25.2563
-24.6116
-23.8324
-22.9407
-22.0218
-21.1693
-20.4229
-19.7739
-19.1332
-18.401
-17.6137
-16.8604
-16.1856
-15.6305
-15.2814
-15.1585
-15.0772
-14.8894
-14.6058
-14.2807
-13.9063
-13.5118
-13.1281
-12.7862
-12.4944
-12.2882
-12.1514
-12.0438
-11.9488
-11.827
-11.6536
-11.4097
-11.1422
-10.8158
-10.3659
-9.90305
-9.45608
-9.00494
-8.55553
-8.07866
-7.6462
-7.28667
-6.85061
-6.34507
-5.84866
-5.32832
-4.77597
-4.25201
-3.75787
-3.24451
-2.70191
-2.16628
-1.74397
-1.39894
-1.08962
-0.847359
-0.610255
-0.341894
-0.133962
0.00591676
0.155945
0.402276
0.723619
1.05993
1.38194
1.72628
2.08822
2.46969
2.90133
3.38366
3.87479
4.36176
4.82675
5.24068
5.49994
5.4908
5.38823
5.41399
5.49978
5.46069
5.3132
5.14093
5.00567
4.94811
4.98813
5.05769
5.09562
5.16
5.23577
5.31176
5.44364
5.7217
6.07264
6.37777
6.50531
6.37278
6.1822
6.06474
6.09405
6.24699
6.41846
6.51347
6.44421
6.39113
-14.201
-14.2624
-14.4044
-14.5659
-14.9124
-15.5711
-16.3798
-16.9471
-16.8163
-15.9533
-14.9052
-14.2093
-13.9273
-13.6591
-13.2072
-12.7012
-12.3603
-12.2286
-12.2204
-12.2974
-12.4579
-12.6416
-12.8076
-12.9236
-13.0261
-13.162
-13.4494
-13.9818
-14.3289
-14.2836
-14.1916
-14.3581
-14.5824
-14.7994
-14.9953
-15.1634
-15.3112
-15.4266
-15.4971
-15.5375
-15.6032
-15.7599
-16.0815
-16.6382
-17.2688
-17.7827
-18.1564
-18.4805
-18.8533
-19.0809
-19.2272
-19.6245
-20.3895
-21.4103
-22.4595
-23.3831
-24.2682
-25.2464
-26.1537
-26.9318
-27.638
-28.3229
-28.8488
-28.994
-28.7143
-28.0796
-27.2265
-26.3098
-25.3205
-24.3044
-23.3692
-22.6386
-22.2048
-22.1545
-22.6362
-23.458
-24.4318
-25.2764
-25.9483
-26.6451
-27.3579
-28.035
-28.689
-29.3797
-30.0782
-30.7177
-31.3638
-31.9217
-32.244
-32.4376
-32.531
-32.4087
-32.0531
-31.5411
-30.9268
-30.3006
-29.6691
-28.954
-28.117
-27.1799
-26.2285
-25.3498
-24.577
-23.8965
-23.2428
-22.5616
-21.8301
-21.0926
-20.3985
-19.8096
-19.4332
-19.3657
-19.4977
-19.495
-19.3158
-19.057
-18.6982
-18.2766
-17.844
-17.401
-17.0162
-16.7402
-16.5693
-16.4868
-16.4337
-16.2975
-16.0692
-15.7936
-15.5949
-15.4446
-15.1646
-14.7291
-14.2715
-13.8164
-13.3943
-12.9345
-12.465
-12.0484
-11.6714
-11.2212
-10.6804
-10.0627
-9.44068
-8.8498
-8.31056
-7.82703
-7.32656
-6.8227
-6.36041
-6.00137
-5.68089
-5.39497
-5.1464
-5.01931
-5.02268
-4.92227
-4.69804
-4.38783
-4.03559
-3.63255
-3.26367
-2.91557
-2.55484
-2.19045
-1.81535
-1.38158
-0.937367
-0.523707
-0.134789
0.23747
0.55892
0.713989
0.750316
0.794817
0.841377
0.787306
0.60991
0.380425
0.175365
0.0739463
0.0776082
0.118059
0.17232
0.264671
0.299686
0.299151
0.332774
0.471801
0.712182
1.04788
1.24735
1.16415
1.07314
1.17004
1.43055
1.6013
1.70006
1.74487
1.79328
1.74398
-18.7579
-18.7648
-18.8086
-18.8839
-19.0604
-19.5395
-20.3007
-21.0449
-21.347
-21.111
-20.8202
-20.6422
-20.3617
-19.86
-19.0323
-18.1689
-17.5735
-17.3055
-17.2385
-17.2722
-17.4181
-17.5919
-17.723
-17.8368
-17.9723
-18.1353
-18.4319
-18.9236
-19.1665
-18.8783
-18.7008
-18.997
-19.4
-19.7392
-19.9432
-20.0396
-20.1369
-20.2416
-20.2689
-20.2257
-20.2691
-20.4633
-20.876
-21.5973
-22.3061
-22.7525
-22.9537
-23.0428
-23.1354
-23.176
-23.3278
-23.84
-24.7394
-25.9037
-27.068
-28.0692
-29.007
-29.9482
-30.819
-31.7175
-32.7152
-33.6746
-34.3302
-34.513
-34.2579
-33.6825
-32.8305
-31.7694
-30.6105
-29.3795
-28.1873
-27.2301
-26.7283
-26.8134
-27.41
-28.4547
-29.5844
-30.5121
-31.3642
-32.3202
-33.2158
-33.8747
-34.3699
-34.8297
-35.2635
-35.7949
-36.4247
-36.9824
-37.3002
-37.4191
-37.3962
-37.1896
-36.7507
-36.1129
-35.3876
-34.6888
-34.0009
-33.2552
-32.4258
-31.5434
-30.6504
-29.7937
-28.999
-28.2638
-27.5624
-26.8606
-26.1399
-25.416
-24.7282
-24.1434
-23.7693
-23.6566
-23.6706
-23.7518
-23.6726
-23.5338
-23.3239
-23.0383
-22.6695
-22.1805
-21.6957
-21.3345
-21.1134
-20.9588
-20.8552
-20.7228
-20.5051
-20.23
-20.038
-19.9322
-19.8094
-19.5538
-19.1321
-18.6956
-18.2537
-17.7829
-17.2396
-16.7391
-16.3525
-15.9629
-15.4852
-14.9129
-14.2971
-13.6591
-13.0046
-12.3686
-11.7908
-11.2945
-10.8147
-10.3769
-10.0394
-9.77647
-9.58768
-9.55284
-9.60592
-9.52188
-9.2718
-8.96304
-8.68438
-8.38386
-8.03595
-7.69362
-7.34698
-6.99454
-6.60173
-6.14239
-5.66486
-5.24135
-4.86992
-4.51541
-4.17349
-3.85419
-3.66615
-3.64332
-3.69527
-3.77549
-3.96209
-4.22574
-4.46868
-4.63226
-4.71826
-4.75715
-4.73979
-4.78896
-4.88385
-5.02677
-5.23694
-5.4001
-5.24195
-4.77491
-4.35556
-4.29204
-4.34541
-4.03542
-3.50365
-3.17931
-3.05805
-3.01677
-2.98765
-3.05135
-23.3179
-23.268
-23.1669
-23.0609
-23.1285
-23.5455
-24.3903
-25.3878
-26.1167
-26.4649
-26.693
-26.6768
-26.3357
-25.6752
-24.7601
-23.6783
-22.8624
-22.4564
-22.3145
-22.2885
-22.381
-22.5215
-22.6372
-22.766
-22.9728
-23.1935
-23.3596
-23.529
-23.5312
-23.3106
-23.2726
-23.79
-24.4175
-24.7999
-24.8985
-24.8112
-24.8268
-24.8797
-24.917
-25.0058
-25.1349
-25.2948
-25.782
-26.6588
-27.1808
-27.2926
-27.2964
-27.3364
-27.3496
-27.3952
-27.7127
-28.4094
-29.4853
-30.8225
-32.0002
-32.8781
-33.6831
-34.4982
-35.4217
-36.5052
-37.74
-38.8791
-39.6656
-40.0054
-39.8711
-39.3067
-38.4172
-37.2812
-36.0197
-34.6479
-33.3123
-32.2817
-31.8443
-32.0251
-32.7639
-33.798
-34.7222
-35.5626
-36.4894
-37.4762
-38.3875
-39.0602
-39.5231
-39.8976
-40.2735
-40.7732
-41.3116
-41.7445
-41.9798
-42.029
-41.9235
-41.6414
-41.1483
-40.4758
-39.7587
-39.0773
-38.4052
-37.6989
-36.9396
-36.1447
-35.3375
-34.5354
-33.7508
-32.9869
-32.2464
-31.5202
-30.7985
-30.0818
-29.3964
-28.808
-28.4276
-28.2713
-28.2061
-28.0219
-27.7957
-27.6285
-27.4874
-27.3433
-27.1736
-26.8554
-26.3798
-26.0307
-25.84
-25.6356
-25.4078
-25.2927
-25.1071
-24.8437
-24.5986
-24.4467
-24.342
-24.2065
-23.9074
-23.5173
-23.1025
-22.6357
-22.0724
-21.4711
-20.9837
-20.5569
-20.1292
-19.6358
-19.1327
-18.6304
-17.9332
-17.1023
-16.3114
-15.6265
-15.069
-14.5433
-14.1415
-13.9208
-13.8658
-13.9428
-13.988
-13.9017
-13.7323
-13.5387
-13.348
-13.1798
-12.9484
-12.6611
-12.3495
-12.0579
-11.711
-11.233
-10.6608
-10.0819
-9.5683
-9.12832
-8.75613
-8.3887
-8.08795
-8.02253
-8.13801
-8.23996
-8.37414
-8.59491
-8.82323
-9.02455
-9.28033
-9.57722
-9.803
-10.0186
-10.2545
-10.5739
-11.0176
-11.301
-11.0931
-10.4843
-9.81936
-9.48523
-9.39749
-9.03101
-8.4448
-8.0365
-7.86908
-7.81354
-7.8816
-7.92376
-28.0696
-28.0383
-27.809
-27.4187
-27.4667
-28.0425
-29.1529
-30.3702
-31.2545
-31.7571
-31.9744
-31.8901
-31.478
-30.7863
-29.973
-28.9583
-28.0665
-27.5698
-27.3609
-27.281
-27.3025
-27.4057
-27.5226
-27.6513
-27.9042
-28.141
-28.2046
-28.0383
-27.8575
-27.7817
-28.0144
-28.7366
-29.344
-29.5593
-29.5681
-29.5075
-29.5047
-29.5109
-29.5328
-29.67
-29.8381
-30.0588
-30.5547
-31.248
-31.5951
-31.6707
-31.656
-31.7505
-31.9133
-32.1887
-32.656
-33.3898
-34.4354
-35.7085
-36.6583
-37.3956
-38.1619
-39.0076
-40.1598
-41.5846
-43.0949
-44.429
-45.3765
-45.8196
-45.6823
-45.0251
-44.0252
-42.8553
-41.5113
-40.0765
-38.7345
-37.8174
-37.4898
-37.7195
-38.4199
-39.2537
-40.026
-40.7882
-41.6045
-42.4539
-43.213
-43.798
-44.265
-44.6906
-45.1411
-45.6316
-46.077
-46.4101
-46.6144
-46.6457
-46.4935
-46.1801
-45.7006
-45.0631
-44.3732
-43.7313
-43.093
-42.4228
-41.707
-40.9359
-40.142
-39.362
-38.5943
-37.8337
-37.082
-36.3387
-35.6008
-34.8711
-34.1744
-33.5742
-33.1745
-32.9513
-32.6747
-32.2366
-31.8597
-31.6285
-31.4855
-31.3687
-31.2954
-31.2053
-30.9135
-30.6301
-30.5024
-30.3371
-30.0567
-29.9209
-29.7955
-29.5536
-29.2399
-28.9743
-28.8392
-28.6674
-28.4323
-28.1057
-27.7375
-27.3074
-26.7993
-26.2537
-25.7174
-25.2336
-24.7964
-24.3535
-23.8938
-23.4354
-22.8175
-21.9354
-20.9514
-20.0236
-19.2912
-18.6496
-18.185
-17.97
-17.9898
-18.1762
-18.3408
-18.3683
-18.3097
-18.2496
-18.1504
-18.0254
-17.8639
-17.5794
-17.2518
-17.0501
-16.876
-16.4873
-15.876
-15.146
-14.438
-13.8185
-13.2989
-12.9001
-12.5863
-12.4215
-12.4716
-12.5882
-12.6551
-12.7652
-12.898
-13.1528
-13.679
-14.3915
-14.9185
-15.1975
-15.4461
-15.7725
-16.1482
-16.3371
-16.122
-15.5178
-14.7029
-14.0348
-13.7311
-13.4687
-13.1224
-12.8918
-12.74
-12.6909
-12.8724
-12.8599
-32.9004
-32.9176
-32.6609
-32.2412
-32.3932
-33.3599
-34.6567
-35.6856
-36.233
-36.4414
-36.4266
-36.2301
-35.7897
-35.181
-34.5923
-33.8824
-33.0813
-32.5658
-32.3158
-32.2
-32.1695
-32.2287
-32.3258
-32.4305
-32.6029
-32.8339
-32.8861
-32.6285
-32.3451
-32.3232
-32.6869
-33.3505
-33.7311
-33.8488
-33.8903
-34.0067
-34.1393
-34.1841
-34.1814
-34.248
-34.3876
-34.5948
-35.0135
-35.5048
-35.8852
-36.1741
-36.4109
-36.672
-36.9157
-37.2348
-37.7038
-38.3704
-39.2501
-40.162
-40.9326
-41.6922
-42.548
-43.7108
-45.2685
-47.0667
-48.8438
-50.3918
-51.5226
-52.0688
-51.908
-51.1313
-49.9888
-48.7104
-47.1981
-45.7417
-44.4929
-43.7052
-43.4043
-43.6
-44.1721
-44.8968
-45.6421
-46.3533
-47.0631
-47.7806
-48.3992
-48.8573
-49.303
-49.7597
-50.2235
-50.6861
-51.1086
-51.4519
-51.7077
-51.7965
-51.6221
-51.2483
-50.7347
-50.0607
-49.3001
-48.5842
-47.9018
-47.2029
-46.4792
-45.7066
-44.8904
-44.0666
-43.2563
-42.463
-41.6805
-40.9031
-40.1309
-39.3714
-38.6417
-37.9849
-37.4676
-37.0842
-36.67
-36.1785
-35.8056
-35.5805
-35.4574
-35.3796
-35.3308
-35.3154
-35.2365
-35.0959
-35.0769
-34.9996
-34.7425
-34.501
-34.4047
-34.2198
-33.8985
-33.5697
-33.3312
-33.1669
-32.9721
-32.6632
-32.2737
-31.8618
-31.4118
-30.9553
-30.4684
-29.9899
-29.5275
-29.0335
-28.5006
-27.981
-27.4281
-26.6254
-25.5733
-24.4677
-23.546
-22.8205
-22.2852
-22.0172
-22.0374
-22.2313
-22.4722
-22.6627
-22.7356
-22.7776
-22.7386
-22.6379
-22.5207
-22.2889
-21.8857
-21.5848
-21.4638
-21.2897
-20.9165
-20.2227
-19.4225
-18.6486
-17.9422
-17.4276
-17.1085
-16.9212
-16.826
-16.8722
-16.9187
-16.9268
-16.9722
-17.2633
-18.0281
-19.0358
-19.8179
-20.1856
-20.3732
-20.5754
-20.6516
-20.6789
-20.4848
-19.9285
-19.1151
-18.1855
-17.5995
-17.4998
-17.5828
-17.7127
-17.6764
-17.6391
-17.9791
-17.7922
-37.6264
-37.8846
-37.5895
-37.3758
-37.8412
-38.9705
-39.9203
-40.4399
-40.6153
-40.5795
-40.431
-40.1621
-39.8136
-39.3584
-38.9173
-38.5081
-37.9244
-37.4269
-37.1637
-37.0313
-36.9688
-36.9791
-37.0323
-37.0954
-37.1878
-37.3207
-37.3803
-37.2005
-36.8788
-36.8239
-37.0573
-37.4642
-37.7093
-37.8625
-37.988
-38.1925
-38.41
-38.5294
-38.6456
-38.7685
-38.9115
-39.1255
-39.4513
-39.7936
-40.2857
-40.8148
-41.2613
-41.5826
-41.884
-42.2316
-42.6935
-43.2733
-43.9489
-44.6283
-45.3109
-46.1252
-47.1519
-48.6241
-50.3698
-52.2574
-54.1707
-55.9568
-57.4004
-58.2061
-58.2171
-57.4967
-56.2185
-54.7933
-53.2045
-51.7108
-50.5262
-49.7358
-49.4028
-49.539
-50.0034
-50.6559
-51.3509
-52.0702
-52.817
-53.4614
-53.9631
-54.3881
-54.8004
-55.2598
-55.7263
-56.1825
-56.6302
-56.9889
-57.1783
-57.1814
-56.9931
-56.6021
-56.0266
-55.2458
-54.3229
-53.3869
-52.563
-51.7895
-51.0314
-50.2402
-49.3884
-48.5072
-47.637
-46.7943
-45.9734
-45.16
-44.3559
-43.5588
-42.761
-42.0143
-41.3653
-40.8154
-40.3311
-39.9249
-39.645
-39.4858
-39.4107
-39.3874
-39.377
-39.4057
-39.4661
-39.4831
-39.5789
-39.634
-39.4827
-39.2355
-39.1191
-38.9595
-38.6711
-38.3265
-37.9629
-37.7296
-37.589
-37.3352
-36.97
-36.5858
-36.1487
-35.6607
-35.1857
-34.701
-34.1573
-33.5602
-32.958
-32.3803
-31.8051
-31.0887
-30.1271
-28.945
-27.7988
-27.0045
-26.4674
-26.1732
-26.1614
-26.3116
-26.5359
-26.7414
-26.8712
-26.9332
-26.9347
-26.8732
-26.7758
-26.5482
-26.1246
-25.6797
-25.4943
-25.4488
-25.3371
-24.9902
-24.3015
-23.5187
-22.7106
-22.0852
-21.7094
-21.5057
-21.3575
-21.2734
-21.2681
-21.3019
-21.3495
-21.5975
-22.3133
-23.3377
-24.2528
-24.728
-24.9518
-25.1306
-25.153
-24.921
-24.5032
-23.8569
-23.1303
-22.3076
-21.6184
-21.5606
-21.9588
-22.4693
-22.5391
-22.4934
-23.0172
-22.5523
-42.1455
-42.4394
-42.5554
-42.4525
-42.9724
-43.812
-44.3414
-44.5744
-44.6676
-44.6921
-44.668
-44.5497
-44.3069
-43.8803
-43.3851
-43.0833
-42.6627
-42.1782
-41.9189
-41.7828
-41.6961
-41.6592
-41.6589
-41.6888
-41.7027
-41.6968
-41.7141
-41.5961
-41.2794
-41.1773
-41.202
-41.3845
-41.6959
-41.9172
-42.1161
-42.3612
-42.5915
-42.8587
-43.1645
-43.4124
-43.5669
-43.774
-44.0376
-44.2488
-44.6887
-45.3521
-45.9605
-46.398
-46.7644
-47.1026
-47.4892
-47.9903
-48.5804
-49.197
-49.8742
-50.7384
-51.8987
-53.3428
-55.0051
-56.8713
-58.9035
-60.9771
-62.7334
-63.8279
-64.0928
-63.5441
-62.388
-60.8942
-59.2673
-57.7955
-56.6103
-55.7943
-55.463
-55.5502
-55.9396
-56.4766
-57.0999
-57.7806
-58.4537
-58.9896
-59.4291
-59.9127
-60.4028
-60.9012
-61.4224
-61.921
-62.3129
-62.5609
-62.6399
-62.5316
-62.2923
-61.8738
-61.2114
-60.3625
-59.3419
-58.2619
-57.2943
-56.4533
-55.6597
-54.8451
-53.9705
-53.0409
-52.0906
-51.1478
-50.2354
-49.356
-48.5042
-47.6947
-46.8983
-46.0998
-45.3411
-44.6612
-44.101
-43.7228
-43.4921
-43.3748
-43.343
-43.3674
-43.4177
-43.5232
-43.7054
-43.8795
-44.0411
-44.2241
-44.2846
-44.1934
-43.999
-43.7515
-43.5054
-43.2003
-42.8024
-42.4074
-42.1351
-41.8638
-41.5338
-41.1755
-40.7655
-40.2933
-39.8156
-39.3321
-38.7867
-38.1781
-37.5831
-36.981
-36.3179
-35.5448
-34.6609
-33.508
-32.1922
-31.2238
-30.6666
-30.3858
-30.372
-30.5591
-30.7962
-30.9914
-31.0931
-31.0954
-31.0593
-30.9543
-30.7833
-30.5733
-30.2247
-29.7867
-29.4733
-29.3476
-29.3269
-29.2866
-28.9137
-28.2922
-27.5338
-26.8954
-26.4953
-26.2336
-26.0628
-25.8862
-25.7688
-25.8204
-25.9606
-26.2337
-26.7363
-27.507
-28.2769
-28.7848
-29.0516
-29.2064
-29.1924
-28.868
-28.2815
-27.5361
-26.8701
-26.3495
-25.8938
-25.8405
-26.2405
-26.8815
-27.0615
-27.0796
-27.4089
-27.0742
-46.469
-46.6264
-46.8544
-46.932
-47.3836
-47.9084
-48.2606
-48.4723
-48.6403
-48.9355
-49.2287
-49.3247
-49.1408
-48.6807
-48.1497
-47.7305
-47.2728
-46.8258
-46.5986
-46.4738
-46.3754
-46.2917
-46.2282
-46.1654
-46.0579
-45.9761
-45.946
-45.8304
-45.5404
-45.4335
-45.3638
-45.4431
-45.8531
-46.2493
-46.5871
-46.9117
-47.2156
-47.5347
-47.8622
-48.122
-48.2668
-48.4794
-48.7005
-48.8816
-49.2721
-49.9607
-50.6424
-51.1544
-51.5457
-51.8295
-52.0922
-52.5041
-53.0473
-53.6545
-54.353
-55.2578
-56.3772
-57.6478
-59.1556
-60.9815
-63.1373
-65.3948
-67.3489
-68.7055
-69.2642
-68.9869
-68.0264
-66.6307
-65.0923
-63.7246
-62.6114
-61.8938
-61.601
-61.6744
-61.9556
-62.3502
-62.857
-63.4265
-63.9063
-64.3058
-64.7358
-65.2337
-65.8017
-66.3865
-66.9839
-67.4773
-67.7722
-67.9072
-67.8917
-67.7425
-67.4679
-66.9999
-66.3165
-65.3971
-64.3222
-63.2122
-62.1817
-61.3025
-60.5065
-59.7149
-58.8702
-57.937
-56.9268
-55.8731
-54.8214
-53.8069
-52.8407
-51.9649
-51.183
-50.3769
-49.5457
-48.7682
-48.1179
-47.6478
-47.3669
-47.247
-47.2373
-47.2963
-47.4187
-47.6227
-47.923
-48.2698
-48.5448
-48.7219
-48.8633
-48.8926
-48.736
-48.4839
-48.2749
-47.9898
-47.6235
-47.1705
-46.6801
-46.2506
-45.8813
-45.5174
-45.1246
-44.6851
-44.2262
-43.7794
-43.3393
-42.8409
-42.3104
-41.747
-41.0605
-40.2019
-39.3088
-38.1475
-36.7525
-35.5694
-34.8441
-34.5369
-34.555
-34.8044
-35.0553
-35.2283
-35.3316
-35.372
-35.3549
-35.2589
-35.0421
-34.7964
-34.4703
-34.0786
-33.7111
-33.48
-33.3986
-33.3679
-33.2679
-32.8814
-32.3081
-31.7838
-31.462
-31.1477
-30.8796
-30.671
-30.484
-30.4359
-30.6274
-30.965
-31.4109
-31.9277
-32.4134
-32.7584
-32.8786
-32.8298
-32.7012
-32.4185
-31.9917
-31.3433
-30.7017
-30.3153
-30.1614
-30.2678
-30.5001
-30.9675
-31.1994
-31.2323
-31.2754
-31.3077
-50.4305
-50.5894
-50.7432
-50.9304
-51.3481
-51.7491
-52.0402
-52.2528
-52.5503
-53.0643
-53.5339
-53.7814
-53.7047
-53.3591
-52.8916
-52.3163
-51.7476
-51.3866
-51.2258
-51.137
-51.0541
-50.9452
-50.8151
-50.5809
-50.3216
-50.1992
-50.1777
-50.0578
-49.8422
-49.7185
-49.6999
-49.7484
-50.1605
-50.8414
-51.3006
-51.6676
-51.9854
-52.2981
-52.5638
-52.7256
-52.8454
-53.0699
-53.3457
-53.6028
-54.0136
-54.6605
-55.3216
-55.833
-56.206
-56.4343
-56.6178
-56.914
-57.3682
-57.9233
-58.6046
-59.464
-60.467
-61.5882
-62.9616
-64.7168
-66.8306
-69.0428
-71.0608
-72.5996
-73.4275
-73.4523
-72.7733
-71.6518
-70.4138
-69.3464
-68.5424
-68.0209
-67.8131
-67.8392
-67.9833
-68.228
-68.6218
-69.1274
-69.5131
-69.8015
-70.1388
-70.5681
-71.099
-71.701
-72.2888
-72.7126
-72.9571
-73.0744
-73
-72.7762
-72.461
-72.0025
-71.2556
-70.2737
-69.1848
-68.0784
-67.039
-66.1289
-65.3267
-64.5705
-63.7923
-62.9288
-61.9422
-60.8467
-59.693
-58.5456
-57.4455
-56.4302
-55.5395
-54.6729
-53.8149
-53.0099
-52.3299
-51.7734
-51.3816
-51.1624
-51.1151
-51.1958
-51.3779
-51.6848
-52.109
-52.5846
-52.9908
-53.2441
-53.3923
-53.4554
-53.3936
-53.2497
-53.1311
-52.8779
-52.522
-52.0419
-51.4198
-50.8583
-50.4063
-50.023
-49.639
-49.1993
-48.7166
-48.2196
-47.7622
-47.3404
-46.8723
-46.3489
-45.7189
-44.913
-43.9516
-42.8303
-41.448
-40.0792
-39.1315
-38.73
-38.7339
-38.9585
-39.1995
-39.3236
-39.3968
-39.476
-39.5074
-39.4617
-39.324
-39.0837
-38.7424
-38.3769
-38.0652
-37.8105
-37.6479
-37.5787
-37.5345
-37.3268
-36.9556
-36.5606
-36.3601
-36.1266
-35.8041
-35.5391
-35.3141
-35.1519
-35.2499
-35.6048
-36.0545
-36.5093
-36.8958
-37.1216
-37.1418
-36.9774
-36.7461
-36.4466
-36.0976
-35.5925
-34.9702
-34.5708
-34.5687
-34.8058
-34.9249
-35.2211
-35.3587
-35.3183
-35.1769
-35.4146
-54.229
-54.3893
-54.5938
-54.8508
-55.2481
-55.5718
-55.835
-56.0737
-56.4653
-56.9827
-57.5318
-57.8878
-57.9203
-57.7684
-57.4053
-56.8079
-56.2103
-55.9367
-55.8484
-55.8213
-55.8077
-55.7627
-55.6191
-55.2435
-54.8273
-54.5691
-54.5146
-54.3946
-54.2339
-54.0887
-54.1826
-54.2511
-54.5007
-55.3434
-55.9721
-56.4355
-56.8863
-57.1663
-57.3253
-57.3654
-57.403
-57.5497
-57.8181
-58.1302
-58.6041
-59.2373
-59.8633
-60.3442
-60.6851
-60.8779
-61.0591
-61.294
-61.6393
-62.0966
-62.7038
-63.4585
-64.3225
-65.3198
-66.5474
-68.1161
-69.9812
-71.9657
-73.8521
-75.4065
-76.3924
-76.6901
-76.393
-75.8042
-75.2425
-74.7961
-74.4583
-74.1907
-74.0269
-73.941
-73.922
-74.0012
-74.2963
-74.759
-75.1542
-75.4432
-75.7044
-76.0697
-76.5347
-77.06
-77.5457
-77.9679
-78.2997
-78.4312
-78.2805
-77.9329
-77.4441
-76.7866
-75.8767
-74.7834
-73.6497
-72.5548
-71.5218
-70.598
-69.8006
-69.0937
-68.413
-67.6781
-66.8004
-65.7228
-64.5084
-63.2649
-62.0689
-60.9467
-59.8973
-58.9244
-58.0095
-57.195
-56.514
-55.962
-55.5368
-55.2126
-55.0478
-55.0961
-55.3107
-55.7115
-56.2433
-56.828
-57.3466
-57.7312
-57.898
-58.0013
-58.1435
-58.2999
-58.4334
-58.3673
-57.8935
-57.2182
-56.459
-55.7666
-55.222
-54.828
-54.4772
-54.0588
-53.5565
-53.0117
-52.4733
-51.9611
-51.4339
-50.8694
-50.2381
-49.4615
-48.4964
-47.4255
-46.1842
-44.803
-43.6767
-43.0765
-43.0028
-43.1936
-43.4125
-43.5235
-43.5598
-43.5593
-43.5264
-43.493
-43.4159
-43.2086
-42.9164
-42.6076
-42.3555
-42.1738
-42.0342
-41.9493
-41.9049
-41.7782
-41.5329
-41.1844
-41.0445
-40.923
-40.6917
-40.3925
-40.1229
-39.9206
-39.8848
-40.0994
-40.472
-40.9057
-41.2875
-41.5387
-41.6219
-41.5361
-41.3376
-40.9898
-40.5509
-40.094
-39.5982
-39.2437
-39.3215
-39.6085
-39.7225
-39.8086
-39.735
-39.6213
-39.4817
-39.6475
-58.0491
-58.1648
-58.5304
-58.8068
-59.1895
-59.4729
-59.7675
-60.0997
-60.4831
-60.886
-61.377
-61.7976
-61.9186
-61.9059
-61.69
-61.1297
-60.6321
-60.4734
-60.4727
-60.5323
-60.6312
-60.7098
-60.653
-60.1741
-59.5873
-59.1919
-58.9952
-58.8287
-58.6788
-58.567
-58.7118
-58.8213
-58.9849
-59.6462
-60.4247
-61.0481
-61.5836
-61.9719
-62.1627
-62.167
-62.1117
-62.1175
-62.2035
-62.4575
-62.9462
-63.5423
-64.1097
-64.5994
-64.9566
-65.1881
-65.4404
-65.6656
-65.9375
-66.2918
-66.7716
-67.4109
-68.1291
-68.9842
-70.0178
-71.2855
-72.7705
-74.3674
-75.9489
-77.3374
-78.3435
-78.8755
-79.1012
-79.3663
-79.8183
-80.195
-80.3846
-80.3643
-80.1906
-79.9691
-79.7413
-79.583
-79.65
-79.9544
-80.3203
-80.6653
-80.965
-81.3081
-81.7226
-82.1809
-82.6345
-83.132
-83.5748
-83.7236
-83.5257
-83.0141
-82.2712
-81.3146
-80.1633
-78.8993
-77.6888
-76.6126
-75.6219
-74.7162
-73.9333
-73.2694
-72.677
-72.0691
-71.2981
-70.2397
-69.0027
-67.7454
-66.5705
-65.4484
-64.3346
-63.2937
-62.291
-61.3871
-60.6439
-60.0998
-59.6945
-59.381
-59.1513
-59.1052
-59.2982
-59.7425
-60.3607
-61.0534
-61.6488
-62.0322
-62.2302
-62.4158
-62.6988
-62.9782
-63.1929
-63.2766
-63.0285
-62.3861
-61.5306
-60.7259
-60.1179
-59.7252
-59.396
-59.0169
-58.5613
-58.0513
-57.5322
-57.0056
-56.445
-55.8093
-55.0918
-54.2369
-53.2137
-52.0949
-50.9242
-49.6363
-48.4975
-47.7102
-47.4226
-47.531
-47.7461
-47.913
-47.9791
-47.9196
-47.7898
-47.6698
-47.5399
-47.3454
-47.0892
-46.8199
-46.6341
-46.5365
-46.4802
-46.415
-46.4131
-46.356
-46.1805
-45.8562
-45.6445
-45.5343
-45.3964
-45.1538
-44.8641
-44.638
-44.5518
-44.6143
-44.8226
-45.0918
-45.3585
-45.5892
-45.7396
-45.7942
-45.7018
-45.3957
-44.9686
-44.5848
-44.2999
-44.1029
-44.333
-44.7789
-44.8188
-44.6044
-44.2025
-44.0307
-44.0881
-44.0654
-62.0779
-62.1901
-62.6532
-62.8435
-63.1743
-63.4607
-63.8268
-64.2565
-64.5413
-64.8038
-65.1447
-65.4958
-65.6495
-65.6708
-65.5834
-65.1875
-64.8852
-64.8969
-64.998
-65.0975
-65.1666
-65.265
-65.2708
-64.9186
-64.199
-63.7236
-63.4681
-63.2717
-63.1578
-63.113
-63.2266
-63.3814
-63.6057
-64.0305
-64.726
-65.3932
-65.9481
-66.4422
-66.7734
-66.9414
-66.9505
-66.8775
-66.7509
-66.8127
-67.1638
-67.6668
-68.2159
-68.7358
-69.1508
-69.4983
-69.811
-70.042
-70.2596
-70.5158
-70.8978
-71.421
-72.003
-72.6797
-73.4868
-74.4305
-75.4892
-76.626
-77.803
-78.9219
-79.8829
-80.6719
-81.4732
-82.5869
-84.03
-85.3141
-86.0832
-86.3281
-86.2119
-85.9054
-85.469
-85.022
-84.7723
-84.8253
-85.101
-85.391
-85.6559
-85.9634
-86.4004
-86.8903
-87.4252
-87.9929
-88.4738
-88.6683
-88.4262
-87.8302
-86.9625
-85.8461
-84.4999
-83.0272
-81.6596
-80.5904
-79.6647
-78.8037
-78.0459
-77.4146
-76.8865
-76.3696
-75.6329
-74.4992
-73.1875
-71.9304
-70.8247
-69.7943
-68.7991
-67.819
-66.7994
-65.824
-64.9714
-64.3134
-63.8614
-63.5925
-63.4062
-63.332
-63.4792
-63.9133
-64.5601
-65.3431
-66.0456
-66.525
-66.8302
-67.0368
-67.2337
-67.3945
-67.4991
-67.6164
-67.5989
-67.1581
-66.3756
-65.5555
-64.9239
-64.4716
-64.1059
-63.7489
-63.3612
-62.9367
-62.5147
-62.1323
-61.746
-61.2178
-60.4807
-59.5612
-58.4296
-57.1512
-55.827
-54.5122
-53.3692
-52.526
-52.0576
-52.0066
-52.1762
-52.3916
-52.4863
-52.4283
-52.2915
-52.11
-51.9339
-51.7482
-51.4808
-51.1998
-51.0544
-50.9972
-50.9515
-50.9226
-50.9882
-51.0477
-50.9343
-50.6269
-50.294
-50.1137
-49.9452
-49.7808
-49.5514
-49.3152
-49.1909
-49.2057
-49.2816
-49.355
-49.4527
-49.5496
-49.634
-49.7072
-49.6994
-49.5444
-49.261
-48.9994
-48.8559
-48.8608
-49.2424
-49.6688
-49.6953
-49.3843
-48.8501
-48.5588
-48.7597
-48.585
-66.468
-66.5543
-66.908
-66.9584
-67.1922
-67.5026
-67.9136
-68.3456
-68.5483
-68.6686
-68.8875
-69.0611
-69.1115
-69.0916
-69.0597
-68.9438
-68.9277
-69.1157
-69.2684
-69.2814
-69.2507
-69.3029
-69.2967
-69.0197
-68.4952
-68.1077
-67.8723
-67.7009
-67.6743
-67.6856
-67.7668
-67.9402
-68.242
-68.6122
-69.123
-69.5934
-70.0827
-70.5802
-71.0092
-71.3341
-71.5147
-71.5733
-71.3924
-71.2663
-71.4824
-71.87
-72.3607
-72.9084
-73.3789
-73.8004
-74.0917
-74.3604
-74.5702
-74.7833
-75.1007
-75.5227
-75.9956
-76.488
-77.0587
-77.6811
-78.3605
-79.0857
-79.9115
-80.8057
-81.716
-82.7055
-83.9238
-85.5818
-87.6562
-89.651
-91.0167
-91.6393
-91.7274
-91.4749
-90.9451
-90.2836
-89.7554
-89.5726
-89.7505
-89.9992
-90.2187
-90.4348
-90.8006
-91.3269
-91.9688
-92.6118
-93.1579
-93.4786
-93.2857
-92.7233
-91.8281
-90.6225
-89.1275
-87.4535
-85.8588
-84.6692
-83.7558
-82.9283
-82.1966
-81.5987
-81.1354
-80.727
-80.0841
-78.9742
-77.5907
-76.2202
-75.0258
-74.0362
-73.1508
-72.2592
-71.3571
-70.4525
-69.5643
-68.7981
-68.2178
-67.8514
-67.7124
-67.7129
-67.8532
-68.1977
-68.8356
-69.697
-70.5679
-71.249
-71.6881
-71.9508
-72.1209
-72.2032
-72.1783
-72.0952
-72.0016
-71.7204
-71.0816
-70.279
-69.5255
-68.9271
-68.4749
-68.0994
-67.7522
-67.4138
-67.0991
-66.8523
-66.6421
-66.329
-65.8058
-65.0353
-63.9097
-62.4372
-60.8812
-59.4459
-58.2589
-57.3887
-56.8444
-56.6651
-56.7864
-56.9929
-57.052
-56.9861
-56.86
-56.6898
-56.5063
-56.3305
-56.12
-55.8389
-55.6315
-55.5314
-55.4812
-55.4751
-55.6054
-55.8175
-55.755
-55.4622
-55.0306
-54.7252
-54.477
-54.3078
-54.181
-53.9703
-53.8143
-53.8004
-53.8202
-53.8122
-53.7916
-53.7565
-53.7276
-53.7158
-53.7008
-53.6732
-53.5334
-53.3864
-53.3391
-53.4146
-53.7291
-54.0311
-54.0737
-53.844
-53.4952
-53.1672
-53.2183
-53.0436
-71.0243
-71.0631
-71.223
-71.2321
-71.4047
-71.6187
-72.0353
-72.3531
-72.4974
-72.5641
-72.692
-72.7147
-72.6403
-72.5271
-72.4719
-72.5298
-72.7158
-73.0049
-73.1743
-73.1421
-73.0967
-73.1037
-73.0681
-72.898
-72.6503
-72.4219
-72.276
-72.2232
-72.246
-72.2667
-72.3414
-72.5116
-72.7927
-73.1597
-73.443
-73.7128
-74.1034
-74.5793
-75.0084
-75.36
-75.6339
-75.8244
-75.7751
-75.5941
-75.8205
-76.1322
-76.5442
-77.0753
-77.6059
-78.077
-78.3543
-78.6139
-78.877
-79.1152
-79.4154
-79.7696
-80.1344
-80.4697
-80.8047
-81.097
-81.4124
-81.8688
-82.4979
-83.283
-84.1777
-85.2508
-86.6642
-88.5819
-90.8863
-93.1151
-94.7782
-95.7214
-96.1026
-96.0667
-95.6647
-95.0026
-94.3526
-94.0608
-94.1601
-94.4269
-94.7017
-94.9304
-95.2334
-95.7101
-96.3426
-97.0283
-97.6194
-97.9753
-98.0071
-97.5513
-96.6711
-95.4176
-93.8253
-92.0372
-90.3225
-88.9432