/*--------------------------------*- C++ -*----------------------------------*\
| =========                 |                                                 |
| \\      /  F ield         | OpenFOAM: The Open Source CFD Toolbox           |
|  \\    /   O peration     | Version:  2412                                  |
|   \\  /    A nd           | Website:  www.openfoam.com                      |
|    \\/     M anipulation  |                                                 |
\*---------------------------------------------------------------------------*/
FoamFile
{
    version     2.0;
    format      ascii;
    arch        "LSB;label=32;scalar=64";
    class       volScalarField;
    location    "4";
    object      p_rgh;
}
// * * * * * * * * * * * * * * * * * * * * * * * * * * * * * * * * * * * * * //

dimensions      [1 -1 -2 0 0 0 0];

internalField   nonuniform List<scalar> 
40000
(
2.41677
2.34384
2.19599
1.96863
1.60469
1.08937
0.683967
0.810757
1.6503
3.10832
4.46428
5.11296
5.15672
4.93119
4.8023
4.75965
4.72509
4.67966
4.61222
4.52644
4.41402
4.23957
4.154
4.08607
4.01162
3.86415
3.64364
3.3573
3.02476
2.7553
2.60161
2.47175
2.30371
2.1009
1.90393
1.7341
1.56472
1.38296
1.18164
1.00381
0.826672
0.63817
0.39307
0.0771208
-0.303181
-0.722959
-1.15434
-1.59743
-2.07018
-2.58205
-3.12848
-3.71014
-4.3557
-5.09748
-5.88617
-6.74102
-7.58092
-8.27495
-8.87425
-9.39751
-9.81896
-10.0523
-10.1289
-10.0404
-9.75856
-9.40023
-8.9574
-8.47723
-8.02526
-7.6393
-7.31607
-7.02749
-6.80957
-6.69595
-6.72418
-6.96992
-7.37668
-7.78461
-8.06162
-8.28566
-8.6071
-9.1421
-9.86744
-10.6959
-11.5436
-12.3039
-12.9246
-13.4425
-13.8893
-14.2539
-14.5239
-14.7076
-14.7752
-14.6341
-14.3593
-13.889
-13.1739
-12.4464
-11.789
-11.2289
-10.6331
-9.96919
-9.22128
-8.36869
-7.43311
-6.5079
-5.70657
-5.03198
-4.498
-4.13659
-3.91299
-3.66521
-3.31508
-2.98364
-2.76546
-2.52354
-2.19396
-1.81832
-1.40819
-0.998902
-0.679504
-0.440699
-0.25193
-0.0867292
0.0594203
0.192868
0.354285
0.591135
0.899502
1.24106
1.68619
2.18016
2.67845
3.09971
3.45077
3.7107
4.1284
4.70875
5.30732
5.7968
6.19211
6.4823
6.87954
7.49857
8.19545
8.79179
9.27813
9.64961
9.97834
10.2447
10.5461
10.8144
11.1502
11.47
11.8097
12.0978
12.4235
12.769
13.0842
13.383
13.6534
13.954
14.3165
14.7559
15.2722
15.8165
16.3692
16.9159
17.4226
17.8183
18.0085
17.9799
17.7851
17.6857
17.6318
17.5582
17.4575
17.3559
17.2812
17.2508
17.2616
17.2969
17.3256
17.3528
17.425
17.5619
17.7364
17.9088
18.0373
18.138
18.0835
17.9141
17.6957
17.5925
17.6069
17.7765
18.0719
18.2591
18.2123
18.2628
2.52334
2.44102
2.27929
2.03395
1.58571
0.811713
-0.040096
-0.328793
0.475079
2.20728
3.9148
4.85806
4.88787
4.6742
4.63638
4.78725
4.79523
4.7845
4.68969
4.52547
4.40194
4.18993
4.221
4.12796
4.00426
3.8285
3.551
3.2214
2.8428
2.60206
2.55108
2.44969
2.29869
2.11052
1.88532
1.72935
1.56886
1.34555
1.05252
0.882673
0.710814
0.672571
0.421868
0.0768341
-0.341578
-0.779684
-1.20405
-1.63386
-2.09718
-2.60037
-3.07472
-3.58338
-4.22186
-5.01353
-5.89792
-6.87178
-7.90527
-8.40534
-9.00507
-9.61807
-10.0643
-10.3774
-10.534
-10.4733
-10.1839
-9.77698
-9.13961
-8.51774
-7.9752
-7.51974
-7.14397
-6.84936
-6.7431
-6.65229
-6.69773
-7.00173
-7.46951
-7.85293
-8.13142
-8.28612
-8.53191
-9.14428
-10.0032
-10.9022
-11.7803
-12.5403
-13.1351
-13.6647
-14.1168
-14.4452
-14.6797
-14.8925
-15.3389
-15.1765
-14.9107
-14.5198
-13.7206
-12.9254
-12.1782
-11.5666
-11.1902
-10.6746
-9.99114
-8.98884
-7.6747
-6.60852
-5.7657
-5.05351
-4.4604
-4.12126
-4.19804
-4.18502
-3.66777
-2.96919
-2.93623
-2.91166
-2.57402
-2.20443
-1.75076
-1.01646
-0.647725
-0.416416
-0.228412
-0.0773771
0.0542329
0.151487
0.236048
0.446724
0.806171
1.26649
1.73581
2.1566
2.62048
3.07703
3.53166
3.9094
4.06802
4.66793
5.24472
5.74944
6.17407
6.25189
6.54614
7.13251
8.11209
8.74174
9.25259
9.48528
9.85846
10.2163
10.7026
11.0038
11.2321
11.5641
11.871
12.1831
12.381
12.3965
12.748
13.1978
13.4949
13.7973
14.1364
14.5749
15.133
15.6752
16.2152
16.7488
17.2496
17.6624
17.8541
17.8002
17.6428
17.5914
17.6187
17.5541
17.4319
17.3089
17.2231
17.205
17.2306
17.2872
17.3535
17.3758
17.1352
16.8394
16.91
17.0892
17.4729
17.9441
17.6724
17.4871
17.2261
17.0304
16.9884
17.1611
17.7077
17.8702
17.8929
18.3045
2.58187
2.5023
2.33309
2.10627
1.6193
0.184995
-1.28325
-1.64473
-1.17432
0.293363
2.90789
4.07652
4.34179
4.01534
4.10683
4.63576
4.7804
4.81556
4.69987
4.50677
4.36
4.20087
4.21772
4.08246
3.97971
3.81744
3.53634
3.18191
2.33039
1.7104
2.0779
2.41895
2.2398
2.06013
1.71178
1.55225
1.53832
1.31588
0.989231
0.869156
0.737817
0.518694
0.29124
0.0478229
-0.42927
-0.861321
-1.25232
-1.65885
-2.10032
-2.96817
-3.39101
-3.62623
-4.06388
-4.91066
-5.87712
-7.51825
-8.31054
-8.62347
-9.2535
-10.0358
-10.5656
-10.918
-11.2544
-11.3498
-11.1336
-10.7895
-10.0124
-8.92553
-8.14009
-7.41936
-6.79769
-6.37332
-6.18876
-6.16034
-6.19553
-6.71061
-7.39236
-7.94616
-8.33478
-8.66138
-9.212
-9.8895
-10.721
-11.6043
-12.7773
-13.9182
-14.4815
-14.3975
-14.7154
-15.0106
-15.1585
-15.1035
-14.861
-14.585
-15.1104
-15.6383
-15.2045
-14.5216
-13.7484
-12.9189
-12.0209
-11.1684
-10.4217
-9.77139
-9.07817
-7.90171
-6.8881
-6.14801
-5.5556
-5.07937
-4.88707
-4.67324
-3.61146
-3.00413
-2.89395
-3.06962
-2.69504
-2.24032
-1.80528
-1.68767
-1.40818
-1.20636
-1.06004
-0.661352
-0.351892
-0.45524
-1.04515
-0.956108
-0.322451
1.03863
1.72691
2.19
2.63697
3.08811
3.5375
4.014
4.35302
4.25055
5.1618
5.67907
6.17421
6.16796
6.48914
7.01311
7.50724
8.51049
9.27557
9.81121
10.2327
10.5105
10.6728
11.1334
11.1298
11.0749
11.8382
11.979
12.1281
11.9879
12.0339
12.3683
12.6902
13.0346
13.3966
13.8232
14.7818
15.4305
15.946
16.509
16.9936
17.4067
17.6626
17.4032
16.9853
17.2394
17.6501
17.6283
17.4809
17.244
17.0995
17.0497
17.1563
17.2258
17.071
16.0476
16.0014
16.0774
16.2093
16.5088
17.7303
18.2166
18.3517
18.0688
17.0529
16.737
16.7663
17.6657
18.4141
18.3719
17.3533
17.2878
2.15605
2.22554
2.16784
2.36283
2.01411
0.273577
-1.17831
-1.74783
-1.61593
-0.699292
1.45734
2.44036
2.80832
3.02004
3.0396
4.09987
4.5969
4.72918
4.7378
4.40154
4.26697
4.31498
4.14893
3.98963
3.92153
3.78566
3.49816
2.96567
2.59365
1.35367
1.38385
1.62287
1.52857
1.33578
1.2773
1.62711
1.48046
1.365
1.207
1.17775
1.11174
0.586474
0.253301
-0.300955
-0.928879
-1.40358
-1.32608
-1.64689
-2.12073
-3.1766
-4.10368
-4.52862
-5.08876
-6.0614
-7.09214
-7.97544
-8.22989
-9.19636
-10.9386
-11.8428
-11.6046
-11.5069
-12.0744
-13.2119
-13.3996
-11.8906
-10.3943
-9.46946
-8.47901
-7.46296
-6.52778
-5.98286
-5.55583
-5.12092
-5.59221
-6.41346
-7.38725
-8.79039
-10.4896
-10.4251
-10.3846
-11.0545
-11.7154
-12.564
-14.9656
-16.5403
-17.0543
-16.5103
-16.3311
-16.5721
-16.5199
-15.886
-15.4747
-15.9892
-16.4873
-16.209
-15.612
-14.8984
-14.0676
-13.153
-12.2185
-11.3257
-10.5516
-9.8703
-9.19144
-8.48127
-7.72611
-7.00544
-6.33683
-5.76039
-5.38986
-5.34283
-4.95689
-4.04867
-3.607
-3.04865
-2.15205
-1.66131
-1.22335
-0.771136
-0.817606
-1.26151
-1.75353
-1.85332
-1.80457
-1.66751
-1.43733
-1.16096
-0.95984
-0.709999
1.1451
2.20119
2.65878
3.11388
3.53586
3.99397
3.91565
4.06845
4.77343
5.61019
6.15141
6.76829
7.21468
6.96701
7.46944
7.96179
8.62649
9.94578
10.4051
10.4112
10.8318
11.3623
10.8949
10.6624
11.0906
11.1959
10.5949
10.7751
12.1489
12.923
12.7073
12.9161
13.279
13.6486
14.0316
14.4751
14.9316
15.7963
16.5982
17.1501
17.5756
17.0953
16.5999
16.6444
17.5357
17.8218
17.6445
17.415
17.1998
17.1057
17.1128
16.7974
15.5398
15.5264
15.6281
15.533
15.8797
17.0078
17.2665
17.6328
17.8453
17.7727
17.668
17.2666
17.5827
18.3952
18.494
18.5388
17.862
16.9988
2.05843
2.05156
2.01052
2.63572
2.60423
0.493287
-0.732088
-1.50014
-0.957012
-0.457242
-0.152445
-1.48021
-1.52713
-0.0516942
1.87843
3.62994
4.22944
4.49788
4.56523
4.20976
4.06882
4.21019
4.07943
3.90871
3.81387
3.65444
3.35775
2.5951
1.72777
1.04121
1.2187
1.03301
1.63062
1.84898
1.64596
1.54966
1.45231
1.3476
1.21648
1.26525
1.22013
0.56335
0.307484
-0.220823
-0.982031
-1.62576
-2.27493
-2.45094
-3.92257
-4.8059
-4.85858
-4.46164
-4.70196
-5.7273
-6.53241
-7.22244
-8.18935
-10.529
-11.419
-12.3153
-12.4136
-13.1788
-14.5629
-14.8233
-14.5707
-13.5697
-11.2053
-10.1172
-8.9575
-7.72636
-6.82362
-5.81666
-4.83419
-4.90612
-5.49707
-6.79366
-9.70275
-11.8399
-12.7773
-13.7086
-13.2101
-12.6886
-13.0208
-14.4405
-16.7468
-17.5803
-18.2113
-18.6048
-17.3888
-17.0934
-18.3275
-18.9206
-18.6557
-18.0362
-17.3109
-16.6105
-15.9236
-15.1818
-14.1896
-12.584
-10.9065
-9.79982
-9.07805
-8.64375
-8.1163
-7.4314
-6.64455
-5.91009
-5.20913
-4.92732
-5.16524
-5.6439
-5.88639
-5.96813
-5.88897
-5.73808
-4.11005
-2.30084
-1.35928
-0.794544
-0.309553
0.0525306
0.272702
-0.490807
-2.04606
-1.91411
-1.67292
-0.760483
-0.740525
-1.06951
-0.643945
1.95757
2.63534
3.07189
3.51366
3.98262
4.01045
3.98516
4.3692
4.80758
6.08259
6.72222
7.33468
7.97219
8.35247
8.05338
8.63293
9.12722
10.1837
9.69642
8.94771
9.95766
10.7933
10.637
9.89611
9.96531
10.2154
10.5241
10.9272
13.1391
13.7972
13.7497
14.0254
14.3621
14.5705
15.0226
15.3709
15.5591
15.9305
16.285
17.4157
17.5373
16.7119
16.7471
17.5343
18.1261
17.9395
17.6758
17.4328
17.2683
16.9859
15.7374
15.0531
15.9064
16.4631
16.3061
16.0678
15.8038
15.5192
15.7286
16.816
17.0964
17.0771
17.3978
18.0885
18.4129
18.5342
18.5755
18.6046
16.6417
2.35544
2.47755
3.10866
3.23157
2.48997
0.517983
-0.388743
-0.196988
-0.887951
-1.24129
-2.01427
-4.24777
-4.07782
-3.31116
0.118959
2.9655
3.78614
4.19344
4.33468
4.23802
3.88376
4.09226
4.01155
3.88151
3.58128
3.10163
3.26097
1.73226
0.81474
1.03481
1.71881
2.50345
1.88565
1.5186
1.42852
1.57555
1.56002
1.11039
0.381336
0.273593
0.581825
0.950474
0.463241
-0.563447
-2.24782
-4.28842
-4.96362
-5.0036
-4.1002
-2.10222
-1.10916
-1.59468
-2.67034
-4.01168
-5.7138
-7.38436
-8.83707
-10.8224
-11.705
-12.7572
-13.8844
-14.6593
-15.5017
-15.9439
-15.8083
-15.2447
-13.8817
-11.3683
-9.69835
-8.55128
-7.23434
-5.68726
-5.09782
-5.62327
-7.30414
-9.35608
-11.9894
-12.8453
-13.7721
-14.7589
-15.6553
-16.3204
-16.8806
-17.5314
-18.0111
-18.5124
-19.0554
-19.513
-19.7882
-19.871
-19.7755
-19.4947
-19.0174
-18.3398
-17.3681
-16.374
-15.3712
-13.9046
-12.0919
-10.9532
-10.1458
-9.34377
-8.56025
-7.79871
-7.06165
-6.33981
-5.62552
-4.92168
-4.25305
-3.67847
-3.30308
-3.81072
-5.47105
-6.28632
-6.06022
-5.89294
-5.75185
-5.60733
-4.15352
-0.947923
-0.240132
0.108989
0.299624
0.45499
-1.64772
-2.30261
-1.47064
0.707926
0.47966
-1.38647
-1.28742
-1.02872
1.47651
3.08726
3.47551
3.55095
4.00912
4.59882
4.67651
4.76589
5.19237
5.73808
7.30385
7.77048
8.46107
9.28699
9.96695
9.2162
8.70782
8.43582
8.77746
8.99964
9.49865
10.6594
10.6026
10.0009
10.0853
11.8157
13.3223
13.5544
13.7857
14.0731
14.3846
14.6758
15.0202
15.4929
16.0749
16.2496
16.0582
16.3126
16.7235
17.7873
17.7195
16.9339
17.2559
18.5283
18.3944
18.1735
17.8838
16.1619
14.7844
14.7176
16.259
16.0807
15.8402
15.5165
15.0504
12.6885
11.3003
11.9117
13.3658
15.2345
15.6811
15.6908
17.1253
18.354
18.5214
18.577
18.5089
16.1332
3.00673
3.03798
3.25163
2.19312
1.89625
1.60251
0.684381
-0.538559
-1.42773
-2.39685
-5.35469
-5.59173
-5.17758
-4.48304
-2.86568
2.08187
3.42872
3.92462
4.13451
4.2154
3.87009
4.00023
3.97201
3.84301
2.5198
-0.00909358
1.54765
2.17622
0.914747
0.995907
3.07201
2.35555
0.777865
-1.06322
-1.26111
1.21057
1.6723
1.66474
1.5952
-0.0690765
-0.94532
-0.10231
0.288953
-3.36616
-5.14902
-5.22729
-4.1503
-0.553917
-0.221206
-0.496683
-0.963998
-1.69853
-2.74528
-5.99926
-8.84096
-9.57784
-10.3454
-11.0644
-10.9429
-10.6855
-11.5505
-12.9037
-13.8879
-14.6928
-16.167
-16.5672
-14.9645
-12.425
-11.0582
-9.51024
-7.47267
-6.40143
-6.65484
-8.34454
-9.23245
-10.156
-9.96047
-11.3684
-13.5831
-14.8382
-15.8177
-17.2486
-17.9345
-18.3766
-18.8285
-19.3216
-19.7688
-19.9804
-18.1136
-17.5228
-19.1066
-19.5951
-18.4447
-15.9886
-14.6521
-14.0822
-13.4184
-12.7108
-11.956
-11.1639
-10.3702
-9.59133
-8.82639
-8.07728
-7.36445
-6.7429
-6.26043
-5.7157
-4.91508
-3.99582
-3.5163
-3.56894
-4.7127
-6.51742
-6.1723
-5.94103
-5.79802
-5.68129
-5.60748
-4.22843
-0.063039
0.262277
0.389963
0.553581
-0.516122
-2.72995
-2.10448
0.645201
0.963775
-0.734289
-1.59072
-1.41653
-0.183933
1.32949
0.620551
1.04945
1.61237
4.22103
4.94526
5.42913
5.86629
6.30911
6.3176
5.5067
8.09408
9.25564
10.2397
11.1674
9.90919
8.52393
8.90282
9.11608
9.098
9.00323
10.2101
11.9625
12.9376
13.3444
13.4445
13.5695
13.731
14.0155
14.3111
14.297
14.4083
15.0962
15.7328
16.4662
17.1778
17.4015
17.0986
17.4057
18.2412
18.0754
17.0863
17.7822
18.9798
18.8579
16.9077
15.2433
14.7158
14.8602
15.9261
15.6484
15.3985
15.0667
12.5712
10.126
10.3409
10.9461
11.7651
13.5819
14.3973
14.5531
15.6426
17.7742
18.4488
18.4979
18.3164
15.4109
2.95687
2.6388
0.515421
0.967347
2.04161
1.0749
-0.221858
-1.5018
-4.18127
-6.11456
-6.09453
-5.88782
-5.44543
-4.83438
-4.24234
0.70003
3.25684
3.77466
4.0268
4.14283
4.172
4.11312
4.01521
3.90946
1.73842
-0.898289
-0.486383
2.22541
2.38002
2.35542
3.18868
0.898682
-3.4213
-3.53873
-3.57559
-2.00688
0.893113
1.33132
0.772181
-1.20112
-1.38538
-1.37396
-0.820099
-4.20959
-5.37365
-4.30519
-0.00988793
-0.104152
-0.347761
-0.667034
-1.137
-1.80545
-2.79994
-6.27863
-8.82684
-9.59632
-10.4355
-8.19133
-8.82367
-10.5827
-12.3329
-13.8753
-15.0017
-15.5439
-15.4924
-15.3931
-14.0606
-12.4994
-11.1416
-9.49279
-8.26865
-7.85317
-9.4128
-9.66497
-10.3108
-9.62193
-10.364
-11.0885
-11.911
-12.7716
-13.545
-14.6137
-15.2809
-15.7579
-16.7927
-17.8333
-17.6773
-16.7451
-16.8449
-16.9285
-16.7476
-16.3738
-15.8602
-15.193
-14.4551
-15.2685
-15.6316
-14.8875
-13.2669
-11.8091
-11.1184
-11.406
-11.5871
-11.2532
-10.7392
-10.3047
-9.87562
-9.19092
-8.41528
-7.39592
-6.74314
-6.91412
-6.96408
-6.53918
-6.16627
-5.94114
-5.81626
-5.70714
-5.68401
-5.56887
-1.91653
0.549073
0.5674
0.642989
0.276346
-2.71643
-2.10716
0.630517
0.964107
0.262506
-1.88791
-1.18504
1.19139
1.8254
1.25252
1.18058
2.45647
3.12736
4.21707
4.98044
5.4441
4.39638
4.2265
4.73633
6.09116
8.90946
10.4164
11.025
9.05804
9.2398
10.2617
9.7615
9.22887
9.03375
8.79794
8.93764
9.76325
10.7907
11.8085
12.2638
12.6326
13.9526
13.9218
11.9508
10.6193
12.4791
15.1035
16.2571
17.058
17.8324
18.5389
17.8679
18.1092
18.8441
18.2069
17.154
18.2749
19.4922
17.9781
15.4989
14.728
13.7375
14.8813
15.4051
15.2181
15.0141
12.6027
9.8615
10.0505
10.6115
11.4319
14.117
14.305
14.2995
14.7569
17.4053
18.3103
18.3479
18.008
14.4501
0.274587
-1.97751
-0.145854
1.56762
1.1685
-0.016763
-2.77697
-6.08177
-6.25704
-6.21531
-6.06059
-5.40428
-3.19886
-1.23793
-4.32825
-1.59662
3.25841
3.75952
4.0241
4.15508
4.21782
4.20775
4.15407
4.09011
2.08207
-1.1473
-1.24413
1.82967
3.74409
3.79782
3.54833
-1.09835
-3.35807
-3.51156
-3.63661
-3.8358
-4.01577
-3.25637
-1.00034
-0.138954
-1.50899
-0.333328
1.23142
-3.66773
-5.64188
-3.36087
0.182383
-0.138912
-0.440389
-0.833184
-1.62431
-2.30752
-2.68262
-3.34124
-5.90993
-8.00604
-7.16588
-7.64789
-9.45271
-12.0454
-13.9956
-15.0888
-16.0248
-16.8102
-16.8212
-16.1055
-14.8305
-13.4111
-11.8484
-10.4002
-9.55427
-11.148
-10.8471
-11.0153
-10.2178
-10.6497
-11.3561
-12.088
-12.8506
-14.4568
-16.296
-14.9175
-15.2876
-15.7135
-16.2024
-16.7161
-17.204
-17.5388
-17.6817
-20.0723
-21.3083
-20.8786
-20.245
-17.1421
-14.7901
-16.1029
-17.1249
-16.5096
-15.8578
-15.4568
-14.8831
-14.1891
-13.405
-12.6017
-11.7901
-10.9767
-10.1726
-9.37671
-8.68
-8.05541
-7.61116
-7.19834
-6.73852
-6.33365
-6.05368
-5.89445
-5.50912
-5.36919
-5.65963
-5.73444
-3.69153
0.913781
0.816111
0.760399
0.911193
0.789187
0.459698
-0.00871668
0.839509
1.18442
0.518511
-0.89308
-0.225624
1.83029
2.68837
3.0743
3.50783
3.98203
4.43792
4.4943
3.51379
3.63622
4.21671
4.69647
5.2716
5.98806
9.25777
10.777
8.849
9.60385
11.311
12.0602
11.75
11.0401
11.394
11.5653
11.4602
10.7754
10.7669
10.8251
10.9242
12.0861
12.2087
10.4493
10.077
10.1229
10.7555
15.724
17.0437
17.8266
18.6347
19.2601
18.3479
18.5304
19.6037
18.2932
17.2123
18.6615
19.3991
17.7696
14.8138
13.7859
12.8782
12.9895
15.383
14.6375
14.6121
12.9402
11.4535
10.7631
11.6697
16.4558
17.2732
14.4642
14.2124
17.5866
18.2433
18.2893
17.7677
13.9493
-1.17519
-2.40094
0.601631
1.00649
-1.01667
-5.0299
-5.94755
-6.17645
-6.26821
-6.13025
-5.68367
-2.18867
-0.244371
0.177985
-1.37368
-1.72123
1.79148
3.84589
4.11296
4.24918
4.33611
4.37305
4.37228
4.34275
1.63996
-1.30937
-1.32713
-0.716867
3.09121
4.22508
4.08253
-0.391354
-3.3037
-3.5244
-1.78956
0.206392
1.64192
2.32217
2.01632
1.76657
0.434782
-0.472079
2.13254
-0.699238
-4.34093
-2.05813
0.358892
-0.0785685
-0.445185
-0.852515
-3.15492
-3.92167
-3.21016
-3.02901
-3.70757
-4.57083
-5.73239
-8.33552
-10.9289
-12.8014
-14.5863
-14.846
-16.4674
-17.5617
-17.826
-17.2781
-16.125
-14.6382
-13.0181
-11.7769
-13.2165
-12.6345
-12.3354
-11.5669
-11.2163
-11.7577
-12.3878
-13.0807
-16.4514
-18.5739
-19.0073
-18.9357
-16.5678
-16.7157
-17.2236
-17.7473
-20.2792
-22.3231
-22.7044
-22.7589
-22.4762
-21.9295
-18.4507
-16.1696
-15.1425
-14.1294
-14.8424
-13.562
-12.0881
-11.1115
-10.241
-10.332
-10.8373
-11.3165
-11.4871
-10.9746
-10.2234
-8.63137
-5.76719
-4.16578
-3.98473
-4.63567
-5.718
-6.17809
-5.94848
-5.70726
-5.32264
-5.34609
-5.51055
-5.90654
-5.34773
-0.168377
1.10574
0.921992
0.860744
0.947219
-0.927407
-2.54736
-0.464415
0.954358
1.35787
1.74447
-0.809304
-1.81737
-0.936229
-0.141337
1.06465
2.26517
2.14752
2.46299
4.41597
5.24467
5.83968
6.31956
5.70567
5.97634
7.41341
9.15928
10.878
9.94956
10.4497
10.7298
11.4277
14.1281
13.9264
13.7502
13.6647
13.673
13.9909
13.5278
11.5948
13.4603
14.9186
15.0394
11.2866
10.4086
10.4452
11.7985
16.9781
17.9172
18.6756
19.3141
19.4784
18.5601
18.9611
19.5297
18.0335
17.0118
18.5633
19.2299
17.6833
15.2554
13.8775
15.7239
14.6397
11.8631
11.8771
13.288
15.2448
12.496
12.0173
15.7483
17.6645
14.4217
13.8929
14.9478
17.414
18.1495
15.6953
14.8518
-3.27022
-2.0551
-2.71864
-3.81137
-4.94953
-5.47431
-5.82582
-6.03692
-6.20046
-5.23276
-5.50607
-6.66778
-4.97751
-0.339648
2.39186
-1.78421
-1.23999
3.29457
4.27893
4.4039
4.50235
4.58611
4.65039
1.97778
-1.41056
-1.33782
-1.30737
-0.942638
2.51045
3.24868
4.61053
1.62166
-3.414
0.559452
3.35078
3.02703
2.7228
2.40356
2.07448
1.06367
-1.16062
-0.0396308
2.45361
2.28592
1.64545
1.04886
0.552716
0.0404497
-0.351554
-0.638629
-2.3375
-3.82946
-4.39726
-3.22473
-3.32512
-4.23181
-6.26871
-8.93505
-10.4496
-11.7109
-11.9998
-14.2576
-16.213
-17.5708
-18.1271
-17.8499
-16.8903
-15.498
-13.9768
-14.1378
-14.8419
-14.1553
-13.3976
-12.2434
-12.5211
-12.9174
-13.4308
-14.0374
-17.2478
-19.6341
-20.066
-20.5569
-21.0098
-19.5485
-20.0904
-22.872
-24.2427
-24.2776
-24.1313
-23.9301
-23.187
-19.2674
-17.473
-16.5451
-15.4812
-14.3918
-13.3758
-12.5054
-11.6954
-10.8889
-10.0371
-9.10189
-8.09364
-7.03999
-6.30253
-5.92936
-5.37693
-5.17534
-4.40613
-3.59382
-2.82802
-2.14833
-1.75573
-4.42895
-5.58643
-5.6126
-5.23081
-5.27282
-5.40818
-6.04994
-6.35797
-4.11337
0.909733
1.17554
1.02779
-2.1494
-3.19461
-2.94252
-2.73352
-2.42735
-1.79078
1.3884
-1.28068
-2.04744
-1.67807
-1.32565
-0.979954
-0.606097
-0.190464
0.243094
0.683685
3.17334
3.99499
4.81222
6.46114
7.31976
7.30525
8.44519
11.5501
11.2378
10.5841
10.8913
10.8732
11.5293
11.3663
10.6656
11.7539
14.3963
14.5333
14.635
14.8528
15.0988
15.425
15.8168
16.1842
13.2988
10.5703
10.8421
15.9518
18.1916
18.7655
18.5484
19.0569
19.1742
18.8495
19.5339
19.7371
16.8778
16.4958
17.4048
18.7781
18.3705
17.9566
17.7166
17.2155
13.0763
12.6909
13.922
17.837
15.5418
12.2877
14.008
17.997
17.1395
13.8177
13.2503
13.248
13.9007
13.0786
13.7037
-3.7417
-2.50431
-4.26666
-4.45494
-4.87267
-5.27369
-5.56476
-5.77405
-5.08931
-5.64023
-6.88684
-7.14319
-7.06654
-1.51629
2.50711
-0.462728
-1.05112
3.43355
4.4973
4.58618
4.66908
4.77804
3.84222
1.88827
-0.237453
-1.30929
-1.28817
-0.729539
3.86466
3.06634
4.93912
3.11419
-3.262
1.93749
3.3942
3.02731
2.70937
2.39603
1.9301
-1.1331
-1.25287
-1.45764
1.71664
2.45588
2.04657
1.40477
0.748977
0.236846
-0.139778
-0.422291
-0.726155
-2.83548
-4.08481
-4.64219
-2.73422
-3.61431
-6.6303
-8.24349
-9.30475
-8.70912
-10.8228
-13.0353
-15.0571
-16.5951
-17.42
-17.445
-16.767
-15.6527
-14.5605
-16.5601
-16.1696
-15.6567
-13.6766
-13.6967
-13.8408
-14.0855
-14.4811
-14.9922
-15.4352
-16.612
-19.2058
-19.6781
-19.6058
-20.3362
-23.0173
-25.3515
-25.47
-24.8185
-24.6487
-24.6827
-22.5347
-18.852
-17.8359
-17.1345
-16.2517
-15.047
-13.9911
-13.2913
-12.5535
-11.5881
-10.4986
-9.44485
-8.45833
-7.37409
-6.22192
-5.07079
-3.9744
-3.02713
-4.30748
-4.85387
-3.54163
-2.60768
-1.68157
-1.25188
-1.87486
-4.08475
-5.1601
-5.36226
-5.37365
-5.86036
-6.58772
-7.06235
-7.00657
-2.08539
0.975944
0.36501
-2.85405
-3.37099
-2.66436
-0.0561933
0.376001
0.528498
1.30107
1.84661
1.68918
2.35044
3.88854
4.48207
3.52163
2.04233
0.62735
0.47247
0.928328
1.45199
2.456
5.17642
5.36883
8.22424
13.0967
13.7342
11.4917
11.1445
11.9661
11.7657
11.0331
10.909
10.8358
10.7629
10.7539
11.2858
14.8078
15.5624
15.9047
16.2704
16.582
16.8272
11.3976
10.8861
14.9889
18.6071
18.9815
15.4404
14.4349
17.8324
18.9384
19.465
19.69
19.6423
16.3392
15.9843
15.7332
16.0605
17.9118
18.1701
18.1498
16.7193
16.5525
19.013
19.7146
20.0326
13.9582
12.9595
18.1936
18.0116
15.752
13.1913
13.0236
13.0639
14.0209
12.0128
-3.49046
-3.86959
-4.07646
-4.33374
-4.73129
-5.05499
-5.3173
-3.74444
-1.0897
-5.32365
-6.83811
-7.19414
-7.22666
-2.64429
2.8491
3.48388
3.32942
4.41658
4.72025
4.74743
4.76096
4.80598
3.71972
3.80273
4.19871
2.54063
-1.37334
-0.471683
4.14706
3.28951
4.09641
3.6293
-0.759605
-1.24666
3.33079
3.01542
2.56468
2.28438
2.12926
1.91225
-1.06956
-1.41124
-1.63962
-1.04288
1.84463
1.2003
0.170168
0.0638616
-0.995741
-1.49809
-0.328143
-0.605004
-3.50348
-4.18489
-3.65594
-2.81813
-5.57526
-7.32305
-7.47082
-7.23803
-9.10304
-11.0876
-12.974
-14.5285
-15.5145
-15.8125
-15.5176
-14.939
-14.4304
-16.5421
-17.5098
-15.6268
-15.1801
-15.0924
-15.0715
-15.1525
-15.7431
-19.9379
-20.9873
-19.6824
-19.7049
-20.0701
-20.5352
-21.3299
-25.6506
-26.7498
-23.3525
-23.466
-23.3154
-22.9677
-23.8328
-24.9347
-24.5448
-23.9566
-23.1776
-21.9792
-20.9315
-20.3499
-19.6443
-18.6608
-17.2542
-15.1155
-11.9419
-9.11801
-6.74919
-5.14421
-3.94519
-2.86671
-4.54385
-4.84038
-5.59933
-5.067
-4.53042
-3.35628
-1.40517
-1.09885
-3.69664
-5.45631
-5.70606
-6.12577
-6.76354
-7.34833
-7.8659
-8.19674
-8.09428
-7.8657
-4.14282
1.10948
1.28538
1.36699
1.84988
2.52807
3.3208
4.01323
4.55781
4.95137
5.30058
5.7161
6.21524
6.7574
6.60638
4.1314
2.10795
1.20442
1.91657
2.7818
3.79726
5.62384
13.2408
15.2791
16.416
13.8214
11.9792
11.5592
11.2206
14.4283
16.6477
14.9289
11.2044
11.2356
11.3679
11.5752
14.9922
16.7858
17.0433
17.2155
13.987
10.8191
14.3492
18.9935
19.2648
15.8574
11.5353
12.4988
17.7948
18.1262
19.3143
20.6057
20.0472
16.0652
15.1207
14.6134
14.1641
14.0672
15.5831
18.7522
19.3197
19.6755
20.1145
20.5713
17.854
12.1678
17.7207
17.8017
17.6877
16.2549
12.8544
13.0273
19.3454
11.9014
-3.34936
-3.58919
-3.96988
-4.24809
-4.63108
-4.91378
-5.17213
-0.90675
0.318525
-0.470561
-6.02185
-7.04843
-7.16832
-5.65175
3.35179
4.25775
4.76792
4.94009
4.94147
4.88186
3.65894
1.44566
1.04134
3.34315
4.13575
4.52114
0.253584
-0.595978
4.18
3.8682
3.41276
3.73696
4.90679
-1.05126
-0.954931
0.853812
-1.46349
0.144153
2.07072
2.07168
2.14192
1.97706
-1.00618
-1.95487
-2.54789
-3.14455
-3.7114
-3.45465
-3.82788
-1.9544
0.101546
-0.162355
-1.16522
-3.74569
-4.11576
-2.01265
-3.8083
-6.30141
-6.82744
-5.53776
-7.02214
-8.61906
-10.2005
-11.5891
-12.5956
-13.1293
-13.3612
-13.6643
-15.3055
-17.8576
-17.072
-16.8109
-16.6359
-16.4146
-16.1906
-16.064
-20.1727
-25.7872
-26.2602
-25.5412
-24.6527
-25.3677
-25.8451
-27.7272
-29.0866
-29.4797
-29.4451
-29.5995
-29.5227
-29.1596
-28.4544
-27.5636
-26.5718
-25.4501
-24.2897
-23.2216
-22.232
-21.3263
-20.5436
-19.8795
-19.2866
-18.6784
-17.9072
-16.3473
-13.3787
-9.40915
-5.53335
-3.12987
-1.96937
-0.879179
-0.992372
-3.0434
-4.70588
-4.26467
-3.76199
-0.972587
-0.727561
-2.77542
-5.72585
-6.21403
-6.92106
-7.61365
-8.17904
-8.24939
-8.10139
-8.25283
-8.44891
-8.60288
-8.79215
-5.64356
-0.105012
2.12167
3.03153
3.83642
4.44387
4.83483
5.10133
5.49708
5.98933
6.49682
6.94998
7.38421
7.88391
7.32434
5.87051
6.23131
7.43119
10.3917
13.9735
15.2644
16.404
17.1913
13.1717
11.7556
11.4234
15.3588
17.2601
17.3451
17.2439
14.2078
14.5202
15.9359
14.1081
13.99
17.0603
17.6042
13.5703
10.7721
12.9812
18.9482
19.4728
19.4317
11.1744
10.6016
12.1787
16.1935
18.3603
20.8054
20.924
20.5894
18.8391
14.7838
14.5065
14.2735
14.1183
14.0672
16.1508
20.0129
20.55
20.7003
14.7811
11.0351
15.7074
17.1904
17.0145
16.9802
13.279
15.4546
19.4451
11.6068
-1.12953
0.0212926
-3.76189
-4.24144
-4.57101
-4.85667
-5.171
-0.695924
0.797542
0.564805
-0.978547
-6.68971
-6.83464
-6.84814
-0.827183
5.05374
5.36926
5.36074
5.26095
2.51624
-4.2577
-6.27332
-6.26926
-0.271439
4.23353
4.70401
-0.11716
-0.697786
4.54858
6.21259
3.50021
4.52046
5.78633
4.41153
-0.217366
-4.449
-5.15496
-5.65219
-3.80831
1.39316
2.09867
2.19046
2.32686
2.28284
-0.337432
-2.79454
-3.3446
-3.84017
-3.84926
-1.80786
-4.01752
-1.12196
-0.704566
-3.04934
-3.55832
-2.68432
-1.62367
-5.31975
-6.12682
-4.98001
-5.76161
-9.04346
-9.43881
-8.36693
-9.26658
-10.0612
-12.844
-19.1042
-23.3722
-20.4469
-17.8246
-18.066
-17.9497
-17.643
-17.2108
-16.8042
-20.1831
-26.8468
-27.1388
-27.5481
-28.0404
-28.5439
-29.0693
-29.5958
-30.1323
-30.7002
-31.181
-31.364
-31.1023
-29.3796
-27.4364
-25.1128
-22.963
-22.136
-23.4123
-23.2348
-22.3188
-21.4593
-20.7011
-20.0694
-19.541
-19.024
-18.2872
-16.1376
-14.1736
-12.7731
-11.4256
-8.61391
-3.72377
-0.695133
0.390661
1.37
0.964352
-3.06875
-4.02972
-3.76081
-1.88987
-0.776188
-0.927821
-5.09235
-7.16258
-7.86214
-7.2508
-3.4564
-0.0689568
0.0299115
-0.0198981
-0.788376
-6.55437
-7.47381
-7.44897
-1.00501
2.96337
3.78787
3.35354
0.210574
-1.51857
-0.986636
0.561799
1.88461
2.34759
3.42034
5.76875
8.05901
9.10034
10.1013
11.2666
12.5585
13.8812
15.1968
16.34
17.1831
14.4248
11.8902
13.1444
17.3084
17.6146
17.6813
17.8198
18.0022
18.1784
18.3641
16.999
14.1027
14.733
17.1163
12.3475
10.6985
11.3867
18.5309
19.5672
19.8653
13.0138
10.1363
10.3021
11.8739
17.1376
21.0106
21.1514
21.1555
21.0874
20.0357
19.3618
16.7131
14.6625
14.5847
14.5971
19.4236
21.1211
19.8449
12.4462
10.1861
13.135
10.8273
9.65634
12.013
18.9494
19.9325
19.4702
11.2103
2.43905
4.23205
-3.43692
-4.29501
-3.69184
-4.85355
-5.25242
-4.13845
0.969296
1.20809
0.989276
-4.83291
-6.2321
-6.18885
-6.06323
0.50725
4.37951
5.07763
2.80907
-5.01748
-6.30393
-6.36627
-6.33976
-1.44345
4.57991
2.44723
-0.199302
0.805628
6.29983
6.49248
5.43346
6.23841
5.93601
5.56549
1.71234
-4.6066
-5.10041
-5.59869
-6.02379
-6.34908
-1.89551
1.40749
2.46833
2.59567
2.38132
0.900545
-2.47439
-1.7759
-2.24307
-5.45103
-11.8318
-8.50861
-0.649985
-1.05879
-3.08321
-2.45663
-0.449876
-2.36416
-4.37751
-5.89227
-11.4124
-16.2024
-16.4278
-11.8723
-10.6256
-14.6344
-20.1461
-23.0594
-25.1339
-25.7447
-20.7298
-19.5995
-19.2587
-18.5276
-18.0231
-18.3143
-24.2461
-27.7654
-27.3209
-25.1372
-25.3499
-25.5511
-28.8377
-30.0828
-30.7248
-31.3678
-31.9139
-32.1287
-27.3742
-22.6202
-20.2697
-19.0632
-17.5712
-15.8994
-16.2524
-22.0897
-22.4502
-21.6277
-20.8966
-20.2984
-19.835
-19.4265
-16.8882
-8.36664
-4.95843
-5.95626
-9.47095
-9.54552
-8.66018
-6.61616
-1.0583
1.41436
2.33267
3.07298
0.593535
-3.83349
-3.73044
-2.04685
-3.40276
-6.76266
-7.44903
-8.28185
-4.95563
0.600823
0.197875
-0.0608342
-0.230892
-0.313572
-0.293869
-1.40534
-2.38462
1.41593
2.90764
2.65579
-3.53465
-5.38956
-4.94968
-4.57416
-4.2385
-3.89419
-3.58145
-3.33492
-3.12722
-1.27935
3.15723
7.242
10.3703
12.0655
13.6309
15.0698
16.2576
17.1279
16.9534
13.5604
15.8299
17.9609
17.8893
17.9605
18.0874
18.2578
18.4414
18.6172
18.8276
17.7574
10.6481
8.87322
10.4108
10.5
12.6909
19.1081
19.5988
19.8919
13.6353
9.67703
9.92301
10.0921
14.0388
19.1295
21.3994
21.4215
21.4111
21.4379
21.4696
21.507
20.526
15.3648
15.9861
21.0678
21.7315
20.5852
12.9129
9.38612
9.52654
8.27663
7.92409
8.15368
15.5629
20.0552
19.2694
10.8755
-0.0447416
4.30184
-3.68966
0.351644
5.12841
-4.35141
-5.32054
-5.63802
-1.34403
1.82072
0.0700321
-3.14112
-2.35262
-3.28177
-5.41961
-5.45585
-4.11582
-3.77827
-5.52335
-6.13839
-6.10039
-6.10783
-5.56804
0.825103
3.85499
1.4146
1.15332
6.15636
6.71777
6.69735
6.62286
6.45298
6.17164
4.77392
-1.51924
-4.53592
-4.92958
-5.40144
-5.83057
-6.18218
-6.45604
-6.61342
-8.14119e-05
3.03501
2.80948
2.49801
0.641851
-3.41572
-4.06809
-9.36014
-12.5281
-12.3381
-3.20585
-0.673735
-1.35116
-1.30736
0.293695
-0.0500511
-1.82343
-4.302
-12.7965
-15.9606
-16.5964
-17.2906
-17.844
-19.2036
-20.5494
-22.2186
-24.52
-26.9725
-28.0583
-28.2303
-28.3199
-27.1094
-26.0636
-27.0007
-28.9339
-28.7247
-28.6855
-27.406
-26.418
-24.2744
-24.5749
-26.7015
-30.7825
-31.833
-32.4242
-30.8575
-22.2474
-21.3762
-20.4951
-19.2415
-17.6493
-15.8672
-14.1928
-20.7365
-22.6747
-21.8536
-21.1412
-20.5729
-20.1649
-19.8524
-14.5491
-5.74324
-4.32066
-2.91048
-1.79083
-5.74094
-8.79462
-8.0527
-7.24093
-4.62446
1.51257
3.0068
3.63586
3.39897
-3.06991
-3.42248
-2.42657
-2.46094
-4.9757
-7.73397
-8.4172
-5.53236
-5.40019
-7.23162
-7.72064
-7.78369
-6.44918
-1.83701
-1.6716
-1.54669
-2.80964
-6.81136
-6.25924
-5.58416
-5.07724
-4.714
-4.30425
-4.01611
-3.78207
-3.61934
-3.4987
-3.32719
-3.00358
-2.43744
1.48652
9.98938
13.3359
14.9082
16.1286
16.9954
17.5371
17.7788
16.4277
16.359
17.8669
18.1824
18.334
18.5063
18.6809
18.8119
18.9202
18.5265
9.27724
7.61094
8.81546
14.421
18.921
19.5262
19.496
19.8239
14.0017
9.16248
9.51626
9.74127
10.3519
16.8985
19.2261
19.8513
21.6624
21.7743
21.8363
21.9088
21.946
21.6951
22.1268
22.1795
22.264
21.3618
13.1726
8.405
8.08166
7.93295
7.91652
8.03686
10.2622
20.3604
19.2929
10.7552
-1.71986
4.05954
-4.00663
4.64509
7.22033
3.98879
-5.50183
-4.23027
2.02621
2.29979
-0.245768
2.11034
7.18526
6.95089
1.28351
-3.52957
-5.01013
-5.67711
-5.87444
-5.8704
-5.81815
-5.79206
-5.38128
-1.14097
0.319831
3.36339
6.89994
6.8723
6.85235
6.83892
6.72429
6.54965
6.33083
6.15518