/*--------------------------------*- C++ -*----------------------------------*\
| =========                 |                                                 |
| \\      /  F ield         | OpenFOAM: The Open Source CFD Toolbox           |
|  \\    /   O peration     | Version:  2412                                  |
|   \\  /    A nd           | Website:  www.openfoam.com                      |
|    \\/     M anipulation  |                                                 |
\*---------------------------------------------------------------------------*/
FoamFile
{
    version     2.0;
    format      ascii;
    arch        "LSB;label=32;scalar=64";
    class       surfaceScalarField;
    location    "4";
    object      phi;
}
// * * * * * * * * * * * * * * * * * * * * * * * * * * * * * * * * * * * * * //

dimensions      [0 3 -1 0 0 0 0];

oriented        oriented;

internalField   nonuniform List<scalar> 
79600
(
-1.95627e-09
1.95568e-09
-5.65161e-09
3.69534e-09
-1.11009e-08
5.44927e-09
-1.89789e-08
7.878e-09
-2.95534e-08
1.05745e-08
-4.05926e-08
1.10392e-08
-4.70055e-08
6.41287e-09
-4.43849e-08
-2.62054e-09
-3.20983e-08
-1.22866e-08
-1.04531e-08
-2.16451e-08
1.39311e-08
-2.43842e-08
3.17443e-08
-1.78132e-08
3.61635e-08
-4.41914e-09
2.8818e-08
7.34547e-09
1.86965e-08
1.01215e-08
1.23375e-08
6.35895e-09
1.01233e-08
2.21424e-09
9.94838e-09
1.74907e-10
9.4534e-09
4.94984e-10
8.23687e-09
1.21653e-09
5.25573e-09
2.98114e-09
-9.95964e-10
6.2517e-09
-5.77948e-09
4.78352e-09
-7.04656e-09
1.26708e-09
-4.12494e-09
-2.92162e-09
1.11009e-09
-5.23503e-09
6.80428e-09
-5.6942e-09
1.21403e-08
-5.33601e-09
1.45021e-08
-2.3618e-09
1.56689e-08
-1.16684e-09
1.90479e-08
-3.37897e-09
2.30361e-08
-3.9882e-09
2.55344e-08
-2.49836e-09
2.68391e-08
-1.30462e-09
2.78198e-08
-9.80742e-10
2.93291e-08
-1.50933e-09
3.14218e-08
-2.09261e-09
3.33878e-08
-1.96608e-09
3.50166e-08
-1.62877e-09
3.68142e-08
-1.79756e-09
3.93342e-08
-2.52008e-09
4.3091e-08
-3.75677e-09
4.76674e-08
-4.5764e-09
5.27411e-08
-5.0737e-09
5.77582e-08
-5.01704e-09
6.2361e-08
-4.6028e-09
6.64922e-08
-4.13123e-09
7.00052e-08
-3.51302e-09
7.2529e-08
-2.52374e-09
7.38815e-08
-1.35251e-09
7.45961e-08
-7.14626e-10
7.56086e-08
-1.01249e-09
7.73881e-08
-1.77949e-09
7.97488e-08
-2.36074e-09
8.20565e-08
-2.30772e-09
8.33014e-08
-1.24485e-09
8.40519e-08
-7.50506e-10
8.55391e-08
-1.48722e-09
8.70166e-08
-1.47746e-09
8.75017e-08
-4.85156e-10
8.64266e-08
1.07513e-09
8.31621e-08
3.26457e-09
7.70248e-08
6.13728e-09
6.77537e-08
9.27111e-09
5.58499e-08
1.19038e-08
4.24843e-08
1.33656e-08
2.93444e-08
1.31399e-08
1.71965e-08
1.21479e-08
6.75261e-09
1.04439e-08
-9.60869e-10
7.71346e-09
-5.29808e-09
4.3372e-09
-5.83695e-09
5.38853e-10
-2.77403e-09
-3.06292e-09
3.53031e-09
-6.30436e-09
1.23497e-08
-8.81945e-09
2.07992e-08
-8.44942e-09
2.61812e-08
-5.38202e-09
2.54801e-08
7.01102e-10
1.94903e-08
5.98983e-09
8.88309e-09
1.06072e-08
-4.72448e-09
1.36076e-08
-1.83362e-08
1.36117e-08
-3.12698e-08
1.29336e-08
-4.31169e-08
1.18471e-08
-5.3756e-08
1.0639e-08
-6.32873e-08
9.53132e-09
-7.16861e-08
8.39874e-09
-7.89764e-08
7.29035e-09
-8.53842e-08
6.40773e-09
-9.1112e-08
5.72777e-09
-9.6318e-08
5.20604e-09
-1.01324e-07
5.00608e-09
-1.06875e-07
5.55045e-09
-1.13227e-07
6.35249e-09
-1.20513e-07
7.28589e-09
-1.28101e-07
7.58775e-09
-1.3414e-07
6.03938e-09
-1.37186e-07
3.04564e-09
-1.36711e-07
-4.74723e-10
-1.34081e-07
-2.63016e-09
-1.31039e-07
-3.04225e-09
-1.28699e-07
-2.34005e-09
-1.26974e-07
-1.72479e-09
-1.24769e-07
-2.20444e-09
-1.20531e-07
-4.23873e-09
-1.13825e-07
-6.70611e-09
-1.05562e-07
-8.26228e-09
-9.6889e-08
-8.6732e-09
-8.86751e-08
-8.21391e-09
-8.19947e-08
-6.68044e-09
-7.79658e-08
-4.02884e-09
-7.58204e-08
-2.1454e-09
-7.31621e-08
-2.65835e-09
-6.92137e-08
-3.94836e-09
-6.59667e-08
-3.24705e-09
-6.44225e-08
-1.54418e-09
-6.32342e-08
-1.18827e-09
-6.18745e-08
-1.35976e-09
-5.98098e-08
-2.06461e-09
-5.63046e-08
-3.50529e-09
-5.23998e-08
-3.90475e-09
-4.92778e-08
-3.12197e-09
-4.70945e-08
-2.18334e-09
-4.55837e-08
-1.51076e-09
-4.45008e-08
-1.08298e-09
-4.37262e-08
-7.74573e-10
-4.28924e-08
-8.33755e-10
-4.14293e-08
-1.4632e-09
-4.0115e-08
-1.31422e-09
-4.08536e-08
7.38519e-10
-4.40782e-08
3.22462e-09
-4.75512e-08
3.47295e-09
-4.80463e-08
4.95159e-10
-4.55241e-08
-2.52222e-09
-4.27962e-08
-2.7279e-09
-4.3254e-08
4.57815e-10
-4.72903e-08
4.03624e-09
-5.06344e-08
3.34409e-09
-4.90322e-08
-1.60216e-09
-4.37136e-08
-5.31861e-09
-3.69089e-08
-6.80467e-09
-3.27878e-08
-4.12113e-09
-3.42736e-08
1.48578e-09
-3.82559e-08
3.98233e-09
-3.86628e-08
4.06881e-10
-3.38711e-08
-4.79166e-09
-2.66159e-08
-7.25523e-09
-2.08797e-08
-5.73621e-09
-1.79313e-08
-2.94839e-09
-1.70214e-08
-9.09922e-10
-1.56334e-08
-1.38793e-09
-1.30123e-08
-2.62114e-09
-1.27848e-08
-2.27513e-10
-1.70348e-08
4.25e-09
-2.48508e-08
7.81598e-09
-3.46359e-08
9.78517e-09
-4.46732e-08
1.00373e-08
-5.40629e-08
9.38979e-09
-6.17372e-08
7.67428e-09
-6.63094e-08
4.57214e-09
-6.85904e-08
2.28101e-09
-6.95987e-08
1.00835e-09
-6.96688e-08
7.01123e-11
-6.84517e-08
-1.21709e-09
-6.50425e-08
-3.40925e-09
-5.96028e-08
-5.43964e-09
-5.27222e-08
-6.88064e-09
-4.45049e-08
-8.21726e-09
-3.47285e-08
-9.77647e-09
-2.32395e-08
-1.14889e-08
-1.09491e-08
-1.22904e-08
-2.14615e-10
-1.07345e-08
7.43884e-09
-7.65345e-09
1.19729e-08
-4.53406e-09
1.50522e-08
-3.07932e-09
1.70081e-08
-1.95585e-09
1.75757e-08
-5.67603e-10
1.67155e-08
8.60182e-10
1.4815e-08
1.9005e-09
1.23281e-08
2.48688e-09
9.43608e-09
2.89205e-09
6.34144e-09
3.09465e-09
2.70152e-09
3.63993e-09
-3.6785e-09
6.38003e-09
-1.38958e-08
1.02174e-08
-2.7323e-08
1.34271e-08
-3.83867e-08
1.10638e-08
-4.31472e-08
4.76052e-09
-3.99737e-08
-3.17356e-09
-3.11572e-08
-8.81646e-09
-2.23274e-08
-8.82979e-09
-1.71805e-08
-5.14697e-09
-1.71664e-08
-1.40887e-11
-1.92095e-08
2.0431e-09
-2.04791e-08
1.26966e-09
-1.75661e-08
-2.913e-09
-9.58637e-09
-7.97976e-09
-2.32559e-09
-7.26078e-09
-1.55936e-09
-7.66237e-10
-1.55937e-09
-5.66766e-09
7.62334e-09
-1.27192e-08
1.07469e-08
-1.94132e-08
1.21433e-08
-2.50599e-08
1.35246e-08
-2.93153e-08
1.483e-08
-3.19772e-08
1.37011e-08
-3.0634e-08
5.06965e-09
-2.36961e-08
-9.55836e-09
-9.34439e-09
-2.66384e-08
1.0359e-08
-4.13485e-08
3.18296e-08
-4.58548e-08
4.88334e-08
-3.4817e-08
5.79048e-08
-1.34905e-08
5.60885e-08
9.16174e-09
4.48658e-08
2.13443e-08
3.15612e-08
1.96636e-08
2.14882e-08
1.22872e-08
1.52918e-08
6.37131e-09
1.02537e-08
5.53309e-09
4.35265e-09
7.11764e-09
-2.85392e-09
1.01877e-08
-9.14358e-09
1.25414e-08
-1.13785e-08
7.01844e-09
-9.4686e-09
-6.42817e-10
-4.44442e-09
-7.94581e-09
3.05893e-09
-1.27384e-08
1.18959e-08
-1.45312e-08
1.94983e-08
-1.29384e-08
2.16243e-08
-4.48776e-09
1.8963e-08
1.49438e-09
1.84857e-08
-2.90168e-09
2.07692e-08
-6.2717e-09
2.45211e-08
-6.2502e-09
2.93348e-08
-6.11833e-09
3.39473e-08
-5.59321e-09
3.83297e-08
-5.89177e-09
4.26077e-08
-6.37057e-09
4.63486e-08
-5.70697e-09
4.91984e-08
-4.47861e-09
5.15234e-08
-4.12253e-09
5.39166e-08
-4.91331e-09
5.66155e-08
-6.45561e-09
6.00331e-08
-7.994e-09
6.42497e-08
-9.29029e-09
6.86876e-08
-9.45501e-09
7.31463e-08
-9.06144e-09
7.77447e-08
-8.72961e-09
8.24142e-08
-8.18255e-09
8.65206e-08
-6.63015e-09
8.94116e-08
-4.24349e-09
9.20201e-08
-3.32314e-09
9.53526e-08
-4.34502e-09
9.95127e-08
-5.9396e-09
1.04055e-07
-6.90283e-09
1.0833e-07
-6.58247e-09
1.11168e-07
-4.08371e-09
1.13215e-07
-2.79702e-09
1.15104e-07
-3.37582e-09
1.16554e-07
-2.92754e-09
1.1745e-07
-1.38132e-09
1.182e-07
3.25049e-10
1.18408e-07
3.05661e-09
1.16999e-07
7.54603e-09
1.12766e-07
1.35039e-08
1.049e-07
1.97698e-08
9.37654e-08
2.45005e-08
8.06678e-08
2.62375e-08
6.67815e-08
2.60342e-08
5.25987e-08
2.46266e-08
3.91941e-08
2.11181e-08
2.84992e-08
1.5032e-08
2.15907e-08
7.44734e-09
1.83583e-08
1.69517e-10
1.95297e-08
-7.47579e-09
2.22472e-08
-1.15369e-08
1.80921e-08
-4.29433e-09
5.17988e-09
7.5302e-09
-1.49202e-08
2.08012e-08
-3.86283e-08
2.96979e-08
-6.19188e-08
3.38977e-08
-8.18731e-08
3.35619e-08
-9.76639e-08
2.94026e-08
-1.09295e-07
2.4565e-08
-1.18637e-07
2.11884e-08
-1.28576e-07
2.05789e-08
-1.40386e-07
2.13406e-08
-1.52707e-07
2.07202e-08
-1.6346e-07
1.80428e-08
-1.72094e-07
1.50421e-08
-1.78932e-07
1.25652e-08
-1.84091e-07
1.03655e-08
-1.87552e-07
8.46691e-09
-1.89387e-07
7.38529e-09
-1.89715e-07
6.68104e-09
-1.88734e-07
6.30425e-09
-1.8636e-07
5.21398e-09
-1.82087e-07
1.76672e-09
-1.76229e-07
-2.81257e-09
-1.70085e-07
-6.61861e-09
-1.64298e-07
-8.41737e-09
-1.58994e-07
-8.34608e-09
-1.53816e-07
-7.5186e-09
-1.48245e-07
-7.29503e-09
-1.41776e-07
-8.67416e-09
-1.34229e-07
-1.17855e-08
-1.25826e-07
-1.51085e-08
-1.17286e-07
-1.6803e-08
-1.09433e-07
-1.65259e-08
-1.02731e-07
-1.49158e-08
-9.75152e-08
-1.18963e-08
-9.40276e-08
-7.51642e-09
-9.15845e-08
-4.58853e-09
-8.83272e-08
-5.91559e-09
-8.4096e-08
-8.17963e-09
-8.00352e-08
-7.30784e-09
-7.63957e-08
-5.18364e-09
-7.21168e-08
-5.46715e-09
-6.71346e-08
-6.34195e-09
-6.16286e-08
-7.57063e-09
-5.61161e-08
-9.01781e-09
-5.1334e-08
-8.68685e-09
-4.80981e-08
-6.35783e-09
-4.67224e-08
-3.55904e-09
-4.65792e-08
-1.65402e-09
-4.69746e-08
-6.87622e-10
-4.7512e-08
-2.37119e-10
-4.80329e-08
-3.12878e-10
-4.75736e-08
-1.9225e-09
-4.70429e-08
-1.845e-09
-4.74456e-08
1.14126e-09
-4.98076e-08
5.58662e-09
-5.26357e-08
6.30098e-09
-5.40068e-08
1.86633e-09
-5.33527e-08
-3.17636e-09
-5.21651e-08
-3.91553e-09
-5.26844e-08
9.77159e-10
-5.59616e-08
7.31338e-09
-5.95703e-08
6.95284e-09
-6.02408e-08
-9.31663e-10
-5.7877e-08
-7.68242e-09
-5.39898e-08
-1.06919e-08
-5.07407e-08
-7.37027e-09
-4.9956e-08
7.01062e-10
-5.0149e-08
4.17536e-09
-4.93889e-08
-3.53253e-10
-4.6369e-08
-7.81151e-09
-4.11993e-08
-1.2425e-08
-3.53792e-08
-1.15563e-08
-3.10385e-08
-7.28909e-09
-2.89776e-08
-2.97085e-09
-2.82028e-08
-2.16264e-09
-3.04881e-08
-3.35884e-10
-3.99919e-08
9.27631e-09
-5.42957e-08
1.85537e-08
-6.69441e-08
2.04644e-08
-7.56704e-08
1.85115e-08
-8.15018e-08
1.58687e-08
-8.49963e-08
1.28843e-08
-8.58194e-08
8.49735e-09
-8.47143e-08
3.46706e-09
-8.31572e-08
7.23899e-10
-8.16905e-08
-4.58274e-10
-8.01017e-08
-1.51873e-09
-7.78172e-08
-3.50156e-09
-7.41277e-08
-7.09884e-09
-6.92514e-08
-1.03159e-08
-6.35542e-08
-1.25779e-08
-5.65686e-08
-1.52028e-08
-4.76847e-08
-1.86603e-08
-3.64206e-08
-2.27531e-08
-2.34466e-08
-2.52644e-08
-1.1707e-08
-2.24741e-08
-4.35509e-09
-1.50053e-08
4.91225e-10
-9.38038e-09
4.86541e-09
-7.45349e-09
9.15406e-09
-6.24449e-09
1.21905e-08
-3.60402e-09
1.33038e-08
-2.53111e-10
1.206e-08
3.14431e-09
8.69258e-09
5.85427e-09
3.3168e-09
8.26784e-09
-5.45405e-09
1.18655e-08
-1.89263e-08
1.71122e-08
-3.61508e-08
2.36046e-08
-5.1791e-08
2.58576e-08
-6.19184e-08
2.35546e-08
-6.48974e-08
1.40427e-08
-6.01993e-08
6.246e-11
-4.89011e-08
-1.44718e-08
-3.40493e-08
-2.36683e-08
-2.02043e-08
-2.26747e-08
-1.20153e-08
-1.3336e-08
-1.17633e-08
-2.66156e-10
-1.53314e-08
5.61127e-09
-1.70959e-08
3.03413e-09
-1.27832e-08
-7.22576e-09
-3.38826e-09
-1.73747e-08
5.05444e-09
-1.57035e-08
4.69889e-09
-4.10695e-10
3.13952e-09
-3.0858e-09
1.07091e-08
-7.22691e-09
1.4888e-08
-9.40767e-09
1.4324e-08
-7.19811e-09
1.13151e-08
-2.2751e-09
9.90698e-09
3.13707e-09
8.28892e-09
1.01374e-08
-1.93068e-09
2.00425e-08
-1.94634e-08
3.36038e-08
-4.01997e-08
4.86663e-08
-5.6411e-08
6.18235e-08
-5.9012e-08
6.93974e-08
-4.23909e-08
7.16814e-08
-1.57746e-08
6.8461e-08
1.23822e-08
5.81361e-08
3.16692e-08
4.35791e-08
3.42206e-08
2.97137e-08
2.61525e-08
1.89262e-08
1.71589e-08
1.04429e-08
1.40163e-08
1.65165e-09
1.59089e-08
-6.14567e-09
1.7985e-08
-9.45142e-09
1.58471e-08
-9.78726e-09
7.35428e-09
-8.43399e-09
-1.99609e-09
-5.31444e-09
-1.10654e-08
1.64028e-09
-1.96931e-08
1.19725e-08
-2.48634e-08
2.0304e-08
-2.12699e-08
2.34367e-08
-7.62046e-09
1.93145e-08
5.61654e-09
1.49895e-08
1.42336e-09
1.58023e-08
-7.08451e-09
2.15881e-08
-1.2036e-08
2.92236e-08
-1.37538e-08
3.58937e-08
-1.22633e-08
4.10194e-08
-1.10175e-08
4.42966e-08
-9.64773e-09
4.6239e-08
-7.64933e-09
4.66635e-08
-4.90314e-09
4.63877e-08
-3.84676e-09
4.61981e-08
-4.72365e-09
4.58338e-08
-6.09136e-09
4.67356e-08
-8.89579e-09
4.94628e-08
-1.20174e-08
5.31362e-08
-1.31284e-08
5.70072e-08
-1.29325e-08
6.12653e-08
-1.29877e-08
6.56509e-08
-1.25682e-08
6.9349e-08
-1.03283e-08
7.17577e-08
-6.65214e-09
7.4231e-08
-5.79643e-09
7.76149e-08
-7.72891e-09
8.20089e-08
-1.03336e-08
8.66646e-08
-1.15585e-08
9.10854e-08
-1.10033e-08
9.53742e-08
-8.37244e-09
1.00015e-07
-7.43738e-09
1.03742e-07
-7.10371e-09
1.05962e-07
-5.147e-09
1.07412e-07
-2.83138e-09
1.09434e-07
-1.6969e-09
1.11679e-07
8.11623e-10
1.12623e-07
6.60186e-09
1.10716e-07
1.54105e-08
1.05926e-07
2.45599e-08
9.96246e-08
3.08023e-08
9.20068e-08
3.38553e-08
8.28489e-08
3.51921e-08
7.18726e-08
3.56029e-08
5.93193e-08
3.36713e-08
4.63105e-08
2.80409e-08
3.43925e-08
1.93653e-08
2.59512e-08
8.61087e-09
1.85145e-08
-3.91186e-11
2.84969e-09
4.12794e-09
-2.16274e-08
2.01828e-08
-4.91528e-08
3.50556e-08
-7.4616e-08
4.62644e-08
-9.84646e-08
5.35465e-08
-1.17731e-07
5.31645e-08
-1.30032e-07
4.58623e-08
-1.3694e-07
3.63109e-08
-1.41543e-07
2.91674e-08
-1.47238e-07
2.68837e-08
-1.5615e-07
2.94906e-08
-1.67224e-07
3.24146e-08
-1.77401e-07
3.08974e-08
-1.84769e-07
2.54114e-08
-1.8939e-07
1.96627e-08
-1.92015e-07
1.519e-08
-1.92664e-07
1.10149e-08
-1.91058e-07
6.8611e-09
-1.8746e-07
3.7868e-09
-1.82937e-07
2.15762e-09
-1.78047e-07
1.41495e-09
-1.72543e-07
-2.90037e-10
-1.66624e-07
-4.15264e-09
-1.60401e-07
-9.03546e-09
-1.53808e-07
-1.32119e-08
-1.46496e-07
-1.57295e-08
-1.38347e-07
-1.64951e-08
-1.29677e-07
-1.61885e-08
-1.2103e-07
-1.5942e-08
-1.12904e-07
-1.67995e-08
-1.05656e-07
-1.90341e-08
-9.89817e-08
-2.17826e-08
-9.25295e-08
-2.32553e-08
-8.64764e-08
-2.25789e-08
-8.13355e-08
-2.00567e-08
-7.76715e-08
-1.55604e-08
-7.5697e-08
-9.49088e-09
-7.54144e-08
-4.87116e-09
-7.58249e-08
-5.50518e-09
-7.5762e-08
-8.24247e-09
-7.44975e-08
-8.5723e-09
-7.13232e-08
-8.35802e-09
-6.63335e-08
-1.04568e-08
-6.01563e-08
-1.25191e-08
-5.32651e-08
-1.44618e-08
-4.63227e-08
-1.59602e-08
-3.99182e-08
-1.50914e-08
-3.46678e-08
-1.16081e-08
-3.22566e-08
-5.9703e-09
-3.35538e-08
-3.56862e-10
-3.8076e-08
3.83464e-09
-4.24981e-08
4.18495e-09
-4.46089e-08
1.79789e-09
-4.41871e-08
-2.34426e-09
-4.42027e-08
-1.82948e-09
-4.61991e-08
3.13772e-09
-4.7868e-08
7.25547e-09
-4.88808e-08
7.31379e-09
-5.06391e-08
3.62468e-09
-5.19173e-08
-1.89823e-09
-5.15118e-08
-4.32097e-09
-5.02648e-08
-2.69861e-10
-5.07996e-08
7.8482e-09
-5.49027e-08
1.10559e-08
-6.00386e-08
4.20423e-09
-6.3319e-08
-4.40201e-09
-6.40099e-08
-1.0001e-08
-6.08426e-08
-1.05375e-08
-5.44274e-08
-5.71419e-09
-4.91133e-08
-1.13869e-09
-4.72913e-08
-2.17532e-09
-4.72664e-08
-7.83632e-09
-4.58619e-08
-1.38295e-08
-4.08947e-08
-1.65235e-08
-3.61191e-08
-1.20646e-08
-3.58882e-08
-3.20172e-09
-4.04427e-08
2.39186e-09
-4.883e-08
8.05144e-09
-6.13492e-08
2.17955e-08
-7.36446e-08
3.08491e-08
-8.07654e-08
2.75852e-08
-8.29055e-08
2.06516e-08
-8.24177e-08
1.53809e-08
-8.05282e-08
1.09948e-08
-7.77767e-08
5.74587e-09
-7.54505e-08
1.14083e-09
-7.39334e-08
-7.93215e-10
-7.23097e-08
-2.08196e-09
-6.98122e-08
-4.01624e-09
-6.68723e-08
-6.44141e-09
-6.37392e-08
-1.0232e-08
-6.03991e-08
-1.3656e-08
-5.69952e-08
-1.59818e-08
-5.31123e-08
-1.90857e-08
-4.82627e-08
-2.35099e-08
-4.16746e-08
-2.93413e-08
-3.30269e-08
-3.39121e-08
-2.4864e-08
-3.0637e-08
-2.05078e-08
-1.93615e-08
-1.87008e-08
-1.11873e-08
-1.57027e-08
-1.04516e-08
-1.09089e-08
-1.10383e-08
-6.60623e-09
-7.90668e-09
-3.95e-09
-2.90933e-09
-3.81185e-09
3.00617e-09
-7.87041e-09
9.91283e-09
-1.77082e-08
1.81056e-08
-3.313e-08
2.72874e-08
-5.05174e-08
3.44996e-08
-6.31885e-08
3.62757e-08
-6.95189e-08
3.2188e-08
-7.04596e-08
2.44953e-08
-6.80647e-08
1.16478e-08
-6.15599e-08
-6.44233e-09
-5.04599e-08
-2.55717e-08
-3.53404e-08
-3.87878e-08
-1.80797e-08
-3.99355e-08
-4.5949e-09
-2.68207e-08
9.91378e-11
-4.96021e-09
-2.9456e-09
8.65599e-09
-6.36801e-09
6.45654e-09
-4.51758e-09
-9.0762e-09
-3.32011e-11
-2.1859e-08
7.9429e-09
-2.36796e-08
1.04392e-08
-2.90698e-09
1.35787e-08
2.49424e-09
8.2149e-09
3.98646e-09
1.33958e-08
7.11341e-09
1.11971e-08
1.46949e-08
3.73358e-09
2.56203e-08
-1.0184e-09
3.74446e-08
-3.53534e-09
4.93899e-08
-1.3876e-08
6.24357e-08
-3.25092e-08
7.62816e-08
-5.40455e-08
8.69341e-08
-6.70635e-08
9.11578e-08
-6.32357e-08
8.85615e-08
-3.97946e-08
8.15466e-08
-8.75974e-09
7.29323e-08
2.09966e-08
6.21201e-08
4.24813e-08
4.83139e-08
4.80269e-08
3.39751e-08
4.04914e-08
2.17298e-08
2.94041e-08
1.21007e-08
2.36455e-08
3.23269e-09
2.47769e-08
-3.62439e-09
2.48421e-08
-6.16971e-09
1.83924e-08
-7.77141e-09
8.95598e-09
-9.92177e-09
1.54268e-10
-1.03812e-08
-1.0606e-08
-5.75124e-09
-2.43231e-08
3.10537e-09
-3.372e-08
9.91215e-09
-2.80767e-08
1.22445e-08
-9.95282e-09
1.13495e-08
6.51157e-09
1.21992e-08
5.73605e-10
1.84081e-08
-1.32933e-08
2.68652e-08
-2.04931e-08
3.30378e-08
-1.99264e-08
3.59881e-08
-1.52136e-08
3.62999e-08
-1.13293e-08
3.45662e-08
-7.91403e-09
3.15874e-08
-4.67055e-09
2.7779e-08
-1.0947e-09
2.39374e-08
-5.19199e-12
2.03492e-08
-1.13541e-09
1.90554e-08
-4.79754e-09
2.28925e-08
-1.27329e-08
2.97548e-08
-1.88798e-08
3.54958e-08
-1.88694e-08
3.87957e-08
-1.62325e-08
3.98453e-08
-1.40373e-08
4.03289e-08
-1.30518e-08
3.98555e-08
-9.85491e-09
3.91893e-08
-5.98587e-09
4.13986e-08
-8.00577e-09
4.66769e-08
-1.30071e-08
5.41155e-08
-1.77722e-08
6.1643e-08
-1.9086e-08
6.82624e-08
-1.76227e-08
7.51952e-08
-1.53052e-08
8.17779e-08
-1.40201e-08
8.64714e-08
-1.17972e-08
9.02049e-08
-8.88056e-09
9.38355e-08
-6.462e-09
9.78461e-08
-5.70743e-09
1.00887e-07
-2.22982e-09
1.01608e-07
5.88105e-09
9.92869e-08
1.77319e-08
9.45027e-08
2.93441e-08
8.92571e-08
3.60479e-08
8.39284e-08
3.9184e-08
7.71927e-08
4.19278e-08
6.83004e-08
4.44952e-08
5.69221e-08
4.50496e-08
4.32636e-08
4.16994e-08
2.92656e-08
3.33632e-08
1.62317e-08
2.16448e-08
-4.96814e-09
2.11607e-08
-3.735e-08
3.65098e-08
-6.75067e-08
5.03395e-08
-9.1208e-08
5.87569e-08
-1.1048e-07
6.55361e-08
-1.26115e-07
6.91813e-08
-1.37085e-07
6.41346e-08
-1.42946e-07
5.17234e-08
-1.45797e-07
3.91626e-08
-1.48383e-07
3.17531e-08
-1.52502e-07
3.10029e-08
-1.58373e-07
3.5361e-08
-1.64364e-07
3.8406e-08
-1.68974e-07
3.55068e-08
-1.71809e-07
2.82468e-08
-1.72459e-07
2.03127e-08
-1.71462e-07
1.41926e-08
-1.69635e-07
9.18866e-09
-1.67001e-07
4.22649e-09
-1.63514e-07
3.00479e-10
-1.59239e-07
-2.11744e-09
-1.53926e-07
-3.89871e-09
-1.47596e-07
-6.61983e-09
-1.41131e-07
-1.06176e-08
-1.35042e-07
-1.51247e-08
-1.28967e-07
-1.92866e-08
-1.22159e-07
-2.25377e-08
-1.14195e-07
-2.4459e-08
-1.0541e-07
-2.49735e-08
-9.64919e-08
-2.48602e-08
-8.81708e-08
-2.51206e-08
-8.08455e-08
-2.63593e-08
-7.44332e-08
-2.8195e-08
-6.81669e-08
-2.95216e-08
-6.12283e-08
-2.95175e-08
-5.35246e-08
-2.77604e-08
-4.60564e-08
-2.30286e-08
-4.09044e-08
-1.46429e-08
-4.055e-08
-5.22552e-09
-4.58823e-08
-1.72894e-10
-5.29553e-08
-1.16947e-09
-5.74914e-08
-4.0362e-09
-5.9334e-08
-6.51537e-09
-5.87656e-08
-1.10253e-08
-5.64045e-08
-1.48802e-08
-5.24106e-08
-1.84557e-08
-4.63629e-08
-2.20079e-08
-3.90337e-08
-2.24205e-08
-3.17499e-08
-1.8892e-08
-2.62753e-08
-1.14449e-08
-2.56408e-08
-9.91384e-10
-3.26762e-08
1.087e-08
-4.05034e-08
1.20121e-08
-4.29044e-08
4.19887e-09
-4.07316e-08
-4.51704e-09
-4.00628e-08
-2.49832e-09
-4.4278e-08
7.3529e-09
-4.85113e-08
1.14888e-08
-5.03132e-08
9.11565e-09
-5.17449e-08
5.05634e-09
-5.30612e-08
-5.81908e-10
-5.30052e-08
-4.37698e-09
-5.04447e-08
-2.83033e-09
-4.68886e-08
4.2921e-09
-4.61386e-08
1.03059e-08
-5.01575e-08
8.22323e-09
-5.65565e-08
1.99692e-09
-6.17688e-08
-4.78864e-09
-6.27984e-08
-9.50796e-09
-5.82881e-08
-1.02245e-08
-5.05543e-08
-8.87245e-09
-4.34248e-08
-9.30485e-09
-4.06094e-08
-1.06517e-08
-4.09916e-08
-1.34473e-08
-4.10508e-08
-1.64643e-08
-3.96371e-08
-1.34783e-08
-4.16912e-08
-1.14763e-09
-4.91205e-08
9.82117e-09
-5.82333e-08
1.71642e-08
-6.6394e-08
2.99562e-08
-7.19294e-08
3.63845e-08
-7.45864e-08
3.02422e-08
-7.47374e-08
2.08027e-08
-7.37081e-08
1.43516e-08
-7.22284e-08
9.51505e-09
-7.08847e-08
4.40211e-09
-6.96965e-08
-4.73601e-11
-6.85829e-08
-1.90682e-09
-6.7005e-08
-3.65978e-09
-6.41783e-08
-6.84296e-09
-6.02495e-08
-1.03703e-08
-5.59701e-08
-1.45113e-08
-5.11833e-08
-1.84428e-08
-4.63906e-08
-2.07745e-08
-4.28926e-08
-2.25836e-08
-4.11394e-08
-2.52632e-08
-4.06041e-08
-2.98765e-08
-3.90953e-08
-3.54209e-08
-3.63124e-08
-3.34199e-08
-3.43889e-08
-2.12851e-08
-3.41291e-08
-1.14471e-08
-3.24232e-08
-1.21575e-08
-2.76194e-08
-1.58421e-08
-2.261e-08
-1.29161e-08
-1.96737e-08
-5.84566e-09
-2.13999e-08
4.73239e-09
-3.00669e-08
1.85799e-08
-4.48313e-08
3.287e-08
-6.0602e-08
4.3058e-08
-7.08389e-08
4.47366e-08
-7.33476e-08
3.87844e-08
-7.26388e-08
3.14791e-08
-7.18508e-08
2.37073e-08
-7.076e-08
1.05571e-08
-6.6977e-08
-1.02253e-08
-5.91623e-08
-3.33864e-08
-4.53708e-08
-5.25794e-08
-2.64708e-08
-5.88354e-08
-8.95472e-09
-4.43368e-08
1.10776e-09
-1.50227e-08
1.33965e-09
8.4241e-09
-2.0076e-09
9.80379e-09
-3.87019e-09
-7.2136e-09
-2.73484e-09
-2.29944e-08
2.87575e-09
-2.92902e-08
9.10945e-09
-9.14068e-09
2.26882e-08
5.87499e-09
2.33991e-09
1.2415e-08
6.85584e-09
2.02643e-08
3.34774e-09
2.97966e-08
-5.79871e-09
4.18334e-08
-1.30552e-08
5.70573e-08
-1.87592e-08
7.43842e-08
-3.1203e-08
9.17667e-08
-4.98917e-08
1.04034e-07
-6.63125e-08
1.07675e-07
-7.07048e-08
1.02414e-07
-5.79753e-08
9.20766e-08
-2.94567e-08
7.99024e-08
3.41445e-09
6.85346e-08
3.23645e-08
5.82509e-08
5.2765e-08
4.67901e-08
5.94877e-08
3.43444e-08
5.29371e-08
2.31185e-08
4.063e-08
1.41407e-08
3.26233e-08
6.94578e-09
3.19718e-08
1.06503e-09
3.07229e-08
-2.39683e-09
2.18543e-08
-6.33147e-09
1.28906e-08
-1.12967e-08
5.11953e-09
-1.53466e-08
-6.55611e-09
-1.52802e-08
-2.43895e-08
-1.05544e-08
-3.84458e-08
-6.81476e-09
-3.18163e-08
-5.69637e-09
-1.10712e-08
-9.77953e-10
1.79315e-09
1.08487e-08
-1.12531e-08
2.32697e-08
-2.57143e-08
2.87504e-08
-2.59739e-08
2.78772e-08
-1.90532e-08
2.31264e-08
-1.04628e-08
1.70037e-08
-5.20666e-09
1.10501e-08
-1.96039e-09
4.53743e-09
1.84211e-09
-2.19132e-09
5.63405e-09
-8.00705e-09
5.81054e-09
-9.33303e-09
1.90573e-10
-2.96207e-09
-1.11685e-08
8.24554e-09
-2.39405e-08
1.60061e-08
-2.66404e-08
1.64678e-08
-1.93311e-08
1.16485e-08
-1.14131e-08
3.40706e-09
-5.79586e-09
-4.18925e-09
-5.45553e-09
-7.87491e-09
-6.16924e-09
-3.89264e-09
-9.96815e-09
7.06746e-09
-1.89659e-08
2.16681e-08
-2.76078e-08
3.5763e-08
-3.18671e-08
4.66993e-08
-3.00223e-08
5.37039e-08
-2.46273e-08
5.87687e-08
-2.037e-08
6.32224e-08
-1.84738e-08
6.69572e-08
-1.5532e-08
7.2576e-08
-1.44994e-08
7.93621e-08
-1.32481e-08
8.4941e-08
-1.12863e-08
8.80818e-08
-5.37059e-09
8.84917e-08
5.47111e-09
8.67566e-08
1.94669e-08
8.26834e-08
3.34173e-08
7.6496e-08
4.22353e-08
6.96661e-08
4.60138e-08
6.20973e-08
4.94966e-08
5.25778e-08
5.40147e-08
4.05966e-08
5.70308e-08
2.66974e-08
5.55986e-08
1.27446e-08
4.73161e-08
-8.93842e-09
4.33278e-08
-4.31566e-08
5.53789e-08
-7.51259e-08
6.84791e-08
-9.60664e-08
7.128e-08
-1.08825e-07
7.15157e-08
-1.17421e-07
7.41316e-08
-1.23244e-07
7.50046e-08
-1.27495e-07
6.83855e-08
-1.31378e-07
5.56064e-08
-1.35568e-07
4.33529e-08
-1.40271e-07
3.64557e-08
-1.44773e-07
3.55048e-08
-1.47677e-07
3.82654e-08
-1.48526e-07
3.92549e-08
-1.48185e-07
3.5166e-08
-1.47243e-07
2.73044e-08
-1.45614e-07
1.86841e-08
-1.43625e-07
1.22037e-08
-1.42006e-07
7.56889e-09
-1.40674e-07
2.8946e-09
-1.38592e-07
-1.78122e-09
-1.348e-07
-5.90974e-09
-1.29384e-07
-9.31462e-09
-1.23603e-07
-1.24008e-08
-1.18492e-07
-1.57285e-08
-1.1402e-07
-1.95972e-08
-1.09506e-07
-2.38001e-08
-1.04436e-07
-2.7608e-08
-9.87093e-08
-3.01854e-08
-9.24665e-08
-3.12162e-08
-8.59871e-08
-3.13397e-08
-7.9608e-08
-3.14997e-08
-7.35979e-08
-3.23695e-08
-6.78818e-08
-3.3911e-08
-6.18271e-08
-3.55763e-08
-5.449e-08
-3.68546e-08
-4.51081e-08
-3.71424e-08
-3.3408e-08
-3.47287e-08
-2.06284e-08
-2.74225e-08
-1.1404e-08
-1.44499e-08
-1.12453e-08
-3.3162e-10
-2.0501e-08
8.08618e-09
-2.92924e-08
4.75526e-09
-3.5682e-08
-1.25761e-10
-4.1021e-08
-5.68635e-09
-4.5803e-08
-1.00982e-08
-4.86402e-08
-1.56185e-08
-4.65742e-08
-2.40739e-08
-4.05915e-08
-2.84033e-08
-3.34825e-08
-2.6001e-08
-2.79774e-08
-1.69499e-08
-2.58473e-08
-3.12151e-09
-3.00949e-08
1.51177e-08
-3.87302e-08
2.06473e-08
-4.28757e-08
8.34437e-09
-4.08204e-08
-6.57232e-09
-3.92196e-08
-4.09907e-09
-4.21431e-08
1.02764e-08
-4.68037e-08
1.61494e-08
-5.04514e-08
1.27633e-08
-5.22445e-08
6.84953e-09
-5.34056e-08
5.792e-10
-5.45109e-08
-3.27172e-09
-5.34321e-08
-3.90915e-09
-4.79462e-08
-1.19374e-09
-4.05512e-08
2.91084e-09
-3.72093e-08
4.88135e-09
-3.965e-08
4.43763e-09
-4.53146e-08
8.75931e-10
-5.16782e-08
-3.14431e-09
-5.48998e-08
-7.00292e-09
-5.31628e-08
-1.06095e-08
-4.65969e-08
-1.58707e-08
-3.90081e-08
-1.82405e-08
-3.46424e-08
-1.7813e-08
-3.684e-08
-1.42667e-08
-4.04025e-08
-9.9157e-09
-4.42433e-08
2.69314e-09
-5.09522e-08
1.65301e-08
-5.73946e-08
2.36067e-08
-5.95814e-08
3.2143e-08
-5.87916e-08
3.55946e-08
-5.84121e-08
2.98627e-08
-5.90971e-08
2.14876e-08
-6.03348e-08
1.55894e-08
-6.12323e-08
1.04125e-08
-6.23977e-08
5.56754e-09
-6.41869e-08
1.74179e-09
-6.53762e-08
-7.17452e-10
-6.54601e-08
-3.57589e-09
-6.44562e-08
-7.84685e-09
-6.21392e-08
-1.26873e-08
-5.81155e-08
-1.85351e-08
-5.20024e-08
-2.4556e-08
-4.43523e-08
-2.84245e-08
-3.74504e-08
-2.94856e-08
-3.34791e-08
-2.92344e-08
-3.37506e-08
-2.9605e-08
-3.7242e-08
-3.19295e-08
-3.91306e-08
-3.15313e-08
-3.78823e-08
-2.25335e-08
-3.7511e-08
-1.18183e-08
-3.79321e-08
-1.17364e-08
-3.58077e-08
-1.79665e-08
-3.30012e-08
-1.57226e-08
-3.30876e-08
-5.75934e-09
-3.88761e-08
1.05209e-08
-5.10526e-08
3.07564e-08
-6.52287e-08
4.70462e-08
-7.4519e-08
5.23483e-08
-7.57363e-08
4.59538e-08
-7.39271e-08
3.69752e-08
-7.29617e-08
3.05137e-08
-7.25578e-08
2.33033e-08
-7.14012e-08
9.40046e-09
-6.99311e-08
-1.16954e-08
-6.59086e-08
-3.74089e-08
-5.5884e-08
-6.26039e-08
-3.92165e-08
-7.55029e-08
-2.02676e-08
-6.32857e-08
-7.69115e-09
-2.75992e-08
-3.75013e-09
4.48309e-09
-6.82804e-09
1.28817e-08
-8.8939e-09
-5.14775e-09
-5.2744e-09
-2.66139e-08
9.93067e-10
-3.55576e-08
7.02601e-09
-1.51736e-08
2.97142e-08
5.6957e-09
-3.35579e-09
1.27934e-08
-2.41882e-10
1.94881e-08
-3.34689e-09
2.83474e-08
-1.4658e-08
4.41588e-08
-2.88666e-08
6.71253e-08
-4.17257e-08
9.07624e-08
-5.48401e-08
1.07317e-07
-6.64465e-08
1.11589e-07
-7.05843e-08
1.04024e-07
-6.31396e-08
8.92116e-08
-4.3163e-08
7.5112e-08
-1.53571e-08
6.45042e-08
1.40222e-08
5.64922e-08
4.03765e-08
4.87542e-08
6.0503e-08
4.07351e-08
6.75069e-08
3.15085e-08
6.21637e-08
2.26653e-08
4.94732e-08
1.55595e-08
3.97291e-08
1.0407e-08
3.71243e-08
6.05234e-09
3.50776e-08
1.80904e-09
2.60976e-08
-3.27758e-09
1.79773e-08
-8.83131e-09
1.06733e-08
-1.59543e-08
5.66895e-10
-2.28492e-08
-1.74946e-08
-2.38059e-08
-3.74892e-08
-2.07306e-08
-3.48916e-08
-1.68094e-08
-1.49924e-08
-3.98535e-09
-1.10309e-08
1.29087e-08
-2.81471e-08
2.01424e-08
-3.2948e-08
1.72623e-08
-2.30938e-08
8.35542e-09
-1.01462e-08
-2.98906e-09
8.81701e-10
-1.36001e-08
5.40436e-09
-2.18882e-08
6.32779e-09
-2.76163e-08
7.57015e-09
-2.90889e-08
7.10668e-09
-2.63306e-08
3.05227e-09
-1.99653e-08
-6.17476e-09
-1.07883e-08
-2.03455e-08
-4.44615e-09
-3.02826e-08
-8.10022e-09
-2.29863e-08
-2.1377e-08
-6.05429e-09
-3.67575e-08
3.96739e-09
-4.55524e-08
2.99899e-09
-4.41436e-08
-6.86426e-09
-3.38249e-08
-1.64879e-08
-1.86884e-08
-2.51047e-08
-3.64186e-09
-3.40124e-08
9.89869e-09
-4.11483e-08
2.18554e-08
-4.38239e-08
2.96489e-08
-3.78158e-08
3.22649e-08
-2.72434e-08
3.34791e-08
-2.15842e-08
3.5925e-08
-2.09196e-08
4.21706e-08
-2.17777e-08
5.20962e-08
-2.4425e-08
6.25603e-08
-2.37122e-08
6.96969e-08
-1.8423e-08
7.31489e-08
-8.82251e-09
7.40177e-08
4.60231e-09
7.29202e-08
2.05644e-08
6.92486e-08
3.70889e-08
6.22054e-08
4.92786e-08
5.32479e-08
5.49714e-08
4.32612e-08
5.94833e-08
3.13874e-08
6.58885e-08
1.82532e-08
7.01651e-08
5.06991e-09
6.87818e-08
-1.40148e-08
6.64008e-08
-4.57406e-08
7.50536e-08
-7.85713e-08
8.82096e-08
-9.86591e-08
8.85669e-08
-1.06769e-07
7.93902e-08
-1.08542e-07
7.32884e-08
-1.0777e-07
7.33598e-08
-1.06512e-07
7.37465e-08
-1.06473e-07
6.83461e-08
-1.093e-07
5.84341e-08
-1.15048e-07
4.91002e-08
-1.21802e-07
4.32096e-08
-1.27185e-07
4.08879e-08
-1.29511e-07
4.0592e-08
-1.29253e-07
3.89966e-08
-1.27821e-07
3.37339e-08
-1.26143e-07
2.56261e-08
-1.24713e-07
1.72548e-08
-1.24049e-07
1.15399e-08
-1.24276e-07
7.79536e-09
-1.24459e-07
3.07736e-09
-1.23065e-07
-3.17524e-09
-1.19332e-07
-9.6424e-09
-1.1429e-07
-1.43564e-08
-1.09503e-07
-1.71885e-08
-1.05476e-07
-1.97553e-08
-1.01886e-07
-2.31865e-08
-9.83299e-08
-2.73566e-08
-9.4701e-08
-3.12369e-08
-9.10515e-08
-3.38349e-08
-8.72665e-08
-3.50013e-08
-8.32566e-08
-3.53495e-08
-7.90276e-08
-3.57287e-08
-7.47354e-08
-3.66617e-08
-7.04001e-08
-3.82464e-08
-6.56664e-08
-4.031e-08
-5.9754e-08
-4.2767e-08
-5.1766e-08
-4.51304e-08
-4.0963e-08
-4.55317e-08
-2.76657e-08
-4.07198e-08
-1.39708e-08
-2.81448e-08
-4.83844e-09
-9.46399e-09
-4.52685e-09
7.77458e-09
-8.84421e-09
9.07261e-09
-1.31339e-08
4.164e-09
-1.90217e-08
2.01389e-10
-2.71911e-08
-1.92877e-09
-3.64395e-08
-6.37012e-09
-4.22041e-08
-1.83094e-08
-4.03495e-08
-3.02578e-08
-3.51707e-08
-3.11799e-08
-3.12536e-08
-2.0867e-08
-2.96579e-08
-4.71718e-09
-2.99205e-08
1.53803e-08
-3.63573e-08
2.7084e-08
-4.16996e-08
1.36867e-08
-4.24844e-08
-5.78755e-09
-4.20894e-08
-4.49413e-09
-4.20261e-08
1.02131e-08
-4.40572e-08
1.81805e-08
-4.56645e-08
1.43706e-08
-4.55878e-08
6.77283e-09
-4.62856e-08
1.27697e-09
-4.93835e-08
-1.73773e-10
-5.15102e-08
-1.78251e-09
-4.92491e-08
-3.45476e-09
-4.17585e-08
-4.57976e-09
-3.37054e-08
-3.17178e-09
-2.80993e-08
-1.16845e-09
-2.6298e-08
-9.25371e-10
-2.98038e-08
3.61442e-10
-3.73297e-08
5.22964e-10
-4.50228e-08
-2.91638e-09
-4.57759e-08
-1.51176e-08
-4.07121e-08
-2.33044e-08
-3.43141e-08
-2.4211e-08
-3.23506e-08
-1.62301e-08
-3.75784e-08
-4.68792e-09
-4.12153e-08
6.33001e-09
-4.40575e-08
1.93723e-08
-4.76292e-08
2.71784e-08
-4.76603e-08
3.21741e-08
-4.50273e-08
3.29616e-08
-4.34882e-08
2.83237e-08
-4.36627e-08
2.16621e-08
-4.48543e-08
1.6781e-08
-4.64523e-08
1.20104e-08
-4.85322e-08
7.64749e-09
-5.17135e-08
4.92302e-09
-5.45659e-08
2.13495e-09
-5.60414e-08
-2.10037e-09
-5.69637e-08
-6.9245e-09
-5.80235e-08
-1.16276e-08
-5.79052e-08