/*--------------------------------*- C++ -*----------------------------------*\
| =========                 |                                                 |
| \\      /  F ield         | OpenFOAM: The Open Source CFD Toolbox           |
|  \\    /   O peration     | Version:  2412                                  |
|   \\  /    A nd           | Website:  www.openfoam.com                      |
|    \\/     M anipulation  |                                                 |
\*---------------------------------------------------------------------------*/
FoamFile
{
    version     2.0;
    format      ascii;
    arch        "LSB;label=32;scalar=64";
    class       volVectorField;
    location    "4";
    object      U;
}
// * * * * * * * * * * * * * * * * * * * * * * * * * * * * * * * * * * * * * //

dimensions      [0 1 -1 0 0 0 0];

internalField   nonuniform List<vector> 
40000
(
(-0.000441075 8.0629e-05 0)
(-0.00359083 0.00102238 0)
(-0.00782728 0.00229936 0)
(-0.0142566 0.00408106 0)
(-0.0244246 0.00638583 0)
(-0.0370457 0.00745731 0)
(-0.0466861 0.00538873 0)
(-0.0476078 0.000498879 0)
(-0.0387159 -0.00560933 0)
(-0.0211397 -0.0103967 0)
(0.0019695 -0.0106986 0)
(0.023923 -0.00600358 0)
(0.0369755 0.00161743 0)
(0.03434 0.00622794 0)
(0.0232755 0.00461387 0)
(0.0144983 0.000925226 0)
(0.0107125 -0.00108351 0)
(0.00996292 -0.00151803 0)
(0.00980057 -0.000926595 0)
(0.0090181 -0.000662694 0)
(0.00735443 1.15871e-05 0)
(0.00260109 0.0025408 0)
(-0.00422405 0.00290305 0)
(-0.00741218 0.00179918 0)
(-0.00622425 -0.000202396 0)
(-0.00168492 -0.00141551 0)
(0.00386912 -0.00169251 0)
(0.00969353 -0.00180327 0)
(0.0135937 -0.000957751 0)
(0.015113 -0.00112755 0)
(0.0171541 -0.00225498 0)
(0.0210924 -0.0019869 0)
(0.0247225 -0.00069883 0)
(0.0264179 7.50112e-05 0)
(0.0271659 3.8409e-05 0)
(0.0283663 -0.000341963 0)
(0.0303132 -0.00048249 0)
(0.0324666 -0.000193812 0)
(0.0342845 7.63342e-06 0)
(0.0359139 -0.000230791 0)
(0.0379817 -0.000811352 0)
(0.0410696 -0.001617 0)
(0.0452228 -0.00209379 0)
(0.0500844 -0.00229265 0)
(0.0551877 -0.002201 0)
(0.0600803 -0.00193895 0)
(0.0645322 -0.00158509 0)
(0.0684436 -0.00108384 0)
(0.0715636 -0.000411247 0)
(0.0735388 0.0002698 0)
(0.0744312 0.000639358 0)
(0.0750404 0.000497943 0)
(0.0762731 2.4677e-05 0)
(0.0783795 -0.000415369 0)
(0.080879 -0.000496328 0)
(0.0827546 -0.000166481 0)
(0.0836675 -0.000375734 0)
(0.0846709 -0.00107207 0)
(0.0862636 -0.00100847 0)
(0.0874931 -0.000150126 0)
(0.087403 0.00109038 0)
(0.0853484 0.00258521 0)
(0.0808227 0.00440984 0)
(0.0732148 0.00624479 0)
(0.0624444 0.00745131 0)
(0.0494739 0.00761384 0)
(0.0360134 0.00688928 0)
(0.023166 0.00594127 0)
(0.0115274 0.00423914 0)
(0.00212393 0.00171604 0)
(-0.00398535 -0.000525911 0)
(-0.00642485 -0.00234369 0)
(-0.0050234 -0.00388995 0)
(-0.000155369 -0.00514643 0)
(0.00777106 -0.00617563 0)
(0.0168415 -0.00636442 0)
(0.0238571 -0.00631669 0)
(0.026691 -0.00701426 0)
(0.0238868 -0.0058864 0)
(0.0160642 -0.000537377 0)
(0.00270416 0.00523868 0)
(-0.0120083 0.00662024 0)
(-0.0253371 0.00744977 0)
(-0.0377506 0.00799672 0)
(-0.0490104 0.00722601 0)
(-0.0589845 0.00537544 0)
(-0.0678053 0.00347343 0)
(-0.0755439 0.0022428 0)
(-0.0823342 0.00172417 0)
(-0.0883779 0.0015397 0)
(-0.0937941 0.00147365 0)
(-0.0988233 0.00163246 0)
(-0.104 0.00244541 0)
(-0.109807 0.00380429 0)
(-0.116642 0.00547954 0)
(-0.124407 0.00672598 0)
(-0.131573 0.00645724 0)
(-0.13637 0.00464316 0)
(-0.137788 0.00199388 0)
(-0.13578 -0.000310738 0)
(-0.132492 -0.00102733 0)
(-0.12967 -0.000501065 0)
(-0.127807 0.000354715 0)
(-0.126196 0.000616947 0)
(-0.123176 -0.000322205 0)
(-0.11757 -0.00193543 0)
(-0.109844 -0.00326508 0)
(-0.101173 -0.00394767 0)
(-0.0924776 -0.00401524 0)
(-0.0848373 -0.00330295 0)
(-0.0796212 -0.0017625 0)
(-0.0769306 -0.000477896 0)
(-0.0746796 -0.000579777 0)
(-0.0711522 -0.00136791 0)
(-0.0673975 -0.00111525 0)
(-0.0650236 -0.000175373 0)
(-0.0637446 0.000141748 0)
(-0.0626382 0.000114352 0)
(-0.0610627 -0.000387444 0)
(-0.0581469 -0.00141896 0)
(-0.0542268 -0.00186736 0)
(-0.0506637 -0.00159972 0)
(-0.0480687 -0.00114228 0)
(-0.0462504 -0.000712471 0)
(-0.0449909 -0.00041983 0)
(-0.0442486 -0.00021202 0)
(-0.0436019 -0.0001426 0)
(-0.0422476 -0.000257417 0)
(-0.0404102 3.601e-05 0)
(-0.0398609 0.00100787 0)
(-0.0418833 0.00189633 0)
(-0.045969 0.00136518 0)
(-0.0487358 -0.000343384 0)
(-0.0472844 -0.00173503 0)
(-0.0436388 -0.00172855 0)
(-0.0422842 -4.41652e-05 0)
(-0.044927 0.00188571 0)
(-0.0495667 0.00164813 0)
(-0.05096 -0.00067397 0)
(-0.0468276 -0.0026537 0)
(-0.0401336 -0.00385344 0)
(-0.0342807 -0.0030047 0)
(-0.0327217 0.000120199 0)
(-0.0358874 0.00224508 0)
(-0.0392812 0.000931078 0)
(-0.0371344 -0.00221844 0)
(-0.0303334 -0.00404594 0)
(-0.0235234 -0.00343674 0)
(-0.0188863 -0.00189698 0)
(-0.0170861 -0.000297679 0)
(-0.0164839 3.28059e-05 0)
(-0.0144982 -0.00193003 0)
(-0.0124206 -0.00284012 0)
(-0.0137374 -0.00187141 0)
(-0.0196435 0.00114244 0)
(-0.0293634 0.00443747 0)
(-0.0399217 0.00577657 0)
(-0.0497728 0.00615488 0)
(-0.0585402 0.00567566 0)
(-0.0647865 0.00394631 0)
(-0.0679864 0.00235008 0)
(-0.0693707 0.00136969 0)
(-0.0699272 0.000851046 0)
(-0.0695171 0.000145263 0)
(-0.0672191 -0.00109086 0)
(-0.0626381 -0.0023738 0)
(-0.0563733 -0.00328767 0)
(-0.0487904 -0.00394726 0)
(-0.0397395 -0.00454614 0)
(-0.0290358 -0.00511061 0)
(-0.0170766 -0.00524166 0)
(-0.00509389 -0.00444813 0)
(0.00432579 -0.00316903 0)
(0.0101469 -0.00161335 0)
(0.0139522 -0.000708255 0)
(0.0164518 -2.54064e-05 0)
(0.0176822 0.000651345 0)
(0.0174022 0.00105348 0)
(0.0158938 0.00112316 0)
(0.0136468 0.000981049 0)
(0.0109776 0.000860453 0)
(0.00805281 0.000932107 0)
(0.00482409 0.000394064 0)
(0.000201807 -0.000216196 0)
(-0.00766416 0.00191316 0)
(-0.0201934 0.00688701 0)
(-0.0340791 0.00805661 0)
(-0.0428582 0.00572952 0)
(-0.0432228 0.00164781 0)
(-0.0357479 -0.00200606 0)
(-0.0261551 -0.00264818 0)
(-0.0190046 -0.00157742 0)
(-0.016745 -7.14892e-06 0)
(-0.0183287 0.00128787 0)
(-0.0206418 0.00125785 0)
(-0.0198313 -0.000488904 0)
(-0.0135539 -0.00295135 0)
(-0.00448167 -0.00254735 0)
(-0.00131172 -0.000780159 0)
(-0.00115788 -0.00138206 0)
(-0.00201054 0.00453659 0)
(-0.00948961 0.00721979 0)
(-0.0159829 0.00941466 0)
(-0.0219438 0.0119616 0)
(-0.0281508 0.0138493 0)
(-0.0334737 0.0125471 0)
(-0.0338763 0.00507452 0)
(-0.0284642 -0.00800324 0)
(-0.0170703 -0.0227799 0)
(0.00120526 -0.0350671 0)
(0.0218356 -0.0377579 0)
(0.0405164 -0.0280214 0)
(0.0545165 -0.00961168 0)
(0.059974 0.00920977 0)
(0.0522915 0.0166827 0)
(0.037895 0.0127919 0)
(0.025497 0.00613426 0)
(0.0178123 0.00203383 0)
(0.0128383 0.00215128 0)
(0.00758662 0.00344566 0)
(0.000836835 0.00648382 0)
(-0.00637909 0.00998833 0)
(-0.011805 0.0065046 0)
(-0.0114035 0.000609422 0)
(-0.00718343 -0.00566597 0)
(-0.00106938 -0.00904354 0)
(0.00735302 -0.00955773 0)
(0.0161544 -0.00858273 0)
(0.0215368 -0.00334992 0)
(0.0210158 -0.00103937 0)
(0.0182476 -0.00489712 0)
(0.0189303 -0.0063833 0)
(0.0225192 -0.00434428 0)
(0.0267854 -0.00255081 0)
(0.0314726 -0.0017776 0)
(0.0361751 -0.00243164 0)
(0.0406132 -0.00349783 0)
(0.0446395 -0.0035729 0)
(0.0479903 -0.00311947 0)
(0.0505656 -0.00327364 0)
(0.0528048 -0.00419934 0)
(0.0552159 -0.00580689 0)
(0.0581655 -0.00720547 0)
(0.0618906 -0.00810215 0)
(0.0662753 -0.00806088 0)
(0.0708408 -0.00752802 0)
(0.0754121 -0.00696979 0)
(0.0801022 -0.00621375 0)
(0.0846697 -0.00481897 0)
(0.0883077 -0.00298438 0)
(0.0909218 -0.00210142 0)
(0.0935812 -0.0025577 0)
(0.0971664 -0.00358419 0)
(0.101564 -0.00435704 0)
(0.106174 -0.0042711 0)
(0.110073 -0.00241131 0)
(0.112462 -0.00122807 0)
(0.114106 -0.00192268 0)
(0.115821 -0.00208736 0)
(0.117099 -0.00106563 0)
(0.11784 0.000678068 0)
(0.118376 0.00327337 0)
(0.118143 0.00709084 0)
(0.115779 0.0117149 0)
(0.109931 0.0162778 0)
(0.10018 0.0195897 0)
(0.0876961 0.0204479 0)
(0.0740017 0.0197368 0)
(0.0597362 0.0180473 0)
(0.0455344 0.0146948 0)
(0.0330565 0.0094201 0)
(0.0241762 0.00304426 0)
(0.019221 -0.00312991 0)
(0.0184635 -0.00857204 0)
(0.0214561 -0.0128853 0)
(0.0215352 -0.0125702 0)
(0.0145018 -0.00576937 0)
(-0.00443927 0.00819764 0)
(-0.0267866 0.0179737 0)
(-0.0497216 0.023242 0)
(-0.0724998 0.0249598 0)
(-0.0913715 0.0233957 0)
(-0.104607 0.0203002 0)
(-0.114288 0.0168366 0)
(-0.123263 0.014787 0)
(-0.134137 0.0143764 0)
(-0.146681 0.0141679 0)
(-0.158572 0.0131466 0)
(-0.168291 0.0116998 0)
(-0.175961 0.0103581 0)
(-0.181948 0.00930659 0)
(-0.186252 0.00871071 0)
(-0.188857 0.00880106 0)
(-0.189861 0.00886785 0)
(-0.189526 0.00886396 0)
(-0.187976 0.00792991 0)
(-0.184742 0.00478887 0)
(-0.17943 0.00051348 0)
(-0.17296 -0.00318362 0)
(-0.166989 -0.0051316 0)
(-0.161544 -0.00501375 0)
(-0.156414 -0.00409407 0)
(-0.151241 -0.003869 0)
(-0.14539 -0.00535847 0)
(-0.138297 -0.00858184 0)
(-0.130012 -0.0118708 0)
(-0.12133 -0.0135615 0)
(-0.113086 -0.0135433 0)
(-0.105683 -0.0123562 0)
(-0.0996404 -0.00980035 0)
(-0.0955932 -0.00604935 0)
(-0.0930801 -0.00371054 0)
(-0.0902106 -0.00484563 0)
(-0.0861791 -0.00650187 0)
(-0.0820445 -0.00515964 0)
(-0.0783283 -0.00268675 0)
(-0.074368 -0.00233717 0)
(-0.0697018 -0.00272391 0)
(-0.0644199 -0.00379612 0)
(-0.0587185 -0.00546174 0)
(-0.0533486 -0.00562194 0)
(-0.0492766 -0.00428097 0)
(-0.047102 -0.00289864 0)
(-0.0465144 -0.0021803 0)
(-0.0467072 -0.00183929 0)
(-0.0474168 -0.00151605 0)
(-0.048193 -0.00155718 0)
(-0.0480345 -0.00264639 0)
(-0.0470875 -0.00237723 0)
(-0.0465307 0.000668506 0)
(-0.0480081 0.00492772 0)
(-0.0515026 0.00540971 0)
(-0.0539806 0.000949472 0)
(-0.0540444 -0.00365234 0)
(-0.0525805 -0.00374855 0)
(-0.0513308 0.00106318 0)
(-0.0539257 0.00611467 0)
(-0.0587313 0.00453842 0)
(-0.0604829 -0.00269257 0)
(-0.0592946 -0.008195 0)
(-0.0561261 -0.00998459 0)
(-0.0524219 -0.00559732 0)
(-0.049821 0.00264029 0)
(-0.0498458 0.00509138 0)
(-0.0500607 -0.000448157 0)
(-0.0481161 -0.00768114 0)
(-0.0441102 -0.0107269 0)
(-0.0384206 -0.00843463 0)
(-0.0328204 -0.00443882 0)
(-0.0294523 -0.00187802 0)
(-0.0278701 -0.00307727 0)
(-0.0283821 -0.00393557 0)
(-0.0338404 0.00237889 0)
(-0.0465078 0.0112849 0)
(-0.0612436 0.0155914 0)
(-0.0722848 0.016006 0)
(-0.0794255 0.0148177 0)
(-0.0839798 0.0127492 0)
(-0.0860315 0.00899219 0)
(-0.0855683 0.00432776 0)
(-0.0839407 0.00156043 0)
(-0.0823477 0.000287551 0)
(-0.0810108 -0.000807672 0)
(-0.0793339 -0.00291254 0)
(-0.0762464 -0.00624351 0)
(-0.0717907 -0.00912472 0)
(-0.0665587 -0.0111002 0)
(-0.0603654 -0.0131412 0)
(-0.0524911 -0.0156348 0)
(-0.0422779 -0.01837 0)
(-0.0299471 -0.0198455 0)
(-0.017414 -0.017838 0)
(-0.007545 -0.0127974 0)
(-0.00147516 -0.0082367 0)
(0.00289658 -0.00603489 0)
(0.00719126 -0.00433077 0)
(0.0109554 -0.00205604 0)
(0.0132747 0.00036735 0)
(0.0131986 0.00242696 0)
(0.0107946 0.00411006 0)
(0.00643613 0.00503504 0)
(0.000281841 0.00545213 0)
(-0.0105753 0.00778585 0)
(-0.0276712 0.0145524 0)
(-0.0450375 0.0199205 0)
(-0.0582404 0.0207359 0)
(-0.0658214 0.0142269 0)
(-0.0646029 0.00338823 0)
(-0.0550902 -0.00830076 0)
(-0.0412579 -0.015593 0)
(-0.026201 -0.0144381 0)
(-0.0147199 -0.00761258 0)
(-0.0108789 0.000361807 0)
(-0.0139557 0.00330351 0)
(-0.0175183 0.00110404 0)
(-0.0158099 -0.00622759 0)
(-0.00796544 -0.0140063 0)
(0.00188044 -0.0116215 0)
(0.00679001 -0.000233121 0)
(0.00256449 -0.00108553 0)
(-0.00048112 0.00992637 0)
(-0.00573747 0.0132982 0)
(-0.00900195 0.013694 0)
(-0.00852468 0.0135572 0)
(-0.00534336 0.014061 0)
(-0.000595436 0.0128684 0)
(0.00563948 0.00332862 0)
(0.0137994 -0.0137915 0)
(0.02745 -0.0338439 0)
(0.0432164 -0.0503325 0)
(0.0571145 -0.0547029 0)
(0.0660222 -0.0410155 0)
(0.0704801 -0.0167832 0)
(0.0715159 0.00968123 0)
(0.0656031 0.0265246 0)
(0.0515039 0.0270736 0)
(0.0357511 0.0189794 0)
(0.0234895 0.011327 0)
(0.0146006 0.00942084 0)
(0.00623172 0.0113171 0)
(-0.00310838 0.0142154 0)
(-0.00902425 0.0144558 0)
(-0.0105375 0.00707789 0)
(-0.00906393 -0.00197013 0)
(-0.00716672 -0.0102432 0)
(-0.00282177 -0.0163868 0)
(0.006395 -0.0195339 0)
(0.0162126 -0.0174324 0)
(0.0231428 -0.00618078 0)
(0.0237035 0.00395124 0)
(0.016539 -0.000483831 0)
(0.0135347 -0.00572338 0)
(0.0179411 -0.00769661 0)
(0.0252972 -0.00911845 0)
(0.0327412 -0.00894081 0)
(0.0388996 -0.00913052 0)
(0.0431145 -0.00914739 0)
(0.0455605 -0.00805885 0)
(0.0468128 -0.00615427 0)
(0.0469 -0.00525663 0)
(0.0464628 -0.00571929 0)
(0.0460413 -0.00682714 0)
(0.0459498 -0.00845939 0)
(0.0474015 -0.00990872 0)
(0.0508077 -0.0102388 0)
(0.0549736 -0.0100672 0)
(0.0591618 -0.0103038 0)
(0.0634103 -0.010268 0)
(0.0676233 -0.008723 0)
(0.0711078 -0.0056843 0)
(0.0734046 -0.0045722 0)
(0.0757564 -0.00597221 0)
(0.0793369 -0.0080719 0)
(0.0839675 -0.0092376 0)
(0.0887752 -0.00878181 0)
(0.0934487 -0.00593631 0)
(0.0977705 -0.00450089 0)
(0.101882 -0.00479781 0)
(0.105134 -0.00384306 0)
(0.106901 -0.00183272 0)
(0.108182 -0.000109133 0)
(0.110279 0.00252454 0)
(0.112423 0.00741142 0)
(0.112509 0.0144119 0)
(0.109206 0.0220944 0)
(0.103285 0.0280597 0)
(0.0961834 0.030839 0)
(0.0879716 0.0314387 0)
(0.0780009 0.0308702 0)
(0.0660611 0.0281265 0)
(0.0529516 0.0220952 0)
(0.0400355 0.0135447 0)
(0.029411 0.00397807 0)
(0.0227941 -0.00560061 0)
(0.0141496 -0.00888552 0)
(-0.00847269 0.00533969 0)
(-0.0364694 0.0224694 0)
(-0.0622848 0.0349734 0)
(-0.0871328 0.0432171 0)
(-0.109344 0.0453121 0)
(-0.125546 0.0412476 0)
(-0.134735 0.0339922 0)
(-0.139417 0.0273909 0)
(-0.143753 0.0241541 0)
(-0.150942 0.0251845 0)
(-0.161539 0.0272978 0)
(-0.172919 0.0263284 0)
(-0.18183 0.0220731 0)
(-0.187621 0.0175978 0)
(-0.191222 0.0141123 0)
(-0.192958 0.0109207 0)
(-0.192399 0.00785841 0)
(-0.189532 0.00566464 0)
(-0.185278 0.00439232 0)
(-0.180581 0.00386578 0)
(-0.175477 0.00262724 0)
(-0.169743 -0.00108577 0)
(-0.163592 -0.00590021 0)
(-0.157216 -0.00977937 0)
(-0.150246 -0.0117208 0)
(-0.142461 -0.0118325 0)
(-0.133979 -0.0110927 0)
(-0.125278 -0.0108254 0)
(-0.116929 -0.0120841 0)
(-0.109258 -0.0150624 0)
(-0.102204 -0.0183959 0)
(-0.095543 -0.020017 0)
(-0.0892626 -0.0193533 0)
(-0.0834754 -0.0171135 0)
(-0.0788233 -0.0133721 0)
(-0.0762416 -0.00850143 0)
(-0.0757669 -0.00557987 0)
(-0.075941 -0.00727117 0)
(-0.0759654 -0.00980964 0)
(-0.0755068 -0.00918411 0)
(-0.0733691 -0.00767381 0)
(-0.0690984 -0.00865988 0)
(-0.0633696 -0.00994236 0)
(-0.0567024 -0.0112241 0)
(-0.04971 -0.0123691 0)
(-0.0429302 -0.0115116 0)
(-0.0368637 -0.00832217 0)
(-0.0326741 -0.00397492 0)
(-0.0320393 -0.000760228 0)
(-0.0355505 0.000794161 0)
(-0.0408956 0.00126394 0)
(-0.0444635 0.000847734 0)
(-0.0444638 -0.00162754 0)
(-0.043738 -0.0018669 0)
(-0.0452067 0.00152432 0)
(-0.0471046 0.00613491 0)
(-0.0480585 0.007108 0)
(-0.0495915 0.00305084 0)
(-0.051655 -0.00254602 0)
(-0.0523128 -0.00403203 0)
(-0.0505368 0.000858126 0)
(-0.0494436 0.00841761 0)
(-0.0527128 0.00924258 0)
(-0.0576735 0.000776067 0)
(-0.0619264 -0.00734368 0)
(-0.0645976 -0.0113728 0)
(-0.0636413 -0.00896974 0)
(-0.0577854 -0.00126199 0)
(-0.0507823 0.00337674 0)
(-0.0475244 -0.000195946 0)
(-0.0474268 -0.00821292 0)
(-0.0471389 -0.0141698 0)
(-0.0437825 -0.0149669 0)
(-0.0379166 -0.010229 0)
(-0.0346081 -0.00396265 0)
(-0.0371174 -0.00111437 0)
(-0.043925 0.00342222 0)
(-0.0543149 0.0163154 0)
(-0.0681233 0.025816 0)
(-0.0788559 0.0249295 0)
(-0.0830469 0.0202386 0)
(-0.0832246 0.016081 0)
(-0.0816612 0.0122192 0)
(-0.0790249 0.00731148 0)
(-0.0763207 0.00236576 0)
(-0.0746935 -4.4356e-05 0)
(-0.0733466 -0.00113243 0)
(-0.07121 -0.00230629 0)
(-0.0684882 -0.00439444 0)
(-0.0653475 -0.00827417 0)
(-0.0619906 -0.011855 0)
(-0.0586627 -0.0145426 0)
(-0.0551345 -0.0180314 0)
(-0.0509335 -0.0227026 0)
(-0.0451337 -0.0282141 0)
(-0.0374181 -0.0318731 0)
(-0.0290463 -0.0285547 0)
(-0.0223143 -0.0188479 0)
(-0.0191004 -0.0115745 0)
(-0.017132 -0.00945002 0)
(-0.0135291 -0.00865521 0)
(-0.00867272 -0.00550221 0)
(-0.00499549 -0.00103503 0)
(-0.00329188 0.00321056 0)
(-0.0047812 0.00665059 0)
(-0.010862 0.0107482 0)
(-0.023982 0.0181838 0)
(-0.0424578 0.0269378 0)
(-0.0585325 0.0323874 0)
(-0.0678818 0.0312766 0)
(-0.0711663 0.0250342 0)
(-0.0704995 0.0128441 0)
(-0.0656062 -0.00348594 0)
(-0.0566217 -0.0198302 0)
(-0.043295 -0.0304385 0)
(-0.0266769 -0.0299521 0)
(-0.0103522 -0.0183801 0)
(0.000280471 -0.000798225 0)
(-0.000154192 0.00789508 0)
(-0.00578989 0.00460141 0)
(-0.00604269 -0.00886325 0)
(-0.00226823 -0.0206535 0)
(0.0023348 -0.0209694 0)
(0.0123684 -0.000981997 0)
(0.00779448 0.00811479 0)
(0.00216593 0.0108973 0)
(0.00291197 0.0157924 0)
(0.00467029 0.0140549 0)
(0.0107096 0.00832072 0)
(0.019212 0.00521204 0)
(0.0298657 0.00367116 0)
(0.0417171 -0.00607628 0)
(0.0551024 -0.0239439 0)
(0.0707207 -0.0461007 0)
(0.0842674 -0.0623463 0)
(0.0912289 -0.0634136 0)
(0.0905364 -0.0442999 0)
(0.0849894 -0.015297 0)
(0.0775704 0.014437 0)
(0.0689861 0.0363686 0)
(0.0561419 0.0412332 0)
(0.0405769 0.0334116 0)
(0.0268554 0.0231407 0)
(0.0165802 0.0186621 0)
(0.00768199 0.0202448 0)
(-0.00159671 0.0212643 0)
(-0.00600503 0.0169673 0)
(-0.00671395 0.00761219 0)
(-0.00844002 -0.00183518 0)
(-0.0108942 -0.0113994 0)
(-0.00897927 -0.0223975 0)
(-0.00176134 -0.0302649 0)
(0.00672028 -0.0264752 0)
(0.011693 -0.0106506 0)
(0.014817 0.00582571 0)
(0.0098055 0.0030447 0)
(0.0135218 -0.00772396 0)
(0.022885 -0.0158571 0)
(0.0306103 -0.0183249 0)
(0.0350979 -0.0160907 0)
(0.0367244 -0.0135773 0)
(0.0359031 -0.0108379 0)
(0.0332721 -0.00769732 0)
(0.0301346 -0.00388502 0)
(0.0261668 -0.00259607 0)
(0.0222628 -0.00381629 0)
(0.0193505 -0.00467214 0)
(0.0196445 -0.00816554 0)
(0.0253945 -0.0130435 0)
(0.0326056 -0.0153433 0)
(0.0377099 -0.0155522 0)
(0.0399715 -0.0155557 0)
(0.040091 -0.0153265 0)
(0.0397725 -0.012697 0)
(0.0404933 -0.00835875 0)
(0.0405151 -0.00655913 0)
(0.043147 -0.00844555 0)
(0.0493862 -0.0115471 0)
(0.0575064 -0.012971 0)
(0.0650624 -0.0125318 0)
(0.0719187 -0.010763 0)
(0.0785549 -0.0103492 0)
(0.0843446 -0.0093858 0)
(0.0887016 -0.00668065 0)
(0.0920745 -0.00390237 0)
(0.0954743 -0.00317412 0)
(0.0992384 -0.00080884 0)
(0.101778 0.00591377 0)
(0.101398 0.0165439 0)
(0.0975128 0.0271965 0)
(0.0920019 0.0336177 0)
(0.0867744 0.0366513 0)
(0.0810919 0.0386986 0)
(0.0735728 0.0401697 0)
(0.0635857 0.0394589 0)
(0.0509542 0.0349428 0)
(0.0362637 0.0266862 0)
(0.0230683 0.0152196 0)
(0.010033 0.00624445 0)
(-0.0207609 0.0193952 0)
(-0.0545878 0.0371331 0)
(-0.0813688 0.0491995 0)
(-0.101625 0.057932 0)
(-0.118988 0.0630949 0)
(-0.133047 0.0596709 0)
(-0.141244 0.0488667 0)
(-0.144747 0.0371732 0)
(-0.146746 0.0299408 0)
(-0.149947 0.0291172 0)
(-0.155153 0.0335637 0)
(-0.161549 0.0371415 0)
(-0.167254 0.0348255 0)
(-0.171035 0.0281321 0)
(-0.172543 0.0211131 0)
(-0.172241 0.0155939 0)
(-0.170856 0.0105042 0)
(-0.168544 0.00540136 0)
(-0.165352 0.00165562 0)
(-0.161507 -0.000215099 0)
(-0.156807 -0.00127578 0)
(-0.150911 -0.00349334 0)
(-0.144364 -0.00765529 0)
(-0.138054 -0.0125487 0)
(-0.132069 -0.0168667 0)
(-0.125711 -0.0198408 0)
(-0.118301 -0.0212283 0)
(-0.109829 -0.0212981 0)
(-0.10089 -0.020963 0)
(-0.0922151 -0.0212394 0)
(-0.0843619 -0.0226658 0)
(-0.0775628 -0.0247667 0)
(-0.0713442 -0.0260789 0)
(-0.0648057 -0.0255304 0)
(-0.0573184 -0.0229307 0)
(-0.0491581 -0.0176574 0)
(-0.0421561 -0.00984468 0)
(-0.0396645 -0.00322339 0)
(-0.0432637 -0.0031452 0)
(-0.0499112 -0.00651691 0)
(-0.0558567 -0.00828666 0)
(-0.0590281 -0.00963081 0)
(-0.0592616 -0.0129208 0)
(-0.0578984 -0.0157072 0)
(-0.0548266 -0.0179683 0)
(-0.0496786 -0.0197456 0)
(-0.0427658 -0.0189213 0)
(-0.0352074 -0.0152147 0)
(-0.0283217 -0.00858316 0)
(-0.0243802 -0.000246501 0)
(-0.0281407 0.00734201 0)
(-0.0377242 0.00761434 0)
(-0.0431639 0.00292614 0)
(-0.0416785 -0.00310304 0)
(-0.039253 -0.00200365 0)
(-0.0420859 0.00505387 0)
(-0.0472472 0.00884063 0)
(-0.0493763 0.00791932 0)
(-0.0506198 0.00448419 0)
(-0.0525332 -0.00105833 0)
(-0.0537992 -0.00443803 0)
(-0.0523694 -0.00141257 0)
(-0.0481015 0.00720241 0)
(-0.0453859 0.0125338 0)
(-0.0475031 0.00722369 0)
(-0.0532666 -0.00160749 0)
(-0.0598975 -0.00891594 0)
(-0.0634788 -0.0121558 0)
(-0.0617213 -0.00986781 0)
(-0.0545871 -0.00534098 0)
(-0.0461461 -0.00402143 0)
(-0.0410921 -0.00701752 0)
(-0.0406043 -0.0133194 0)
(-0.0412602 -0.0177315 0)
(-0.0401572 -0.0138057 0)
(-0.0390989 -0.00258043 0)
(-0.0445427 0.00607843 0)
(-0.0539219 0.0134928 0)
(-0.0623598 0.0277241 0)
(-0.0700245 0.0350145 0)
(-0.0746201 0.0292149 0)
(-0.0751984 0.020291 0)
(-0.0742218 0.0141929 0)
(-0.0729058 0.00948907 0)
(-0.071329 0.0042914 0)
(-0.0700433 2.73994e-06 0)
(-0.0692296 -0.00161721 0)
(-0.0681716 -0.00303819 0)
(-0.0659158 -0.00549259 0)
(-0.0624156 -0.00808568 0)
(-0.0582548 -0.0115219 0)
(-0.0535777 -0.0147893 0)
(-0.0485097 -0.017044 0)
(-0.0441948 -0.0198534 0)
(-0.0416599 -0.024256 0)
(-0.0405471 -0.0307074 0)
(-0.0398603 -0.0363952 0)
(-0.0382996 -0.0331113 0)
(-0.0352685 -0.0203171 0)
(-0.0339596 -0.0110589 0)
(-0.0336613 -0.0110368 0)
(-0.0304614 -0.0131644 0)
(-0.0250669 -0.0103845 0)
(-0.0206617 -0.00510292 0)
(-0.01936 0.00222705 0)
(-0.0238204 0.0123698 0)
(-0.0360887 0.0249078 0)
(-0.0534112 0.0366027 0)
(-0.067827 0.0420728 0)
(-0.0735094 0.0393032 0)
(-0.0732535 0.0322715 0)
(-0.0723436 0.0241056 0)
(-0.0718204 0.0111764 0)
(-0.0696398 -0.00859797 0)
(-0.0640424 -0.0298604 0)
(-0.0532912 -0.0458388 0)
(-0.036631 -0.0490774 0)
(-0.01736 -0.0348397 0)
(-0.00178582 -0.00964764 0)
(0.00378684 0.00904569 0)
(-0.000268626 0.00818728 0)
(-0.00365356 -0.00826709 0)
(-0.00423664 -0.0222334 0)
(-0.00153923 -0.0264378 0)
(0.00791538 -0.00536838 0)
(0.00908555 0.0179975 0)
(0.00314217 0.00606227 0)
(0.00902846 0.0118264 0)
(0.0159934 0.00891153 0)
(0.0251152 -0.000263277 0)
(0.0352025 -0.00690006 0)
(0.0477114 -0.00974753 0)
(0.0638913 -0.0195466 0)
(0.0833242 -0.0390777 0)
(0.100595 -0.0604067 0)
(0.109068 -0.0711851 0)
(0.106547 -0.0637999 0)
(0.0973855 -0.0375089 0)
(0.0859576 -0.00393503 0)
(0.0741077 0.0257576 0)
(0.0641303 0.0473124 0)
(0.0534687 0.0540087 0)
(0.0402938 0.0470393 0)
(0.0276784 0.0351548 0)
(0.018073 0.0281795 0)
(0.010404 0.028504 0)
(0.00287792 0.0278057 0)
(-0.00101256 0.0198419 0)
(-0.00351666 0.0105273 0)
(-0.00874651 0.00211777 0)
(-0.0140003 -0.00945834 0)
(-0.0158155 -0.025632 0)
(-0.0140413 -0.0375052 0)
(-0.00899526 -0.0307152 0)
(-0.00621226 -0.0102589 0)
(-0.00291548 0.00726333 0)
(0.0017074 -0.00171154 0)
(0.0180415 -0.0196537 0)
(0.0273538 -0.0254546 0)
(0.0292741 -0.0222756 0)
(0.0262138 -0.0152473 0)
(0.0206214 -0.00969808 0)
(0.0140159 -0.00565763 0)
(0.00745856 -0.00232983 0)
(0.00170106 0.00166362 0)
(-0.0053203 0.00279122 0)
(-0.0100278 0.0022055 0)
(-0.00771126 -0.00476428 0)
(0.00250332 -0.0182173 0)
(0.0127742 -0.0259048 0)
(0.0173333 -0.0240673 0)
(0.0149729 -0.0188794 0)
(0.00828199 -0.0139012 0)
(-0.00095017 -0.0107148 0)
(-0.00749288 -0.00520219 0)
(-0.0067714 -0.00232973 0)
(0.000228765 -0.00919467 0)
(0.0138293 -0.0181976 0)
(0.0284589 -0.0242021 0)
(0.0414297 -0.0250247 0)
(0.0508308 -0.0226069 0)
(0.0568584 -0.0197635 0)
(0.0610387 -0.0179517 0)
(0.0651731 -0.014569 0)
(0.0696309 -0.0114216 0)
(0.0756479 -0.00920399 0)
(0.0818867 -0.00819145 0)
(0.0867604 -0.00391258 0)
(0.088903 0.00545999 0)
(0.0883516 0.0184528 0)
(0.0854137 0.0312208 0)
(0.0800216 0.0386528 0)
(0.0733264 0.041903 0)
(0.0662609 0.0451454 0)
(0.058134 0.0487743 0)
(0.0477105 0.0506095 0)
(0.0345028 0.0485662 0)
(0.0201628 0.0406281 0)
(0.00604537 0.0295365 0)
(-0.0244275 0.0370226 0)
(-0.0622473 0.054476 0)
(-0.0889931 0.063656 0)
(-0.104081 0.067773 0)
(-0.113552 0.0723463 0)
(-0.120721 0.0741537 0)
(-0.125884 0.0674653 0)
(-0.129677 0.0538076 0)
(-0.133178 0.0406514 0)
(-0.137679 0.0333456 0)
(-0.142696 0.0329189 0)
(-0.146626 0.0371193 0)
(-0.148532 0.0395078 0)
(-0.148787 0.0360229 0)
(-0.14804 0.0281999 0)
(-0.146559 0.0195455 0)
(-0.144546 0.0129759 0)
(-0.14274 0.00802621 0)
(-0.141455 0.00325877 0)
(-0.139931 -0.000868548 0)
(-0.137014 -0.0039551 0)
(-0.132204 -0.00660421 0)
(-0.126396 -0.00965518 0)
(-0.120903 -0.0133727 0)
(-0.116208 -0.017525 0)
(-0.111837 -0.0217179 0)
(-0.107069 -0.0254024 0)
(-0.101626 -0.0278813 0)
(-0.0956092 -0.0288297 0)
(-0.089222 -0.0288985 0)
(-0.0827622 -0.0290722 0)
(-0.0765658 -0.030013 0)
(-0.0707803 -0.0315503 0)
(-0.0650419 -0.0329448 0)
(-0.0584985 -0.0335422 0)
(-0.0501818 -0.0327059 0)
(-0.0394456 -0.0288908 0)
(-0.0266979 -0.0204927 0)
(-0.0146987 -0.00792622 0)
(-0.00894159 0.00335187 0)
(-0.0154202 0.0048396 0)
(-0.0255404 0.000541989 0)
(-0.0329439 -0.00370069 0)
(-0.0382112 -0.00937822 0)
(-0.0437474 -0.0141479 0)
(-0.0481099 -0.0191386 0)
(-0.0484316 -0.024812 0)
(-0.044033 -0.026369 0)
(-0.0369376 -0.0228831 0)
(-0.0303855 -0.0146516 0)
(-0.0257739 -0.00216352 0)
(-0.0261145 0.0135254 0)
(-0.0350619 0.0161949 0)
(-0.0426203 0.00591694 0)
(-0.0419405 -0.00603463 0)
(-0.0390875 -0.00344686 0)
(-0.0400224 0.00916547 0)
(-0.0450529 0.0138394 0)
(-0.0492064 0.010829 0)
(-0.0512147 0.00590894 0)
(-0.0526023 -0.000201642 0)
(-0.0542739 -0.0045092 0)
(-0.0551109 -0.00414582 0)
(-0.0513957 0.00159428 0)
(-0.0435396 0.00833308 0)
(-0.0377607 0.00934199 0)
(-0.0377044 0.00564872 0)
(-0.0420301 -0.000804224 0)
(-0.0485653 -0.00713204 0)
(-0.0544393 -0.0110744 0)
(-0.0554876 -0.0127301 0)
(-0.0502949 -0.0143456 0)
(-0.0423583 -0.0140405 0)
(-0.0354353 -0.0139022 0)
(-0.0347236 -0.0148291 0)
(-0.0387442 -0.012391 0)
(-0.0414527 0.000828708 0)
(-0.0469247 0.0137501 0)
(-0.0552417 0.0209223 0)
(-0.0593676 0.0323814 0)
(-0.0597279 0.0376636 0)
(-0.0588483 0.0311959 0)
(-0.0585888 0.0214491 0)
(-0.0593883 0.0146695 0)
(-0.0605571 0.00936052 0)
(-0.0617341 0.00418642 0)
(-0.0633208 -3.21786e-06 0)
(-0.0649304 -0.0019797 0)
(-0.0657071 -0.00418838 0)
(-0.0653467 -0.00810656 0)
(-0.0637766 -0.012327 0)
(-0.0606 -0.0170176 0)
(-0.0553526 -0.0214598 0)
(-0.0481811 -0.0238832 0)
(-0.0405195 -0.0246252 0)
(-0.0346023 -0.0254831 0)
(-0.0324863 -0.0285028 0)
(-0.0349595 -0.0336805 0)
(-0.0389054 -0.0329349 0)
(-0.0389408 -0.0215828 0)
(-0.0374369 -0.0113801 0)
(-0.0381497 -0.0129641 0)
(-0.0372572 -0.0181336 0)
(-0.0342915 -0.015336 0)
(-0.0322369 -0.00679587 0)
(-0.0344426 0.00683803 0)
(-0.0434589 0.0248432 0)
(-0.0584864 0.0413758 0)
(-0.0720106 0.04963 0)
(-0.0766805 0.0465546 0)
(-0.0748087 0.0379042 0)
(-0.0730407 0.0305526 0)
(-0.0729229 0.0231604 0)
(-0.072499 0.00923287 0)
(-0.0713671 -0.0126967 0)
(-0.0687663 -0.0380616 0)
(-0.0617152 -0.0604036 0)
(-0.0485743 -0.0694507 0)
(-0.0305191 -0.0553762 0)
(-0.0125595 -0.0225109 0)
(-0.0025048 0.00674115 0)
(-0.00386746 0.0112796 0)
(-0.00930346 -0.00570797 0)
(-0.00931895 -0.0239505 0)
(-0.00181922 -0.0316816 0)
(0.0041334 -0.012216 0)
(0.00880408 0.0261896 0)
(0.00239989 -0.000728332 0)
(0.00930958 0.00307755 0)
(0.0167276 -0.00104431 0)
(0.0235032 -0.00994394 0)
(0.0345767 -0.01738 0)
(0.0537743 -0.0259481 0)
(0.078731 -0.0411073 0)
(0.101421 -0.0593484 0)
(0.11323 -0.0715458 0)
(0.110656 -0.0705407 0)
(0.0968585 -0.0535995 0)
(0.0810828 -0.0239788 0)
(0.0691631 0.00883079 0)
(0.0603438 0.0369592 0)
(0.0532912 0.0571673 0)
(0.0458478 0.0640813 0)
(0.0361126 0.0580941 0)
(0.0261377 0.0454526 0)
(0.0184468 0.0364643 0)
(0.0127532 0.0349078 0)
(0.0075815 0.0331776 0)
(0.00398867 0.0238696 0)
(-0.000115698 0.0152022 0)
(-0.00595912 0.0075706 0)
(-0.0125752 -0.00408056 0)
(-0.0199137 -0.0229027 0)
(-0.0249577 -0.0389987 0)
(-0.0237255 -0.0321182 0)
(-0.0189674 -0.00985389 0)
(-0.011758 -0.00292413 0)
(0.00532648 -0.0213428 0)
(0.018218 -0.0324663 0)
(0.0200436 -0.0278534 0)
(0.0136108 -0.0169644 0)
(0.00312826 -0.00616021 0)
(-0.00807834 -0.000345908 0)
(-0.0184633 0.00225777 0)
(-0.0256465 0.0066379 0)
(-0.0289818 0.010027 0)
(-0.0288987 0.00775884 0)
(-0.023899 -0.00227185 0)
(-0.0144342 -0.0185036 0)
(-0.00606364 -0.0312372 0)
(-0.00491574 -0.0297013 0)
(-0.0126039 -0.0160488 0)
(-0.0287278 -0.00296936 0)
(-0.0434727 0.00388159 0)
(-0.0476567 0.000189879 0)
(-0.0396075 -0.00793596 0)
(-0.0258122 -0.0177247 0)
(-0.0107452 -0.0282206 0)
(0.00332444 -0.0365071 0)
(0.0158089 -0.0403171 0)
(0.0258111 -0.0365066 0)
(0.0320882 -0.028103 0)
(0.033794 -0.0218658 0)
(0.0341569 -0.019261 0)
(0.0384922 -0.0168152 0)
(0.046602 -0.0172458 0)
(0.057071 -0.0169873 0)
(0.0663489 -0.0139335 0)
(0.0719235 -0.00623403 0)
(0.0739414 0.00592969 0)
(0.0739062 0.0207919 0)
(0.0719904 0.0357244 0)
(0.0666764 0.0458951 0)
(0.0581346 0.0503114 0)
(0.0486873 0.0539617 0)
(0.0381169 0.0593333 0)
(0.0255709 0.0634029 0)
(0.0120863 0.0622876 0)
(-0.00110487 0.0543377 0)
(-0.0270033 0.0571166 0)
(-0.0648098 0.0735414 0)
(-0.0929604 0.0816221 0)
(-0.105381 0.0780106 0)
(-0.108406 0.0744758 0)
(-0.108286 0.075571 0)
(-0.107103 0.0760265 0)
(-0.106166 0.0696436 0)
(-0.107243 0.0578602 0)
(-0.111542 0.0466928 0)
(-0.118341 0.0401004 0)
(-0.124992 0.0383285 0)
(-0.129054 0.0393486 0)
(-0.129934 0.0388993 0)
(-0.128876 0.0342951 0)
(-0.1271 0.0264579 0)
(-0.125289 0.0179695 0)
(-0.124086 0.0117705 0)
(-0.124044 0.00752036 0)
(-0.124667 0.00281744 0)
(-0.124274 -0.00259901 0)
(-0.121502 -0.00784735 0)
(-0.116767 -0.0119763 0)
(-0.111705 -0.0149971 0)
(-0.107372 -0.0179402 0)
(-0.103668 -0.0215566 0)
(-0.100111 -0.0257441 0)
(-0.0964834 -0.0296378 0)
(-0.0928475 -0.0323129 0)
(-0.08917 -0.0335103 0)
(-0.0853005 -0.0338138 0)
(-0.08117 -0.0340946 0)
(-0.0768959 -0.0349686 0)
(-0.0726245 -0.036507 0)
(-0.0682069 -0.0383879 0)
(-0.0630477 -0.0403236 0)
(-0.05622 -0.041768 0)
(-0.0468293 -0.0409654 0)
(-0.0347562 -0.0352244 0)
(-0.0210353 -0.0227036 0)
(-0.00808536 -0.00503128 0)
(-0.00186877 0.00983024 0)
(-0.00653818 0.00841598 0)
(-0.0110211 0.00335394 0)
(-0.0156159 -0.00148789 0)
(-0.0226702 -0.00524634 0)
(-0.0325472 -0.0117108 0)
(-0.0406516 -0.0227739 0)
(-0.0421842 -0.0308105 0)
(-0.0379731 -0.0294319 0)
(-0.0332088 -0.0192371 0)
(-0.0299401 -0.00382708 0)
(-0.0279747 0.0158389 0)
(-0.0328647 0.0242288 0)
(-0.0405572 0.0101394 0)
(-0.0421345 -0.00733288 0)
(-0.0420627 -0.0046626 0)
(-0.0417192 0.0108986 0)
(-0.0432379 0.0178865 0)
(-0.0456082 0.0143938 0)
(-0.0455971 0.0074842 0)
(-0.0451922 0.00114882 0)
(-0.0475717 -0.00198732 0)