/*--------------------------------*- C++ -*----------------------------------*\
| =========                 |                                                 |
| \\      /  F ield         | OpenFOAM: The Open Source CFD Toolbox           |
|  \\    /   O peration     | Version:  2412                                  |
|   \\  /    A nd           | Website:  www.openfoam.com                      |
|    \\/     M anipulation  |                                                 |
\*---------------------------------------------------------------------------*/
FoamFile
{
    version     2.0;
    format      ascii;
    arch        "LSB;label=32;scalar=64";
    class       volScalarField;
    location    "1.1";
    object      alpha.water;
}
// * * * * * * * * * * * * * * * * * * * * * * * * * * * * * * * * * * * * * //

dimensions      [0 0 0 0 0 0 0];

internalField   nonuniform List<scalar> 
40000
(
1.58232e-195
1.81306e-186
1.07634e-185
1.33165e-185
1.36252e-185
1.29552e-185
1.18148e-185
1.04568e-185
9.01836e-186
7.59811e-186
6.25348e-186
5.02316e-186
3.93464e-186
3.00176e-186
2.22741e-186
1.60511e-186
1.12135e-186
7.58179e-187
4.95198e-187
3.11822e-187
1.88907e-187
1.0986e-187
6.11851e-188
3.25433e-188
1.64745e-188
7.90338e-189
3.57417e-189
1.51352e-189
5.95872e-190
2.16664e-190
7.23647e-191
2.21149e-191
6.16915e-192
1.56688e-192
3.59742e-193
7.34847e-194
1.31037e-194
2.01456e-195
2.66227e-196
3.0227e-197
2.9144e-198
2.34339e-199
1.55556e-200
8.50651e-202
3.82839e-203
1.4187e-204
4.34261e-206
1.10385e-207
2.34514e-209
4.19149e-211
6.33556e-213
8.11197e-215
8.7381e-217
7.70188e-219
6.15136e-221
4.90741e-223
3.88877e-225
3.05844e-227
2.38536e-229
1.8433e-231
1.41005e-233
1.06675e-235
7.9736e-238
5.88262e-240
4.27909e-242
3.06562e-244
2.16058e-246
1.49618e-248
1.01675e-250
6.77151e-253
4.41362e-255
2.8113e-257
1.74723e-259
1.05783e-261
6.2281e-264
3.55929e-266
1.97055e-268
1.05466e-270
5.44443e-273
2.70427e-275
1.289e-277
5.87911e-280
2.55771e-282
1.0577e-284
4.14168e-287
1.52904e-289
5.29649e-292
1.71195e-294
5.13073e-297
1.41531e-299
3.56234e-302
8.0963e-305
1.64035e-307
2.91523e-310
4.44995e-313
5.92153e-316
0
0
0
0
0
0
0
0
2.96077e-315
2.19198e-312
1.36321e-309
7.29011e-307
3.42374e-304
1.4351e-301
5.4381e-299
1.88252e-296
6.00537e-294
1.77846e-291
4.92045e-289
1.27883e-286
3.13741e-284
7.29706e-282
1.61515e-279
3.41406e-277
6.91336e-275
1.34497e-272
2.5205e-270
4.56104e-268
7.98765e-266
1.35662e-263
2.23886e-261
3.59681e-259
5.63469e-257
8.62154e-255
1.29039e-252
1.89192e-250
2.72097e-248
3.84364e-246
5.33947e-244
7.30297e-242
9.84544e-240
1.3097e-237
1.72089e-235
2.23569e-233
2.87445e-231
3.66081e-229
4.6223e-227
5.79111e-225
7.20507e-223
8.90888e-221
1.09557e-218
1.21566e-216
1.09899e-214
8.33769e-213
5.35501e-211
2.91131e-209
1.33388e-207
5.11816e-206
1.63397e-204
4.31694e-203
9.41032e-202
1.69195e-200
2.51134e-199
3.08363e-198
3.16468e-197
2.76319e-196
2.07521e-195
1.34085e-194
7.47711e-194
3.64381e-193
1.58119e-192
6.20643e-192
2.21909e-191
7.24563e-191
2.16558e-190
5.9475e-190
1.50884e-189
3.5587e-189
7.85878e-189
1.63595e-188
3.22775e-188
6.06308e-188
1.0881e-187
1.87067e-187
3.08784e-187
4.90396e-187
7.50763e-187
1.11008e-186
1.58831e-186
2.20306e-186
2.96787e-186
3.88961e-186
4.96608e-186
6.18483e-186
7.52111e-186
8.93875e-186
1.03926e-185
1.18314e-185
1.32004e-185
1.44304e-185
1.5283e-185
1.37642e-185
2.37201e-186
8.39684e-196
8.23457e-192
8.60587e-183
4.37137e-182
5.05494e-182
5.01833e-182
4.74595e-182
4.34801e-182
3.877e-182
3.37344e-182
2.86758e-182
2.38132e-182
1.93073e-182
1.52711e-182
1.17699e-182
8.82839e-183
6.43532e-183
4.55131e-183
3.11794e-183
2.06526e-183
1.32021e-183
8.12829e-184
4.80979e-184
2.72913e-184
1.48091e-184
7.65929e-185
3.75946e-185
1.74197e-185
7.56809e-186
3.0608e-186
1.14477e-186
3.93866e-187
1.24219e-187
3.5843e-188
9.44264e-189
2.25501e-189
4.8017e-190
8.93905e-191
1.43713e-191
1.99127e-192
2.37902e-193
2.42063e-194
2.05711e-195
1.44536e-196
8.38394e-198
4.01089e-199
1.58334e-200
5.17737e-202
1.41183e-203
3.23909e-205
6.3158e-207
1.05809e-208
1.53989e-210
1.96685e-212
2.22335e-214
2.38771e-216
2.55144e-218
2.70524e-220
2.84406e-222
2.96254e-224
3.05522e-226
3.11685e-228
3.14275e-230
3.12918e-232
3.0737e-234
2.97557e-236
2.83596e-238
2.6581e-240
2.44727e-242
2.21054e-244
1.95645e-246
1.69433e-248
1.43373e-250
1.18364e-252
9.51826e-255
7.44279e-257
5.64891e-259
4.15335e-261
2.9521e-263
2.02389e-265
1.33509e-267
8.45198e-270
5.12017e-272
2.95885e-274
1.62543e-276
8.45578e-279
4.14774e-281
1.90916e-283
8.2008e-286
3.26668e-288
1.19784e-290
4.00824e-293
1.21126e-295
3.2635e-298
7.71399e-301
1.56639e-303
2.65547e-306
3.60674e-309
3.67824e-312
2.50099e-315
0
0
7.93079e-315
1.13949e-311
1.09395e-308
7.88339e-306
4.55095e-303
2.19326e-300
9.08039e-298
3.29825e-295
1.0682e-292
3.12452e-290
8.34106e-288
2.04997e-285
4.67267e-283
9.94087e-281
1.98482e-278
3.73732e-276
6.66518e-274
1.13019e-271
1.82847e-269
2.83133e-267
4.20835e-265
6.02003e-263
8.30825e-261
1.10873e-258
1.4337e-256
1.79993e-254
2.19794e-252
2.61507e-250
3.03643e-248
3.44599e-246
3.82793e-244
4.16777e-242
4.45345e-240
4.67601e-238
4.83e-236
4.91352e-234
4.92801e-232
4.87776e-230
4.7693e-228
4.61074e-226
4.41105e-224
4.17951e-222
3.92518e-220
3.65647e-218
3.3809e-216
3.10493e-214
2.6984e-212
2.06606e-210
1.38421e-208
8.0461e-207
4.01927e-205
1.70816e-203
6.11583e-202
1.82862e-200
4.53572e-199
9.30032e-198
1.5761e-196
2.20969e-195
2.56663e-194
2.49562e-193
2.07052e-192
1.48299e-191
9.16307e-191
4.89465e-190
2.28846e-189
9.54822e-189
3.61375e-188
1.24925e-187
3.9526e-187
1.14678e-186
3.06177e-186
7.56141e-186
1.73858e-185
3.74845e-185
7.62976e-185
1.47404e-184
2.71502e-184
4.78354e-184
8.08342e-184
1.31303e-183
2.0544e-183
3.10219e-183
4.52936e-183
6.40611e-183
8.79189e-183
1.17288e-182
1.52327e-182
1.92863e-182
2.38357e-182
2.87858e-182
3.40044e-182
3.93283e-182
4.4574e-182
4.95499e-182
5.40188e-182
5.7149e-182
5.16656e-182
9.21316e-183
4.44906e-192
1.65604e-188
1.50731e-179
7.32333e-179
8.18135e-179
7.96233e-179
7.4774e-179
6.84808e-179
6.12598e-179
5.35824e-179
4.58388e-179
3.83419e-179
3.13365e-179
2.50029e-179
1.94537e-179
1.47419e-179
1.08651e-179
7.77614e-180
5.39578e-180
3.62362e-180
2.35095e-180
1.47068e-180
8.85298e-181
5.11677e-181
2.83209e-181
1.49622e-181
7.51242e-182
3.56568e-182
1.58884e-182
6.59843e-183
2.53724e-183
8.9875e-184
2.92339e-184
8.71968e-185
2.38112e-185
5.91021e-186
1.31043e-186
2.54275e-187
4.26566e-188
6.18137e-189
7.74881e-190
8.28873e-191
7.40369e-192
5.46499e-193
3.33031e-194
1.6723e-195
6.91517e-197
2.36244e-198
6.71217e-200
1.60032e-201
3.23558e-203
5.61152e-205
8.44876e-207
1.1175e-208
1.31293e-210
1.46625e-212
1.6278e-214
1.7921e-216
1.95531e-218
2.1128e-220
2.25928e-222
2.38896e-224
2.49585e-226
2.57403e-228
2.61815e-230
2.62385e-232
2.58821e-234
2.51019e-236
2.39093e-238
2.23386e-240
2.04468e-242
1.83102e-244
1.60192e-246
1.36716e-248
1.1364e-250
9.18423e-253
7.20387e-255
5.47343e-257
4.01994e-259
2.84758e-261
1.94077e-263
1.26934e-265
7.94399e-268
4.74239e-270
2.69122e-272
1.4462e-274
7.32781e-277
3.48405e-279
1.54587e-281
6.36058e-284
2.40913e-286
8.32699e-289
2.59925e-291
7.23398e-294
1.7663e-296
3.70502e-299
6.48868e-302
9.10504e-305
9.59421e-308
6.74738e-311
2.37591e-314
6.98954e-314
1.96087e-310
2.74498e-307
2.5616e-304
1.79402e-301
1.00635e-298
4.71211e-296
1.89518e-293
6.68648e-291
2.10321e-288
5.9742e-286
1.54858e-283
3.6951e-281
8.17631e-279
1.68841e-276
3.27175e-274
5.97821e-272
1.03447e-269
1.70174e-267
2.67056e-265
4.01067e-263
5.78072e-261
8.01763e-259
1.07266e-256
1.38743e-254
1.7386e-252
2.11483e-250
2.50168e-248
2.88276e-246
3.24119e-244
3.56105e-242
3.8287e-240
4.03375e-238
4.16975e-236
4.23427e-234
4.22879e-232
4.15811e-230
4.02967e-228
3.85268e-226
3.63733e-224
3.39399e-222
3.13263e-220
2.86234e-218
2.591e-216
2.32514e-214
2.06986e-212
1.82896e-210
1.53068e-208
1.13304e-206
7.34699e-205
4.13043e-203
1.99175e-201
8.1497e-200
2.80076e-198
8.01328e-197
1.89666e-195
3.70334e-194
5.97141e-193
7.96634e-192
8.80115e-191
8.13875e-190
6.43491e-189
4.40679e-188
2.60935e-187
1.33727e-186
6.00479e-186
2.41069e-185
8.8027e-185
2.94397e-184
9.03164e-184
2.54516e-183
6.60934e-183
1.58958e-182
3.56384e-182
7.50235e-182
1.49315e-181
2.82464e-181
5.1014e-181
8.82484e-181
1.466e-180
2.34379e-180
3.61345e-180
5.38249e-180
7.76052e-180
1.08495e-179
1.47321e-179
1.9461e-179
2.50469e-179
3.145e-179
3.85757e-179
4.62703e-179
5.43299e-179
6.25074e-179
7.05273e-179
7.81038e-179
8.48878e-179
8.9628e-179
8.11558e-179
1.49048e-179
9.96586e-189
2.08569e-185
1.54162e-176
7.36607e-176
8.10287e-176
7.80156e-176
7.2951e-176
6.67886e-176
5.98944e-176
5.26138e-176
4.52613e-176
3.81086e-176
3.13796e-176
2.52466e-176
1.98241e-176
1.51735e-176
1.13054e-176
8.18704e-177
5.75358e-177
3.91726e-177
2.57931e-177
1.63945e-177
1.00399e-177
5.91113e-178
3.33758e-178
1.80136e-178
9.25316e-179
4.49943e-179
2.05658e-179
8.77122e-180
3.46782e-180
1.26479e-180
4.24351e-181
1.30865e-181
3.70542e-182
9.56328e-183
2.20877e-183
4.46841e-184
7.82386e-185
1.1862e-185
1.56131e-186
1.75702e-187
1.65036e-188
1.28036e-189
8.20185e-191
4.32489e-192
1.87332e-193
6.6817e-195
1.97475e-196
4.87887e-198
1.01821e-199
1.81571e-201
2.80003e-203
3.77944e-205
4.51653e-207
5.1133e-209
5.75071e-211
6.41056e-213
7.07889e-215
7.73828e-217
8.36813e-219
8.94521e-221
9.44458e-223
9.84093e-225
1.01102e-226
1.02315e-228
1.01891e-230
9.97448e-233
9.58766e-235
9.03834e-237
8.34589e-239
7.53857e-241
6.65159e-243
5.72447e-245
4.79765e-247
3.90906e-249
3.09089e-251
2.36714e-253
1.75223e-255
1.25089e-257
8.5913e-260
5.66201e-262
3.57037e-264
2.14746e-266
1.22774e-268
6.64651e-271
3.39252e-273
1.62479e-275
7.26162e-278
3.00943e-280
1.14805e-282
3.99655e-285
1.2564e-287
3.5215e-290
8.65914e-293
1.82915e-295
3.22593e-298
4.55843e-301
4.83699e-304
3.42563e-307
1.21546e-310
3.56531e-310
9.9363e-307
1.38205e-303
1.28136e-300
8.91531e-298
4.96801e-295
2.31072e-292
9.23128e-290
3.23495e-287
1.01062e-284
2.85101e-282
7.33911e-280
1.73901e-277
3.82096e-275
7.83443e-273
1.50729e-270
2.7343e-268
4.69699e-266
7.66991e-264
1.19471e-261
1.78074e-259
2.54715e-257
3.50563e-255
4.65359e-253
5.97169e-251
7.42332e-249
8.95644e-247
1.05074e-244
1.20067e-242
1.33846e-240
1.45781e-238
1.55355e-236
1.62203e-234
1.66132e-232
1.6712e-230
1.65303e-228
1.60944e-226
1.54401e-224
1.46094e-222
1.36461e-220
1.25938e-218
1.14929e-216
1.03789e-214
9.28174e-213
8.22524e-211
7.22718e-209
6.2998e-207
5.18534e-205
3.76343e-203
2.38429e-201
1.30456e-199
6.09701e-198
2.40757e-196
7.95139e-195
2.17777e-193
4.9177e-192
9.13851e-191
1.40114e-189
1.77791e-188
1.86738e-187
1.64117e-186
1.23579e-185
8.08882e-185
4.5888e-184
2.25563e-183
9.72359e-183
3.7544e-182
1.32221e-181
4.27708e-181
1.27212e-180
3.48171e-180
8.79344e-180
2.05935e-179
4.50128e-179
9.25002e-179
1.79965e-178
3.33283e-178
5.90095e-178
1.00214e-177
1.63648e-177
2.57501e-177
3.91179e-177
5.74778e-177
8.18313e-177
1.13077e-176
1.51899e-176
1.98682e-176
2.53398e-176
3.15545e-176
3.84128e-176
4.57631e-176
5.34109e-176
6.11265e-176
6.86562e-176
7.57389e-176
8.20585e-176
8.64527e-176
7.837e-176
1.48162e-176
1.37965e-185
1.92175e-182
1.09809e-173
5.17654e-173
5.66037e-173
5.42347e-173
5.06195e-173
4.63741e-173
4.17003e-173
3.67849e-173
3.18144e-173
2.6958e-173
2.23605e-173
1.8138e-173
1.43717e-173
1.11099e-173
8.3677e-174
6.13119e-174
4.36389e-174
3.01219e-174
2.013e-174
1.30015e-174
8.10076e-175
4.85923e-175
2.79934e-175
1.54382e-175
8.11499e-176
4.04354e-176
1.89624e-176
8.30712e-177
3.37755e-177
1.26861e-177
4.39134e-178
1.40065e-178
4.11423e-179
1.10477e-179
2.65952e-180
5.61239e-181
1.02621e-181
1.6291e-182
2.25408e-183
2.67208e-184
2.64252e-185
2.1578e-186
1.45587e-187
8.07912e-189
3.67369e-190
1.37101e-191
4.22383e-193
1.08351e-194
2.33831e-196
4.29397e-198
6.79044e-200
9.35988e-202
1.13765e-203
1.30453e-205
1.48496e-207
1.67457e-209
1.86971e-211
2.06571e-213
2.25681e-215
2.43637e-217
2.59703e-219
2.73112e-221
2.8311e-223
2.89011e-225
2.90262e-227
2.86503e-229
2.77621e-231
2.63784e-233
2.45461e-235
2.23398e-237
1.98581e-239
1.72151e-241
1.45317e-243
1.1924e-245
9.49404e-248
7.32096e-250
5.45601e-252
3.92108e-254
2.71091e-256
1.79831e-258
1.14135e-260
6.90897e-263
3.97515e-265
2.16558e-267
1.11229e-269
5.36023e-272
2.41041e-274
1.00507e-276
3.85749e-279
1.35098e-281
4.27263e-284
1.2047e-286
2.97989e-289
6.33188e-292
1.12327e-294
1.59653e-297
1.70395e-300
1.21376e-303
4.33148e-307
1.28664e-306
3.56502e-303
4.92966e-300
4.54359e-297
3.14256e-294
1.74073e-291
8.04791e-289
3.1957e-286
1.11307e-283
3.45601e-281
9.68947e-279
2.47879e-276
5.83674e-274
1.27437e-271
2.59633e-269
4.96313e-267
8.9451e-265
1.52656e-262
2.47634e-260
3.83158e-258
5.6726e-256
8.05875e-254
1.10147e-251
1.45196e-249
1.85003e-247
2.28325e-245
2.73474e-243
3.18459e-241
3.6116e-239
3.99527e-237
4.31759e-235
4.56454e-233
4.72704e-231
4.80137e-229
4.78891e-227
4.69559e-225
4.53092e-223
4.30682e-221
4.03657e-219
3.73368e-217
3.41109e-215
3.08047e-213
2.75185e-211
2.43335e-209
2.13119e-207
1.84978e-205
1.59189e-203
1.28859e-201
9.16231e-200
5.6635e-198
3.01033e-196
1.36066e-194
5.17307e-193
1.63792e-191
4.28404e-190
9.20796e-189
1.62484e-187
2.36423e-186
2.84937e-185
2.84174e-184
2.3706e-183
1.69811e-182
1.06154e-181
5.76662e-181
2.71731e-180
1.12387e-179
4.17088e-179
1.41597e-178
4.42875e-178
1.27675e-177
3.3932e-177
8.3334e-177
1.90001e-176
4.04781e-176
8.11776e-176
1.54347e-175
2.79754e-175
4.85485e-175
8.09266e-175
1.29888e-174
2.01134e-174
3.0105e-174
4.36314e-174
6.13344e-174
8.37655e-174
1.11314e-173
1.44156e-173
1.82186e-173
2.24985e-173
2.71821e-173
3.21638e-173
3.73126e-173
4.24764e-173
4.74893e-173
5.21839e-173
5.63584e-173
5.92445e-173
5.37643e-173
1.04653e-173
1.36545e-182
1.38896e-179
5.93467e-171
2.75319e-170
3.00351e-170
2.87343e-170
2.68201e-170
2.46126e-170
2.22014e-170
1.96696e-170
1.71039e-170
1.45854e-170
1.21862e-170
9.9659e-171
7.96812e-171
6.22104e-171
4.7365e-171
3.51158e-171
2.53143e-171
1.7716e-171
1.20173e-171
7.8878e-172
5.00104e-172
3.05692e-172
1.79721e-172
1.01304e-172
5.45058e-173
2.78386e-173
1.3398e-173
6.03034e-174
2.52197e-174
9.75717e-175
3.48555e-175
1.15029e-175
3.5072e-176
9.80514e-177
2.46186e-177
5.42241e-178
1.03598e-178
1.72347e-179
2.5099e-180
3.13855e-181
3.27205e-182
2.81657e-183
2.00584e-184
1.17425e-185
5.61907e-187
2.19974e-188
7.08279e-190
1.89134e-191
4.23145e-193
8.02172e-195
1.304e-196
1.83978e-198
2.27935e-200
2.65161e-202
3.05972e-204
3.49566e-206
3.95216e-208
4.41932e-210
4.88451e-212
5.33259e-214
5.74628e-216
6.10695e-218
6.39562e-220
6.5943e-222
6.68752e-224
6.66387e-226
6.51751e-228
6.24927e-230
5.86729e-232
5.38694e-234
4.82995e-236
4.22281e-238
3.5945e-240
2.97391e-242
2.38723e-244
1.8557e-246
1.39403e-248
1.00978e-250
7.03598e-253
4.70364e-255
3.00828e-257
1.83493e-259
1.06375e-261
5.83872e-264
3.02131e-266
1.46683e-268
6.6448e-271
2.79103e-273
1.07904e-275
3.8065e-278
1.21256e-280
3.44351e-283
8.57869e-286
1.83586e-288
3.27992e-291
4.69478e-294
5.04596e-297
3.61954e-300
1.3007e-303
3.93065e-303
1.08138e-299
1.48465e-296
1.35857e-293
9.32882e-291
5.13003e-288
2.35451e-285
9.28098e-283
3.20881e-280
9.8895e-278
2.75206e-275
6.98773e-273
1.633e-270
3.53843e-268
7.15405e-266
1.35707e-263
2.42696e-261
4.10955e-259
6.61405e-257
1.01527e-254
1.49109e-252
2.10123e-250
2.84859e-248
3.7241e-246
4.70562e-244
5.75861e-242
6.83849e-240
7.89453e-238
8.87455e-236
9.72988e-234
1.04197e-231
1.09142e-229
1.11967e-227
1.12639e-225
1.11249e-223
1.07991e-221
1.03137e-219
9.70071e-218
8.99394e-216
8.22676e-214
7.42997e-212
6.63054e-210
5.85075e-208
5.10796e-206
4.41469e-204
3.77909e-202
3.2055e-200
2.5461e-198
1.76928e-196
1.06426e-194
5.48022e-193
2.38868e-191
8.71815e-190
2.63874e-188
6.57297e-187
1.34128e-185
2.24198e-184
3.08924e-183
3.53081e-182
3.33944e-181
2.64062e-180
1.79717e-179
1.0721e-178
5.57361e-178
2.51627e-177
9.97837e-177
3.55689e-176
1.16337e-175
3.51684e-175
9.82437e-175
2.53485e-174
6.05226e-174
1.34309e-173
2.7881e-173
5.45509e-173
1.01333e-172
1.79702e-172
3.05587e-172
4.99882e-172
7.88439e-172
1.20135e-171
1.77149e-171
2.53221e-171
3.51447e-171
4.74349e-171
6.2353e-171
7.99458e-171
1.00115e-170
1.22603e-170
1.47006e-170
1.72765e-170
1.99208e-170
2.25568e-170
2.51022e-170
2.74755e-170
2.95785e-170
3.10236e-170
2.81849e-170
5.65105e-171
1.04094e-179
8.19146e-177
2.5514e-168
1.16104e-167
1.26538e-167
1.21093e-167
1.13176e-167
1.04116e-167
9.42499e-168
8.38842e-168
7.33457e-168
6.29492e-168
5.29803e-168
4.36833e-168
3.52442e-168
2.77917e-168
2.13907e-168
1.60472e-168
1.17173e-168
8.31493e-169
5.72569e-169
3.81987e-169
2.46495e-169
1.53573e-169
9.21681e-170
5.31168e-170
2.92633e-170
1.53253e-170
7.57177e-171
3.50236e-171
1.50699e-171
6.00698e-172
2.2152e-172
7.56743e-173
2.3965e-173
6.98102e-174
1.82943e-174
4.20808e-175
8.40563e-176
1.46672e-176
2.25121e-177
2.97369e-178
3.27236e-179
2.97407e-180
2.24064e-181
1.38718e-182
7.00325e-184
2.88359e-185
9.7305e-187
2.71233e-188
6.30801e-190
1.2378e-191
2.0738e-193
3.00251e-195
3.80117e-197
4.4945e-199
5.2668e-201
6.10673e-203
7.00288e-205
7.9384e-207
8.89056e-209
9.83082e-211
1.07254e-212
1.15365e-214
1.22241e-216
1.27486e-218
1.30738e-220
1.31705e-222
1.30198e-224
1.26157e-226
1.19674e-228
1.10997e-230
1.00521e-232
8.87557e-235
7.62889e-237
6.37278e-239
5.1645e-241
4.05258e-243
3.0729e-245
2.24656e-247
1.57979e-249
1.06577e-251
6.87815e-254
4.23323e-256
2.4761e-258
1.3712e-260
7.15832e-263
3.50596e-265
1.60216e-267
6.78839e-270
2.64728e-272
9.41965e-275
3.02651e-277
8.66878e-280
2.17811e-282
4.70096e-285
8.47006e-288
1.22265e-290
1.32519e-293
9.58566e-297
3.47349e-300
1.07145e-299
2.92267e-296
3.97839e-293
3.60937e-290
2.45711e-287
1.33953e-284
6.09469e-282
2.38148e-279
8.16174e-277
2.49333e-274
6.87719e-272
1.73069e-269
4.00849e-267
8.60782e-265
1.72466e-262
3.2419e-260
5.74488e-258
9.6385e-256
1.53692e-253
2.33727e-251
3.40048e-249
4.74664e-247
6.37358e-245
8.25237e-243
1.03261e-240
1.25129e-238
1.47119e-236
1.68133e-234
1.87083e-232
2.03e-230
2.15117e-228
2.22932e-226
2.26232e-224
2.25086e-222
2.19815e-220
2.10934e-218
1.99095e-216
1.85016e-214
1.69427e-212
1.53016e-210
1.36398e-208
1.20089e-206
1.04496e-204
8.99176e-203
7.65534e-201
6.4513e-199
5.38329e-197
4.18502e-195
2.83447e-193
1.65442e-191
8.22832e-190
3.4479e-188
1.2043e-186
3.47389e-185
8.21774e-184
1.58792e-182
2.50791e-181
3.26502e-180
3.53344e-179
3.16521e-178
2.36905e-177
1.52988e-176
8.70154e-176
4.32675e-175
1.87037e-174
7.10625e-174
2.43116e-173
7.65601e-173
2.23588e-172
6.05055e-172
1.51523e-171
3.51634e-171
7.59297e-171
1.5354e-170
2.92981e-170
5.31521e-170
9.21941e-170
1.5358e-169
2.46477e-169
3.81954e-169
5.72574e-169
8.31678e-169
1.17239e-168
1.60638e-168
2.14256e-168
2.78573e-168
3.53595e-168
4.38736e-168
5.32791e-168
6.33987e-168
7.39987e-168
8.48058e-168
9.55131e-168
1.05797e-167
1.15344e-167
1.23774e-167
1.29529e-167
1.17808e-167
2.43437e-168
6.39053e-177
4.04112e-174
8.97796e-166
3.99577e-165
4.35276e-165
4.17065e-165
3.90613e-165
3.60415e-165
3.27533e-165
2.9291e-165
2.57566e-165
2.22504e-165
1.88656e-165
1.56838e-165
1.27698e-165
1.01708e-165
7.91431e-166
6.00831e-166
4.44414e-166
3.19818e-166
2.23599e-166
1.51651e-166
9.96243e-167
6.32831e-167
3.87842e-167
2.28613e-167
1.29016e-167
6.9308e-168
3.51664e-168
1.67221e-168
7.40472e-169
3.04185e-169
1.15839e-169
4.09843e-170
1.34912e-170
4.09847e-171
1.1219e-171
2.69669e-172
5.63524e-173
1.03234e-173
1.67241e-174
2.33709e-175
2.71811e-176
2.61245e-177
2.08711e-178
1.36996e-179
7.31563e-181
3.17704e-182
1.12685e-183
3.28847e-185
7.97311e-187
1.62401e-188
2.81198e-190
4.18924e-192
5.43368e-194
6.5431e-196
7.8012e-198
9.1965e-200
1.07155e-201
1.23349e-203
1.40208e-205
1.57279e-207
1.73999e-209
1.89712e-211
2.03692e-213
2.15188e-215
2.23479e-217
2.27931e-219
2.28071e-221
2.2364e-223
2.14649e-225
2.01399e-227
1.84479e-229
1.6473e-231
1.43174e-233
1.20923e-235
9.90691e-238
7.85829e-240
6.02271e-242
4.45013e-244
3.16252e-246
2.15598e-248
1.40597e-250
8.74325e-253
5.16704e-255
2.89084e-257
1.52464e-259
7.54353e-262
3.48231e-264
1.49041e-266
5.87086e-269
2.11001e-271
6.84737e-274
1.98088e-276
5.02673e-279
1.09568e-281
1.99371e-284
2.90631e-287
3.18104e-290
2.32354e-293
8.50182e-297
2.68567e-296
7.25344e-293
9.77565e-290
8.78071e-287
5.91791e-284
3.19393e-281
1.43858e-278
5.5645e-276
1.88773e-273
5.70816e-271
1.55837e-268
3.88152e-266
8.8975e-264
1.89088e-261
3.74919e-259
6.97386e-257
1.22284e-254
2.02998e-252
3.20256e-250
4.81825e-248
6.93466e-246
9.57509e-244
1.27167e-241
1.62842e-239
2.01503e-237
2.4144e-235
2.8066e-233
3.17081e-231
3.48738e-229
3.73975e-227
3.91593e-225
4.0093e-223
4.01885e-221
3.94872e-219
3.80736e-217
3.6063e-215
3.35894e-213
3.07926e-211
2.78077e-209
2.47573e-207
2.1746e-205
1.88573e-203
1.61532e-201
1.36755e-199
1.1448e-197
9.4793e-196
7.76603e-194
5.89296e-192
3.87883e-190
2.19013e-188
1.04873e-186
4.21087e-185
1.40293e-183
3.84456e-182
8.61147e-181
1.57153e-179
2.3391e-178
2.87043e-177
2.93668e-176
2.48834e-175
1.76024e-174
1.07702e-173
5.83519e-173
2.77342e-172
1.14722e-171
4.17281e-171
1.36893e-170
4.14748e-170
1.16954e-169
3.0648e-169
7.44735e-169
1.67935e-168
3.52745e-168
6.94568e-168
1.29206e-167
2.2883e-167
3.88061e-167
6.33031e-167
9.96423e-167
1.51672e-166
2.23644e-166
3.19938e-166
4.44714e-166
6.01488e-166
7.92712e-166
1.01938e-165
1.28086e-165
1.57459e-165
1.89603e-165
2.23895e-165
2.59537e-165
2.95621e-165
3.3115e-165
3.65092e-165
3.96461e-165
4.24068e-165
4.42775e-165
4.03174e-165
8.59242e-166
3.25205e-174
1.69593e-171
2.63212e-163
1.14265e-162
1.24425e-162
1.19431e-162
1.12144e-162
1.0382e-162
9.47412e-163
8.51488e-163
7.53103e-163
6.54921e-163
5.59459e-163
4.68995e-163
3.85385e-163
3.10063e-163
2.43947e-163
1.87433e-163
1.40458e-163
1.02522e-163
7.27898e-164
5.02007e-164
3.35835e-164
2.17583e-164
1.36233e-164
8.2174e-165
4.75277e-165
2.62029e-165
1.36596e-165
6.67969e-166
3.04496e-166
1.28954e-166
5.07334e-167
1.86017e-167
6.37054e-168
2.02035e-168
5.78199e-169
1.45332e-169
3.17926e-170
6.12108e-171
1.04833e-171
1.55228e-172
1.91049e-173
1.9451e-174
1.65203e-175
1.15272e-176
6.52803e-178
2.99891e-179
1.1215e-180
3.43728e-182
8.71504e-184
1.84813e-185
3.31688e-187
5.09912e-189
6.79496e-191
8.35037e-193
1.01497e-194
1.21881e-196
1.44553e-198
1.69269e-200
1.95608e-202
2.22963e-204
2.50527e-206
2.77309e-208
3.02163e-210
3.23845e-212
3.41093e-214
3.52727e-216
3.57761e-218
3.55521e-220
3.45739e-222
3.28624e-224
3.04889e-226
2.75711e-228
2.42646e-230
2.07487e-232
1.72086e-234
1.38171e-236
1.07182e-238
8.01508e-241
5.76423e-243
3.97645e-245
2.62386e-247
1.65092e-249
9.87104e-252
5.58717e-254
2.98098e-256
1.49202e-258
6.96721e-261
3.01628e-263
1.20178e-265
4.36871e-268
1.43391e-270
4.19542e-273
1.07673e-275
2.37353e-278
4.36767e-281
6.4386e-284
7.12634e-287
5.26354e-290
1.94737e-293
6.32079e-293
1.68791e-289
2.24919e-286
1.99743e-283
1.33094e-280
7.1014e-278
3.16203e-275
1.20907e-272
4.05457e-270
1.21189e-267
3.27024e-265
8.05072e-263
1.82392e-260
3.83076e-258
7.50621e-256
1.37974e-253
2.39062e-251
3.92123e-249
6.11213e-247
9.08488e-245
1.29169e-242
1.76175e-240
2.31105e-238
2.92277e-236
3.57155e-234
4.22558e-232
4.84963e-230
5.40868e-228
5.87154e-226
6.21383e-224
6.42009e-222
6.4846e-220
6.41114e-218
6.21169e-216
5.90458e-214
5.51213e-212
5.05848e-210
4.56749e-208
4.06115e-206
3.55846e-204
3.07477e-202
2.6216e-200
2.20677e-198
1.83476e-196
1.50728e-194
1.22384e-192
9.8231e-191
7.25442e-189
4.62616e-187
2.51868e-185
1.15725e-183
4.437e-182
1.40517e-180
3.64589e-179
7.70891e-178
1.32507e-176
1.85373e-175
2.13881e-174
2.06523e-173
1.65312e-172
1.10348e-171
6.38694e-171
3.29281e-170
1.49497e-169
5.91342e-169
2.05728e-168
6.46509e-168
1.88282e-167
5.12334e-167
1.29958e-166
3.06321e-166
6.70972e-166
1.37045e-165
2.62648e-165
4.76077e-165
8.22697e-165
1.36339e-164
2.17694e-164
3.35954e-164
5.0215e-164
7.28122e-164
1.02568e-163
1.40556e-163
1.87631e-163
2.44314e-163
3.107e-163
3.8643e-163
4.70624e-163
5.61892e-163
6.58419e-163
7.57966e-163
8.58035e-163
9.5594e-163
1.04896e-162
1.13456e-162
1.20961e-162
1.26007e-162
1.14874e-162
2.52731e-163
1.39891e-171
6.12509e-169
6.49597e-161
2.74398e-160
2.98664e-160
2.87269e-160
2.70514e-160
2.51338e-160
2.30359e-160
2.08103e-160
1.85155e-160
1.62108e-160
1.39534e-160
1.17962e-160
9.7838e-161
7.95235e-161
6.32677e-161
4.92051e-161
3.73638e-161
2.76675e-161
1.99537e-161
1.39981e-161
9.54014e-162
6.30724e-162
4.03671e-162
2.49312e-162
1.47873e-162
8.37164e-163
4.48607e-163
2.257e-163
1.05957e-163
4.62776e-164
1.88187e-164
7.15617e-165
2.55249e-165
8.46102e-166
2.53421e-166
6.66587e-167
1.52765e-167
3.0948e-168
5.61363e-169
8.82268e-170
1.15063e-170
1.24314e-171
1.12555e-172
8.37122e-174
5.0412e-175
2.45741e-176
9.72208e-178
3.13995e-179
8.35274e-181
1.85004e-182
3.45222e-184
5.49313e-186
7.54264e-188
9.48056e-190
1.17723e-191
1.44285e-193
1.74518e-195
2.08257e-197
2.45097e-199
2.84356e-201
3.25041e-203
3.65849e-205
4.05184e-207
4.41225e-209
4.72022e-211
4.95638e-213
5.10315e-215
5.14665e-217
5.07841e-219
4.89681e-221
4.60801e-223
4.22586e-225
3.77105e-227
3.26927e-229
2.74869e-231
2.23703e-233
1.75878e-235
1.3329e-237
9.71388e-240
6.79017e-242
4.53975e-244
2.894e-246
1.75304e-248
1.00521e-250
5.43305e-253
2.7546e-255
1.30294e-257
5.71355e-260
2.30575e-262
8.4894e-265
2.82209e-267
8.36247e-270
2.17351e-272
4.85216e-275
9.04188e-278
1.34975e-280
1.51276e-283
1.13137e-286
4.23812e-290
1.41832e-289
3.7398e-286
4.92055e-283
4.31451e-280
2.83839e-277
1.49519e-274
6.57263e-272
2.48101e-269
8.21309e-267
2.42322e-264
6.45445e-262
1.56836e-259
3.50692e-257
7.26937e-255
1.40573e-252
2.5499e-250
4.35972e-248
7.05611e-246
1.08518e-243
1.59136e-241
2.23209e-239
3.00308e-237
3.88566e-235
4.84663e-233
5.84047e-231
6.81354e-229
7.70967e-227
8.47618e-225
9.06935e-223
9.45861e-221
9.62882e-219
9.58057e-217
9.32875e-215
8.89962e-213
8.32733e-211
7.65e-209
6.90625e-207
6.13225e-205
5.35961e-203
4.61413e-201
3.9153e-199
3.27639e-197
2.70512e-195
2.20446e-193
1.77363e-191
1.40913e-189
1.10557e-187
7.92157e-186
4.87801e-184
2.55191e-182
1.121e-180
4.08894e-179
1.22635e-177
3.00193e-176
5.97226e-175
9.64275e-174
1.26441e-172
1.36789e-171
1.24447e-170
9.39771e-170
5.90913e-169
3.22954e-168
1.58253e-167
6.85816e-167
2.5921e-166
8.61658e-166
2.59067e-165
7.24448e-165
1.9008e-164
4.66478e-164
1.06613e-163
2.26758e-163
4.50165e-163
8.39292e-163
1.48148e-162
2.49644e-162
4.04046e-162
6.31136e-162
9.54469e-162
1.40034e-161
1.99609e-161
2.768e-161
3.73882e-161
4.92522e-161
6.33525e-161
7.96663e-161
9.8067e-161
1.18311e-160
1.40047e-160
1.62835e-160
1.86148e-160
2.09415e-160
2.32033e-160
2.53404e-160
2.72983e-160
2.90087e-160
3.01487e-160
2.75191e-160
6.2571e-161
5.15534e-169
1.91855e-166
1.35581e-158
5.55975e-158
6.04813e-158
5.83039e-158
5.50718e-158
5.13615e-158
4.72877e-158
4.29456e-158
3.84428e-158
3.38901e-158
2.93965e-158
2.50653e-158
2.09864e-158
1.72354e-158
1.38682e-158
1.09197e-158
8.40409e-159
6.31513e-159
4.62796e-159
3.30391e-159
2.29514e-159
1.54934e-159
1.01431e-159
6.4192e-160
3.90742e-160
2.27323e-160
1.25296e-160
6.48902e-161
3.13868e-161
1.41444e-161
5.9489e-162
2.34841e-162
8.7358e-163
3.03118e-163
9.51311e-164
2.62084e-164
6.29754e-165
1.34429e-165
2.58803e-166
4.32546e-167
5.9859e-168
6.87597e-169
6.65673e-170
5.29219e-171
3.39841e-172
1.76375e-173
7.40848e-175
2.53055e-176
7.08781e-178
1.64529e-179
3.20274e-181
5.29181e-183
7.51083e-185
9.67881e-187
1.23053e-188
1.54256e-190
1.90656e-192
2.32296e-194
2.78932e-196
3.29958e-198
3.84345e-200
4.40602e-202
4.96777e-204
5.50497e-206
5.99079e-208
6.39692e-210
6.6958e-212
6.86329e-214
6.88139e-216
6.74081e-218
6.44288e-220
6.00034e-222
5.4369e-224
4.78531e-226
4.08415e-228
3.37379e-230
2.69206e-232
2.07041e-234
1.53111e-236
1.08597e-238
7.36652e-241
4.7643e-243
2.92778e-245
1.70306e-247
9.33729e-250
4.80202e-252
2.30389e-254
1.0247e-256
4.19417e-259
1.56617e-261
5.28015e-264
1.58675e-266
4.18237e-269
9.46822e-272
1.78916e-274
2.70825e-277
3.07774e-280
2.33388e-283
8.86421e-287
3.06957e-286
7.98121e-283
1.03547e-279
8.95255e-277
5.80708e-274
3.01603e-271
1.30712e-268
4.86435e-266
1.58746e-263
4.61712e-261
1.21227e-258
2.90356e-256
6.39932e-254
1.30739e-251
2.49167e-249
4.45419e-247
7.50473e-245
1.19687e-242
1.81368e-240
2.6204e-238
3.62095e-236
4.79902e-234
6.11623e-232
7.51361e-230
8.91659e-228
1.02427e-225
1.14106e-223
1.23492e-221
1.30051e-219
1.3347e-217
1.3368e-215
1.30835e-213
1.25282e-211
1.17505e-209
1.08063e-207
9.7539e-206
8.64858e-204
7.53929e-202
6.46627e-200
5.46009e-198
4.54167e-196
3.72315e-194
3.00922e-192
2.39868e-190
1.886e-188
1.46281e-186
1.11911e-184
7.75371e-183
4.59414e-181
2.30071e-179
9.6249e-178
3.32674e-176
9.41171e-175
2.16523e-173
4.03907e-172
6.10855e-171
7.486e-170
7.57077e-169
6.4773e-168
4.60815e-167
2.72421e-166
1.4029e-165
6.52499e-165
2.6969e-164
9.73137e-164
3.08714e-163
8.86721e-163
2.37772e-162
6.0098e-162
1.42602e-161
3.15869e-161
6.52051e-161
1.25751e-160
2.27934e-160
3.91524e-160
6.4286e-160
1.01537e-159
1.55051e-159
2.29642e-159
3.30533e-159
4.62971e-159
6.31781e-159
8.40893e-159
1.09287e-158
1.38841e-158
1.72615e-158
2.10275e-158
2.51271e-158
2.9486e-158
3.40153e-158
3.86116e-158
4.3165e-158
4.75623e-158
5.16943e-158
5.54626e-158
5.87421e-158
6.09075e-158
5.5666e-158
1.30986e-158
1.64226e-166
5.23555e-164
2.39182e-156
9.49997e-156
1.03282e-155
9.97984e-156
9.45687e-156
8.85443e-156
8.19025e-156
7.47867e-156
6.73627e-156
5.98035e-156
5.22827e-156
4.49695e-156
3.80148e-156
3.1551e-156
2.56816e-156
2.04778e-156
1.59786e-156
1.21891e-156
9.08103e-157
6.6011e-157
4.67728e-157
3.22652e-157
2.16266e-157
1.40382e-157
8.77805e-158
5.25255e-158
2.98016e-158
1.58976e-158
7.92712e-159
3.68816e-159
1.60563e-159
6.58822e-160
2.56025e-160
9.31611e-161
3.06803e-161
8.86163e-162
2.23477e-162
5.03498e-163
1.03143e-163
1.83712e-164
2.70172e-165
3.30675e-166
3.4347e-167
2.92755e-168
2.01052e-169
1.11504e-170
4.99216e-172
1.8105e-173
5.35984e-175
1.3088e-176
2.66732e-178
4.59233e-180
6.76039e-182
8.95461e-184
1.16843e-185
1.50146e-187
1.90031e-189
2.36873e-191
2.90747e-193
3.51318e-195
4.17741e-197
4.88571e-199
5.61715e-201
6.34433e-203