/*--------------------------------*- C++ -*----------------------------------*\
| =========                 |                                                 |
| \\      /  F ield         | OpenFOAM: The Open Source CFD Toolbox           |
|  \\    /   O peration     | Version:  2412                                  |
|   \\  /    A nd           | Website:  www.openfoam.com                      |
|    \\/     M anipulation  |                                                 |
\*---------------------------------------------------------------------------*/
FoamFile
{
    version     2.0;
    format      ascii;
    arch        "LSB;label=32;scalar=64";
    class       surfaceScalarField;
    location    "1.1";
    object      alphaPhi0.water;
}
// * * * * * * * * * * * * * * * * * * * * * * * * * * * * * * * * * * * * * //

dimensions      [0 3 -1 0 0 0 0];

oriented        oriented;

internalField   nonuniform List<scalar> 
79600
(
3.30949e-206
-1.72177e-202
7.96536e-197
-1.98093e-193
7.61755e-196
-1.17329e-192
1.32406e-195
-1.44865e-192
1.75666e-195
-1.48029e-192
2.05431e-195
-1.40693e-192
2.2221e-195
-1.28296e-192
2.27294e-195
-1.13553e-192
2.22213e-195
-9.79471e-193
2.09087e-195
-8.2536e-193
1.89926e-195
-6.79423e-193
1.66762e-195
-5.45864e-193
1.41643e-195
-4.27667e-193
1.16384e-195
-3.26343e-193
9.24718e-196
-2.42214e-193
7.09913e-196
-1.74587e-193
5.26013e-196
-1.22002e-193
3.7572e-196
-8.2515e-194
2.58325e-196
-5.39132e-194
1.70687e-196
-3.39632e-194
1.08189e-196
-2.05862e-194
6.56547e-197
-1.19799e-194
3.80626e-197
-6.67749e-195
2.10261e-197
-3.55518e-195
1.10316e-197
-1.80184e-195
5.4742e-198
-8.65486e-196
2.55602e-198
-3.91888e-196
1.1156e-198
-1.66125e-196
4.51953e-199
-6.54505e-197
1.68839e-199
-2.38056e-197
5.78521e-200
-7.95034e-198
1.81123e-200
-2.42898e-198
5.16917e-201
-6.77466e-199
1.34145e-201
-1.721e-199
3.14292e-202
-3.95283e-200
6.5436e-203
-8.07206e-201
1.18791e-203
-1.43661e-201
1.85713e-204
-2.20026e-202
2.49289e-205
-2.89284e-203
2.87187e-206
-3.26483e-204
2.80656e-207
-3.12209e-205
2.28493e-208
-2.47907e-206
1.53415e-209
-1.61648e-207
8.47699e-211
-8.63231e-209
3.85104e-212
-3.76574e-210
1.4391e-213
-1.33982e-211
4.4377e-215
-3.89163e-213
1.13525e-216
-9.25226e-215
2.42492e-218
-1.80515e-216
4.35326e-220
-2.89026e-218
6.60265e-222
-3.77071e-220
8.47452e-224
-3.90489e-222
9.14168e-226
-2.9363e-224
8.06094e-228
-9.654e-227
6.43421e-230
3.92494e-233
5.12463e-232
8.43234e-235
4.04999e-234
1.09123e-236
3.17331e-236
1.19323e-238
2.46302e-238
1.19364e-240
1.89204e-240
1.12676e-242
1.43715e-242
1.01894e-244
1.07835e-244
8.90021e-247
7.98483e-247
7.545e-249
5.82865e-249
6.22525e-251
4.18976e-251
5.00726e-253
2.96232e-253
3.92964e-255
2.05768e-255
3.00985e-257
1.40243e-257
2.24979e-259
9.36636e-260
1.64052e-261
6.12132e-262
1.16628e-263
3.90906e-264
8.07715e-266
2.43547e-266
5.44398e-268
1.47799e-268
3.56678e-270
8.7214e-271
2.26868e-272
4.99492e-273
1.39887e-274
2.77106e-275
8.34823e-277
1.48602e-277
4.81346e-279
7.6857e-280
2.67625e-281
3.82439e-282
1.4318e-283
1.82605e-284
7.3539e-286
8.34224e-287
3.6169e-288
3.63499e-289
1.69874e-290
1.50545e-291
7.59555e-293
5.90334e-294
3.2222e-295
2.18239e-296
1.292e-297
7.56944e-299
4.87587e-300
2.44964e-301
1.72361e-302
7.35022e-304
5.67611e-305
2.02983e-306
1.73045e-307
5.11447e-309
4.84817e-310
1.16356e-311
1.2375e-312
2.35968e-314
2.84798e-315
4.19738e-317
5.8344e-318
6.41248e-320
1.04693e-320
8.39912e-323
1.4822e-323
0
0
0
0
0
0
0
0
0
0
0
0
0
0
0
0
0
0
-4.05134e-322
0
-2.99932e-319
7.90505e-323
-1.86579e-316
4.8957e-320
-9.98031e-314
2.59306e-317
-4.68818e-311
1.20441e-314
-1.96544e-308
4.98558e-312
-7.4487e-306
1.86294e-309
-2.57874e-303
6.34966e-307
-8.22654e-301
1.9913e-304
-2.43617e-298
5.78816e-302
-6.73949e-296
1.56924e-299
-1.75132e-293
3.98986e-297
-4.29558e-291
9.55925e-295
-9.98767e-289
2.16734e-292
-2.20983e-286
4.66776e-290
-4.66887e-284
9.58177e-288
-9.44897e-282
1.88046e-285
-1.83706e-279
3.53797e-283
-3.44006e-277
6.3977e-281
-6.21968e-275
1.11448e-278
-1.08818e-272
1.87413e-276
-1.84615e-270
3.0482e-274
-3.04307e-268
4.80351e-272
-4.8823e-266
7.34575e-270
-7.63735e-264
1.0917e-267
-1.16671e-261
1.57872e-265
-1.7432e-259
2.22391e-263
-2.55101e-257
3.05477e-261
-3.6614e-255
4.09488e-259
-5.16076e-253
5.35975e-257
-7.15227e-251
6.85221e-255
-9.75765e-249
8.55778e-253
-1.3119e-246
1.04374e-250
-1.74011e-244
1.242e-248
-2.27935e-242
1.43957e-246
-2.95142e-240
1.62063e-244
-3.7813e-238
1.7637e-242
-4.79768e-236
1.84022e-240
-6.03355e-234
1.81316e-238
-7.52706e-232
1.63565e-236
-9.32247e-230
1.24931e-234
-1.14714e-227
5.80436e-233
-1.27237e-225
-1.31094e-226
-1.14864e-223
-3.99813e-224
-8.69328e-222
-5.21524e-222
-5.56438e-220
-4.91436e-220
-3.01186e-218
-3.66897e-218
-1.37254e-216
-2.23196e-216
-5.23308e-215
-1.11535e-214
-1.65842e-213
-4.57988e-213
-4.34516e-212
-1.54155e-211
-9.3838e-211
-4.24265e-210
-1.66982e-209
-9.54182e-209
-2.4505e-208
-1.7569e-207
-2.97187e-207
-2.65489e-206
-3.00928e-206
-3.30112e-205
-2.58969e-205
-3.41609e-204
-1.91482e-204
-3.00105e-203
-1.21673e-203
-2.26565e-202
-6.66508e-203
-1.46955e-201
-3.18696e-202
-8.21103e-201
-1.35529e-201
-4.00287e-200
-5.20685e-201
-1.73641e-199
-1.81985e-200
-6.81476e-199
-5.80069e-200
-2.43714e-198
-1.69011e-199
-7.96003e-198
-4.51827e-199
-2.37931e-197
-1.11406e-198
-6.53267e-197
-2.54964e-198
-1.65613e-196
-5.45407e-198
-3.90202e-196
-1.0978e-197
-8.60648e-196
-2.09029e-197
-1.78941e-195
-3.78139e-197
-3.52655e-195
-6.52099e-197
-6.6178e-195
-1.07469e-196
-1.18669e-194
-1.69605e-196
-2.03883e-194
-2.56796e-196
-3.36365e-194
-3.73625e-196
-5.33985e-194
-5.23201e-196
-8.17204e-194
-7.06244e-196
-1.20794e-193
-9.20171e-196
-1.72791e-193
-1.15873e-195
-2.39608e-193
-1.41158e-195
-3.22722e-193
-1.66439e-195
-4.22868e-193
-1.89975e-195
-5.39778e-193
-2.09811e-195
-6.72117e-193
-2.23983e-195
-8.17187e-193
-2.30735e-195
-9.71043e-193
-2.28718e-195
-1.12882e-192
-2.1713e-195
-1.28491e-192
-1.95618e-195
-1.43339e-192
-1.62851e-195
-1.56679e-192
-1.06708e-195
-1.65916e-192
-1.15317e-196
-1.4934e-192
-1.74392e-206
-2.56451e-193
-9.23632e-203
2.68334e-202
-8.85916e-199
6.07078e-193
-9.19099e-190
4.70327e-192
-4.67902e-189
7.32924e-192
-5.40444e-189
9.17444e-192
-5.36065e-189
1.0486e-191
-5.06764e-189
1.1271e-191
-4.64181e-189
1.15337e-191
-4.13875e-189
1.13236e-191
-3.60133e-189
1.07154e-191
-3.06156e-189
9.79819e-192
-2.54272e-189
8.66872e-192
-2.06188e-189
7.42509e-192
-1.63111e-189
6.15713e-192
-1.25736e-189
4.94106e-192
-9.43298e-190
3.83447e-192
-6.8774e-190
2.87463e-192
-4.86503e-190
2.07942e-192
-3.33369e-190
1.44935e-192
-2.20884e-190
9.71849e-193
-1.41251e-190
6.25852e-193
-8.7007e-191
3.86347e-193
-5.15162e-191
2.28143e-193
-2.92533e-191
1.2855e-193
-1.58887e-191
6.8896e-194
-8.22673e-192
3.49743e-194
-4.04273e-192
1.67299e-194
-1.87534e-192
7.49069e-195
-8.1546e-193
3.1171e-195
-3.29946e-193
1.19769e-195
-1.23393e-193
4.22718e-196
-4.24306e-194
1.3657e-196
-1.33708e-194
4.03144e-197
-3.8552e-195
1.08511e-197
-1.01523e-195
2.64431e-198
-2.42375e-196
5.73878e-199
-5.15414e-197
1.0876e-199
-9.56148e-198
1.77801e-200
-1.52811e-198
2.50236e-201
-2.10127e-199
3.03338e-202
-2.48841e-200
3.12828e-203
-2.50186e-201
2.69172e-204
-2.08824e-202
1.91292e-205
-1.43067e-203
1.12118e-206
-8.02764e-205
5.41427e-208
-3.67647e-206
2.15532e-209
-1.37053e-207
7.09994e-211
-4.1603e-209
1.94853e-212
-1.03093e-210
4.49467e-214
-2.09119e-212
8.80293e-216
-3.47393e-214
1.47985e-217
-4.69608e-216
2.15896e-219
-5.03989e-218
2.76158e-221
-3.94315e-220
3.12313e-223
-1.39319e-222
3.3521e-225
3.42675e-228
3.57624e-227
1.00944e-229
3.78182e-229
1.75863e-231
3.9612e-231
2.5783e-233
4.10654e-233
3.45077e-235
4.21016e-235
4.35224e-237
4.26508e-237
5.25322e-239
4.26555e-239
6.11953e-241
4.2076e-241
6.91389e-243
4.08955e-243
7.59819e-245
3.91245e-245
8.13622e-247
3.68026e-247
8.49681e-249
3.39991e-249
8.65707e-251
3.08099e-251
8.60514e-253
2.73521e-253
8.34214e-255
2.37567e-255
7.88285e-257
2.01585e-257
7.25503e-259
1.66859e-259
6.49724e-261
1.34515e-261
5.65541e-263
1.05433e-263
4.7785e-265
8.02009e-266
3.91373e-267
5.90933e-268
3.10226e-269
4.20871e-270
2.37571e-271
2.89093e-272
1.75432e-273
1.91051e-274
1.24656e-275
1.21157e-276
8.50376e-278
7.35162e-279
5.55529e-280
4.25494e-281
3.46575e-282
2.34087e-283
2.05852e-284
1.21945e-285
1.16013e-286
5.98953e-288
6.18042e-289
2.76034e-290
3.09918e-291
1.1871e-292
1.45586e-293
4.73391e-295
6.37187e-296
1.73766e-297
2.58202e-298
5.82038e-300
9.61651e-301
1.76052e-302
3.26348e-303
4.74755e-305
9.98685e-306
1.12312e-307
2.72085e-308
2.28236e-310
6.49393e-311
3.87209e-313
1.32959e-313
5.26282e-316
2.26957e-316
5.37069e-319
3.09957e-319
3.65609e-322
3.16202e-322
0
0
0
0
0
0
-1.13141e-321
0
-1.62645e-318
9.83191e-322
-1.56058e-315
9.40123e-319
-1.12394e-312
6.73794e-316
-6.48425e-310
3.86311e-313
-3.1229e-307
1.84646e-310
-1.292e-304
7.57094e-308
-4.68938e-302
2.71957e-305
-1.51752e-299
8.69771e-303
-4.43504e-297
2.50857e-300
-1.18289e-294
6.59322e-298
-2.90441e-292
1.59289e-295
-6.61357e-290
3.56348e-293
-1.4055e-287
7.42841e-291
-2.80308e-285
1.45085e-288
-5.27174e-283
2.66774e-286
-9.38979e-281
4.63764e-284
-1.59006e-278
7.65114e-282
-2.56883e-276
1.20201e-279
-3.9718e-274
1.80374e-277
-5.89415e-272
2.59256e-275
-8.41748e-270
3.57825e-273
-1.15965e-267
4.75341e-271
-1.54466e-265
6.0904e-269
-1.99346e-263
7.54101e-267
-2.49748e-261
9.03897e-265
-3.04304e-259
1.05051e-262
-3.61217e-257
1.1855e-260
-4.18391e-255
1.30072e-258
-4.73596e-253
1.38908e-256
-5.24649e-251
1.4453e-254
-5.69578e-249
1.4663e-252
-6.06761e-247
1.45139e-250
-6.35026e-245
1.40208e-248
-6.53698e-243
1.32195e-246
-6.62598e-241
1.21605e-244
-6.62008e-239
1.0904e-242
-6.52601e-237
9.51429e-241
-6.35347e-235
8.05461e-239
-6.11423e-233
6.58362e-237
-5.82111e-231
5.15231e-235
-5.48719e-229
3.80182e-233
-5.12509e-227
2.5627e-231
-4.74645e-225
1.45574e-229
-4.36151e-223
4.92695e-228
-3.78879e-221
-1.90227e-222
-2.89674e-219
-5.36898e-220
-1.93601e-217
-6.73385e-218
-1.1215e-215
-6.13059e-216
-5.57754e-214
-4.42311e-214
-2.35763e-212
-2.59617e-212
-8.38741e-211
-1.24866e-210
-2.48938e-209
-4.92033e-209
-6.12324e-208
-1.58441e-207
-1.24385e-206
-4.16011e-206
-2.08618e-205
-8.90729e-205
-2.89172e-204
-1.56007e-203
-3.3174e-203
-2.24273e-202
-3.18252e-202
-2.65194e-201
-2.60236e-201
-2.60947e-200
-1.83508e-200
-2.18425e-199
-1.11507e-199
-1.57649e-198
-5.85109e-199
-9.79883e-198
-2.68413e-198
-5.2527e-197
-1.09751e-197
-2.4592e-196
-4.06563e-197
-1.02641e-195
-1.37387e-196
-3.88644e-195
-4.24347e-196
-1.34458e-194
-1.20021e-195
-4.25784e-194
-3.11924e-195
-1.23604e-193
-7.48707e-195
-3.30039e-193
-1.67046e-194
-8.14723e-193
-3.48885e-194
-1.87168e-192
-6.8666e-194
-4.03098e-192
-1.28027e-193
-8.19525e-192
-2.27104e-193
-1.58156e-191
-3.84501e-193
-2.91034e-191
-6.22865e-193
-5.12376e-191
-9.6737e-193
-8.65318e-191
-1.44305e-192
-1.40493e-190
-2.07104e-192
-2.19736e-190
-2.86401e-192
-3.31705e-190
-3.82189e-192
-4.8418e-190
-4.92758e-192
-6.8465e-190
-6.14538e-192
-9.39439e-190
-7.41963e-192
-1.25302e-189
-8.67661e-192
-1.62705e-189
-9.82944e-192
-2.05964e-189
-1.07832e-191
-2.54503e-189
-1.1445e-191
-3.07306e-189
-1.17326e-191
-3.62963e-189
-1.15838e-191
-4.19728e-189
-1.09634e-191
-4.75649e-189
-9.85833e-192
-5.28679e-189
-8.20725e-192
-5.763e-189
-5.40563e-192
-6.09659e-189
-6.04939e-193
-5.50958e-189
-1.23692e-202
-9.79438e-190
-4.83926e-199
5.11739e-199
-1.76028e-195
1.08463e-189
-1.57297e-186
8.21209e-189
-7.66589e-186
1.24124e-188
-8.55971e-186
1.52174e-188
-8.32632e-186
1.72355e-188
-7.81723e-186
1.84829e-188
-7.15844e-186
1.89447e-188
-6.40351e-186
1.86735e-188
-5.60129e-186
1.77667e-188
-4.79228e-186
1.63519e-188
-4.00904e-186
1.45749e-188
-3.27707e-186
1.25879e-188
-2.61519e-186
1.05339e-188
-2.03517e-186
8.53792e-189
-1.54257e-186
6.69778e-189
-1.13718e-186
5.08033e-189
-8.14091e-187
3.72174e-189
-5.65061e-187
2.62967e-189
-3.79614e-187
1.78942e-189
-2.46399e-187
1.17075e-189
-1.54228e-187
7.35159e-190
-9.29071e-188
4.42171e-190
-5.37469e-188
2.54121e-190
-2.97819e-188
1.39114e-190
-1.57546e-188
7.22364e-191
-7.92125e-189
3.53943e-191
-3.76478e-189
1.62534e-191
-1.67936e-189
6.94504e-192
-6.97862e-190
2.74347e-192
-2.68361e-190
9.96893e-193
-9.50207e-191
3.32169e-193
-3.08874e-191
1.01358e-193
-9.20831e-192
2.82787e-194
-2.51451e-192
7.16251e-195
-6.24238e-193
1.6186e-195
-1.38284e-193
3.1973e-196
-2.67471e-194
5.45416e-197
-4.46182e-195
8.02802e-198
-6.41949e-196
1.02111e-198
-7.98275e-197
1.10707e-199
-8.44424e-198
1.00123e-200
-7.41237e-199
7.47532e-202
-5.33796e-200
4.60296e-203
-3.14895e-201
2.33316e-204
-1.51464e-202
9.72922e-206
-5.91562e-204
3.3485e-207
-1.87524e-205
9.57502e-209
-4.83517e-207
2.29532e-210
-1.01674e-208
4.66144e-212
-1.7444e-210
8.11244e-214
-2.42666e-212
1.22444e-215
-2.67157e-214
1.62193e-217
-2.14102e-216
1.90647e-219
-7.85883e-219
2.12793e-221
3.27032e-224
2.35865e-223
1.01621e-225
2.58993e-225
1.84466e-227
2.81541e-227
2.81118e-229
3.02772e-229
3.90652e-231
3.2187e-231
5.11193e-233
3.37974e-233
6.39813e-235
3.5023e-235
7.72508e-237
3.57845e-237
9.04264e-239
3.60159e-239
1.02925e-240
3.56706e-241
1.14114e-242
3.4728e-243
1.23356e-244
3.31981e-245
1.30066e-246
3.11238e-247
1.33767e-248
2.85808e-249
1.34149e-250
2.5673e-251
1.3111e-252
2.25264e-253
1.24787e-254
1.92784e-255
1.1555e-256
1.60665e-257
1.03983e-258
1.3017e-259
9.08236e-261
1.02342e-261
7.68883e-263
7.79317e-264
6.29892e-265
5.73575e-266
4.98499e-267
4.07111e-268
3.80389e-269
2.77992e-270
2.79287e-271
1.82143e-272
1.96851e-273
1.14185e-274
1.32862e-275
6.82751e-277
8.56324e-278
3.88036e-279
5.25445e-280
2.08821e-281
3.05913e-282
1.05951e-283
1.68351e-284
5.04393e-286
8.72056e-287
2.24068e-288
4.23164e-289
9.22989e-291
1.91312e-291
3.49964e-293
8.00791e-294
1.21085e-295
3.08079e-296
3.78323e-298
1.07997e-298
1.05385e-300
3.41387e-301
2.57532e-303
9.60763e-304
5.40628e-306
2.36876e-306
9.47514e-309
5.01009e-309
1.33049e-311
8.83487e-312
1.40288e-314
1.24655e-314
9.87215e-318
1.31893e-317
3.47822e-321
9.30326e-321
0
4.94066e-324
-1.00394e-320
9.88131e-324
-2.81446e-317
2.70303e-320
-3.93748e-314
3.77358e-317
-3.67204e-311
3.50708e-314
-2.56995e-308
2.44276e-311
-1.44055e-305
1.36088e-308
-6.73998e-303
6.31955e-306
-2.70856e-300
2.51714e-303
-9.54796e-298
8.78244e-301
-3.00054e-295
2.72788e-298
-8.51486e-293
7.64017e-296
-2.2049e-290
1.94975e-293
-5.25549e-288
4.57319e-291
-1.16158e-285
9.93136e-289
-2.39579e-283
2.00946e-286
-4.63661e-281
3.80892e-284
-8.46076e-279
6.7961e-282
-1.46198e-276
1.14629e-279
-2.40143e-274
1.83462e-277
-3.76268e-272
2.79566e-275
-5.64144e-270
4.06858e-273
-8.11701e-268
5.67056e-271
-1.12372e-265
7.58802e-269
-1.50048e-263
9.77122e-267
-1.9368e-261
1.21339e-264
-2.42177e-259
1.45585e-262
-2.93911e-257
1.69065e-260
-3.46836e-255
1.90325e-258
-3.98653e-253
2.08e-256
-4.47017e-251
2.20962e-254
-4.8974e-249
2.28424e-252
-5.24973e-247
2.30012e-250
-5.51341e-245
2.25778e-248
-5.68024e-243
2.16166e-246
-5.74775e-241
2.01931e-244
-5.71885e-239
1.84047e-242
-5.60102e-237
1.63605e-240
-5.40525e-235
1.41708e-238
-5.14488e-233
1.19391e-236
-4.83439e-231
9.75521e-235
-4.48838e-229
7.69191e-233
-4.12071e-227
5.80334e-231
-3.74386e-225
4.12508e-229
-3.36853e-223
2.67554e-227
-3.00345e-221
1.45874e-225
-2.65535e-219
4.67681e-224
-2.22128e-217
-1.07867e-218
-1.64182e-215
-2.92289e-216
-1.06199e-213
-3.57975e-214
-5.9498e-212
-3.17905e-212
-2.85635e-210
-2.23042e-210
-1.16241e-208
-1.26821e-208
-3.96925e-207
-5.88445e-207
-1.12727e-205
-2.22778e-205
-2.64583e-204
-6.86575e-204
-5.11789e-203
-1.71957e-202
-8.16698e-202
-3.5034e-201
-1.07719e-200
-5.83351e-200
-1.17536e-199
-7.97515e-199
-1.07236e-198
-8.96409e-198
-8.35627e-198
-8.38194e-197
-5.63392e-197
-6.68107e-196
-3.28065e-196
-4.60843e-195
-1.65155e-195
-2.74418e-194
-7.27628e-195
-1.41085e-193
-2.86266e-194
-6.34102e-193
-1.02311e-193
-2.54534e-192
-3.3447e-193
-9.2949e-192
-1.00167e-192
-3.11022e-191
-2.75172e-192
-9.54809e-191
-6.95574e-192
-2.69184e-190
-1.62591e-191
-6.98981e-190
-3.5372e-191
-1.68007e-189
-7.21315e-191
-3.76274e-189
-1.38812e-190
-7.91054e-189
-2.53423e-190
-1.57222e-188
-4.40788e-190
-2.97037e-188
-7.3272e-190
-5.35861e-188
-1.16685e-189
-9.26136e-188
-1.78366e-189
-1.5374e-187
-2.62178e-189
-2.45654e-187
-3.71176e-189
-3.78554e-187
-5.06883e-189
-5.63673e-187
-6.68618e-189
-8.12457e-187
-8.52906e-189
-1.13554e-186
-1.05329e-188
-1.54151e-186
-1.26024e-188
-2.03586e-186
-1.46157e-188
-2.61963e-186
-1.64331e-188
-3.28862e-186
-1.79058e-188
-4.03294e-186
-1.88911e-188
-4.83647e-186
-1.92655e-188
-5.6779e-186
-1.89373e-188
-6.53144e-186
-1.78568e-188
-7.36832e-186
-1.60095e-188
-8.15874e-186
-1.33038e-188
-8.86636e-186
-8.77858e-189
-9.36074e-186
-1.01256e-189
-8.47311e-186
-2.88042e-199
-1.55206e-186
-1.06871e-195
6.10577e-196
-2.18451e-192
1.08113e-186
-1.56901e-183
8.19865e-186
-7.51854e-183
1.22968e-185
-8.26943e-183
1.49632e-185
-7.95973e-183
1.68998e-185
-7.44205e-183
1.81262e-185
-6.81316e-183
1.86276e-185
-6.11011e-183
1.84398e-185
-5.36789e-183
1.7641e-185
-4.61836e-183
1.63419e-185
-3.88917e-183
1.46743e-185
-3.20307e-183
1.27789e-185
-2.57761e-183
1.07916e-185
-2.02447e-183
8.83431e-186
-1.54996e-183
7.00578e-186
-1.15517e-183
5.3767e-186
-8.3682e-184
3.98917e-186
-5.88314e-184
2.85751e-186
-4.00731e-184
1.9734e-186
-2.6401e-184
1.31185e-186
-1.67928e-184
8.38029e-187
-1.0293e-184
5.13458e-187
-6.06692e-185
3.01028e-187
-3.4302e-185
1.68352e-187
-1.85426e-185
8.94363e-188
-9.54086e-186
4.48952e-188
-4.64692e-186
2.11478e-188
-2.12686e-186
9.2802e-189
-9.07884e-187
3.76934e-189
-3.59053e-187
1.41027e-189
-1.30932e-187
4.84711e-190
-4.3913e-188
1.52923e-190
-1.3541e-188
4.42401e-191
-3.83615e-189
1.16514e-191
-9.909e-190
2.74279e-192
-2.28806e-190
5.64885e-193
-4.61679e-191
1.00577e-193
-8.04312e-192
1.54892e-194
-1.21177e-192
2.06864e-195
-1.58415e-193
2.35958e-196
-1.76538e-194
2.24412e-197
-1.63173e-195
1.76102e-198
-1.23696e-196
1.13991e-199
-7.68668e-198
6.06766e-201
-3.89167e-199
2.65043e-202
-1.59594e-200
9.52397e-204
-5.29475e-202
2.83298e-205
-1.42358e-203
7.03755e-207
-3.10946e-205
1.47532e-208
-5.51999e-207
2.64004e-210
-7.91514e-209
4.08143e-212
-8.95112e-211
5.51734e-214
-7.35483e-213
6.59665e-216
-2.80582e-215
7.46438e-218
1.52836e-220
8.38187e-220
4.8896e-222
9.31944e-222
9.01872e-224
1.02535e-223
1.39319e-225
1.11556e-225
1.96036e-227
1.19934e-227
2.59571e-229
1.27315e-229
3.28571e-231
1.33335e-231
4.01051e-233
1.37643e-233
4.74412e-235
1.39929e-235
5.45514e-237
1.39949e-237
6.10838e-239
1.37559e-239
6.66719e-241
1.32733e-241
7.09649e-243
1.25583e-243
7.36612e-245
1.16361e-245
7.45427e-247
1.05448e-247
7.35036e-249
9.33282e-250
7.05707e-251
8.05543e-252
6.59095e-253
6.76989e-254
5.9814e-255
5.53045e-256
5.268e-257
4.38375e-258
4.49641e-259
3.36514e-260
3.7135e-261
2.49652e-262
2.96244e-263
1.78597e-264
2.27845e-265
1.22907e-266
1.68597e-267
8.11527e-269
1.19754e-269
5.12645e-271
8.14472e-272
3.08858e-273
5.2894e-274
1.7686e-275
3.2701e-276
9.58887e-278
1.91811e-278
4.90131e-280
1.06343e-280
2.35054e-282
5.54926e-283
1.05184e-284
2.71253e-285
4.36433e-287
1.23528e-287
1.66678e-289
5.20813e-290
5.80848e-292
2.01812e-292
1.82784e-294
7.1253e-295
5.12792e-297
2.26846e-297
1.26203e-299
6.42951e-300
2.66809e-302
1.59642e-302
4.70915e-305
3.40036e-305
6.65912e-308
6.03844e-308
7.07085e-311
8.57971e-311
5.01086e-314
9.14155e-314
1.77897e-317
6.49194e-317
2.47033e-323
2.30679e-320
-5.12091e-317
6.76573e-320
-1.42628e-313
1.88305e-316
-1.98253e-310
2.61201e-313
-1.83681e-307
2.41177e-310
-1.27705e-304
1.66884e-307
-7.11079e-302
9.23568e-305
-3.30466e-299
4.26021e-302
-1.31905e-296
1.68548e-299
-4.61816e-294
5.84095e-297
-1.44134e-291
1.80186e-294
-4.06192e-289
5.01191e-292
-1.04449e-286
1.27016e-289
-2.4721e-284
2.9584e-287
-5.42514e-282
6.37934e-285
-1.11094e-279
1.28159e-282
-2.13449e-277
2.41185e-280
-3.86657e-275
4.27222e-278
-6.63204e-273
7.15321e-276
-1.08126e-270
1.1364e-273
-1.68141e-268
1.71877e-271
-2.50177e-266
2.48249e-269
-3.57185e-264
3.43355e-267
-4.90627e-262
4.55907e-265
-6.49941e-260
5.82486e-263
-8.32212e-258
7.17591e-261
-1.03213e-255
8.54043e-259
-1.24227e-253
9.83669e-257
-1.45365e-251
1.09817e-254
-1.65657e-249
1.19002e-252
-1.84141e-247
1.25331e-250
-1.99955e-245
1.2843e-248
-2.12406e-243
1.28171e-246
-2.21021e-241
1.24667e-244
-2.25567e-239
1.18249e-242
-2.26053e-237
1.0941e-240
-2.22701e-235
9.87473e-239
-2.1591e-233
8.68995e-237
-2.06203e-231
7.44926e-235
-1.94179e-229
6.20933e-233
-1.80459e-227
5.01779e-231
-1.65648e-225
3.91144e-229
-1.50303e-223
2.91599e-227
-1.34907e-221
2.04661e-225
-1.19862e-219
1.30927e-223
-1.05481e-217
7.02331e-222
-9.19944e-216
2.1855e-220
-7.56829e-214
-3.87228e-215
-5.4847e-212
-1.00822e-212
-3.46612e-210
-1.20458e-210
-1.88988e-208
-1.04184e-208
-8.79311e-207
-7.09412e-207
-3.45329e-205
-3.89879e-205
-1.13318e-203
-1.74103e-203
-3.08063e-202
-6.31712e-202
-6.89814e-201
-1.85876e-200
-1.26986e-199
-4.43022e-199
-1.9268e-198
-8.56939e-198
-2.41713e-197
-1.35391e-196
-2.50733e-196
-1.75777e-195
-2.17405e-195
-1.8758e-194
-1.61338e-194
-1.66466e-193
-1.03964e-193
-1.26211e-192
-5.79996e-193
-8.31377e-192
-2.80045e-192
-4.74016e-191
-1.18445e-191
-2.33608e-190
-4.48163e-191
-1.00731e-189
-1.54477e-190
-3.88622e-189
-4.88448e-190
-1.36795e-188
-1.41816e-189
-4.42563e-188
-3.78364e-189
-1.31681e-187
-9.30169e-189
-3.60467e-187
-2.11716e-188
-9.10131e-187
-4.49033e-188
-2.12962e-186
-8.93845e-188
-4.64864e-186
-1.6815e-187
-9.53732e-186
-3.00519e-187
-1.85246e-185
-5.12426e-187
-3.42527e-185
-8.3622e-187
-6.05641e-185
-1.30901e-186
-1.0274e-184
-1.96935e-186
-1.67622e-184
-2.85228e-186
-2.63567e-184
-3.98321e-186
-4.00166e-184
-5.37114e-186
-5.87709e-184
-7.00271e-186
-8.36397e-184
-8.83718e-186
-1.15537e-183
-1.08058e-185
-1.55155e-183
-1.28119e-185
-2.02882e-183
-1.47358e-185
-2.58685e-183
-1.64435e-185
-3.22048e-183
-1.77958e-185
-3.91953e-183
-1.86621e-185
-4.6685e-183
-1.89316e-185
-5.44756e-183
-1.85244e-185
-6.23329e-183
-1.74001e-185
-6.9999e-183
-1.55509e-185
-7.72084e-183
-1.28949e-185
-8.36396e-183
-8.5195e-186
-8.8111e-183
-1.012e-186
-7.98488e-183
-4.0175e-196
-1.50636e-183
-1.45533e-192
5.52348e-193
-1.97808e-189
7.57715e-184
-1.0869e-180
5.70981e-183
-5.13578e-180
8.5578e-183
-5.61593e-180
1.03948e-182
-5.38021e-180
1.17372e-182
-5.02144e-180
1.26078e-182
-4.60049e-180
1.29978e-182
-4.13722e-180
1.2924e-182
-3.65007e-180
1.24323e-182
-3.15742e-180
1.15914e-182
-2.67601e-180
1.04852e-182
-2.22017e-180
9.2062e-183
-1.80141e-180
7.8453e-183
-1.42777e-180
6.48653e-183
-1.10409e-180
5.19995e-183
-8.31874e-181
4.03797e-183
-6.09783e-181
3.03427e-183
-4.34222e-181
2.20359e-183
-2.99896e-181
1.54457e-183
-2.00557e-181
1.04337e-183
-1.29648e-181
6.78148e-184
-8.08675e-182
4.23329e-184
-4.85742e-182
2.5323e-184
-2.80289e-182
1.44714e-184
-1.54869e-182
7.86715e-185
-8.15702e-183
4.04689e-185
-4.07252e-183
1.95588e-185
-1.91303e-183
8.81632e-186
-8.39038e-184
3.68266e-186
-3.41335e-184
1.41898e-186
-1.28218e-184
5.03189e-187
-4.43816e-185
1.64197e-187
-1.41609e-185
4.928e-188
-4.16447e-186
1.35039e-188
-1.12004e-186
3.31343e-189
-2.69762e-187
7.11871e-190
-5.68159e-188
1.32366e-190
-1.03433e-188
2.13451e-191
-1.63319e-189
2.99679e-192
-2.24745e-190
3.60094e-193
-2.64223e-191
3.60588e-194
-2.57488e-192
2.97841e-195
-2.05796e-193
2.03066e-196
-1.35008e-194
1.13759e-197
-7.21212e-196
5.21672e-199
-3.11325e-197
1.96146e-200
-1.08378e-198
6.08222e-202
-3.04657e-200
1.56884e-203
-6.93068e-202
3.40104e-205
-1.27642e-203
6.2676e-207
-1.89157e-205
9.93674e-209
-2.20335e-207
1.37179e-210
-1.86179e-209
1.66824e-212
-7.4213e-212
1.91204e-214
4.81443e-217
2.17322e-216
1.59062e-218
2.44445e-218
2.98062e-220
2.71947e-220
4.66436e-222
2.99047e-222
6.64045e-224
3.24824e-224
8.88926e-226
3.48247e-226
1.13694e-227
3.68224e-228
1.40156e-229
3.83665e-230
1.6738e-231
3.9356e-232
1.94242e-233
3.97073e-234
2.19445e-235
3.93625e-236
2.41597e-237
3.82979e-238
2.59323e-239
3.65296e-240
2.71389e-241
3.41161e-242
2.76841e-243
3.11569e-244
2.75123e-245
2.7786e-246
2.66173e-247
2.41623e-248
2.50464e-249
2.04555e-250
2.2898e-251
1.68312e-252
2.03135e-253
1.34362e-254
1.74621e-255
1.03864e-256
1.45231e-257
7.75871e-259
1.16661e-259
5.58831e-261
9.03394e-262
3.87166e-263
6.72993e-264
2.5734e-265
4.81217e-266
1.63633e-267
3.29444e-268
9.92281e-270
2.15347e-270
5.71873e-272
1.33997e-272
3.12037e-274
7.91006e-275
1.60507e-276
4.41331e-277
7.74589e-279
2.31748e-279
3.48782e-281
1.13988e-281
1.45613e-283
5.22317e-284
5.59529e-286
2.21572e-286
1.96177e-288
8.63824e-289
6.21079e-291
3.06838e-291
1.75291e-293
9.82761e-294
4.33988e-296
2.80214e-296
9.22968e-299
6.99901e-299
1.63867e-301
1.49961e-301
2.33085e-304
2.67872e-304
2.48946e-307
3.82835e-307
1.77447e-310
4.10283e-310
6.3364e-314
2.93057e-313
8.64269e-320
1.04725e-316
-1.84688e-313
3.1108e-316
-5.11397e-310
8.60763e-313
-7.0666e-307
1.18699e-309
-6.50839e-304
1.08953e-306
-4.498e-301
7.49434e-304
-2.48949e-298
4.12274e-301
-1.14996e-295
1.89029e-298
-4.56212e-293
7.43333e-296
-1.58745e-290
2.56027e-293
-4.92387e-288
7.84961e-291
-1.37898e-285
2.16988e-288
-3.5237e-283
5.46482e-286
-8.28712e-281
1.26484e-283
-1.80705e-278
2.71017e-281
-3.67661e-276
5.40988e-279
-7.01817e-274
1.01153e-276
-1.26299e-271
1.78012e-274
-2.15197e-269
2.96098e-272
-3.485e-267
4.67279e-270
-5.38272e-265
7.02009e-268
-7.95416e-263
1.00707e-265
-1.12777e-260
1.38333e-263
-1.53824e-258
1.82404e-261
-2.02326e-256
2.31408e-259
-2.57199e-254
2.83049e-257
-3.16651e-252
3.34432e-255
-3.78287e-250
3.82359e-253
-4.39313e-248
4.23675e-251
-4.96786e-246
4.55622e-249
-5.47891e-244
4.76141e-247
-5.90191e-242
4.84064e-245
-6.21829e-240
4.79195e-243
-6.41654e-238
4.62258e-241
-6.49266e-236
4.34762e-239
-6.44974e-234
3.98782e-237
-6.29709e-232
3.56717e-235
-6.04877e-230
3.11046e-233
-5.72201e-228
2.64122e-231
-5.33562e-226
2.1801e-229
-4.90851e-224
1.7439e-227
-4.45855e-222
1.34503e-225
-4.00167e-220
9.91576e-224
-3.55134e-218
6.87673e-222
-3.11833e-216
4.34135e-220
-2.71067e-214
2.29147e-218
-2.33387e-212
6.9006e-217
-1.88819e-210
-1.0309e-211
-1.34051e-208
-2.56655e-209
-8.26506e-207
-2.9823e-207
-4.37766e-205
-2.50495e-205
-1.96976e-203
-1.65055e-203
-7.44775e-202
-8.74138e-202
-2.34289e-200
-3.74548e-200
-6.08232e-199
-1.29864e-198
-1.2963e-197
-3.63803e-197
-2.26592e-196
-8.23013e-196
-3.26274e-195
-1.50766e-194
-3.8874e-194
-2.2553e-193
-3.82886e-193
-2.77635e-192
-3.15111e-192
-2.8093e-191
-2.2245e-191
-2.36287e-190
-1.36897e-190
-1.70193e-189
-7.31291e-190
-1.06973e-188
-3.38476e-189
-5.83649e-188
-1.37346e-188
-2.75561e-187
-4.99484e-188
-1.13917e-186
-1.65959e-187
-4.22108e-186
-5.07368e-187
-1.4314e-185
-1.42778e-186
-4.47554e-185
-3.69889e-186
-1.29031e-184
-8.84215e-186
-3.42892e-184
-1.95929e-185
-8.41641e-184
-4.05015e-185
-1.91672e-183
-7.86778e-185
-4.07662e-183
-1.44642e-184
-8.15947e-183
-2.52993e-184
-1.5483e-182
-4.22814e-184
-2.80101e-182
-6.77236e-184
-4.85294e-182
-1.04196e-183
-8.07852e-182
-1.54264e-183
-1.29519e-181
-2.20132e-183
-2.00386e-181
-3.03216e-183
-2.99719e-181
-4.03705e-183
-4.34133e-181
-5.20189e-183
-6.09982e-181
-6.4939e-183
-8.32709e-181
-7.86185e-183
-1.10614e-180
-9.23662e-183
-1.432e-180
-1.05353e-182
-1.80919e-180
-1.16675e-182
-2.23354e-180
-1.25413e-182
-2.69775e-180
-1.30723e-182
-3.19133e-180
-1.31907e-182
-3.70131e-180
-1.28474e-182
-4.2126e-180
-1.20204e-182
-4.70881e-180
-1.07087e-182
-5.1734e-180
-8.86022e-183
-5.5864e-180
-5.86067e-183
-5.8719e-180
-7.17004e-184
-5.32732e-180
-3.99195e-193
-1.03535e-180
-1.41376e-189
3.9796e-190
-1.40127e-186
4.07194e-181
-5.69228e-178
3.0255e-180
-2.64502e-177
4.53432e-180
-2.88577e-177
5.50863e-180
-2.76071e-177
6.22697e-180
-2.57694e-177
6.70493e-180
-2.36509e-177
6.937e-180
-2.13371e-177
6.92942e-180
-1.89075e-177
6.70297e-180
-1.64449e-177
6.2901e-180
-1.40272e-177
5.73178e-180
-1.17233e-177
5.07404e-180
-9.59052e-178
4.36336e-180
-7.67078e-178
3.6437e-180
-5.99131e-178
2.95285e-180
-4.56364e-178
2.32019e-180
-3.38516e-178
1.76588e-180
-2.44174e-178
1.30028e-180
-1.71005e-178
9.25133e-181
-1.16098e-178
6.3511e-181
-7.62855e-179
4.20067e-181
-4.84313e-179
2.67219e-181
-2.96527e-179
1.63134e-181
-1.74678e-179
9.52878e-182
-9.86835e-180
5.30255e-182
-5.32241e-180
2.79598e-182
-2.72485e-180
1.38686e-182
-1.31408e-180
6.42297e-183
-5.9234e-181
2.75977e-183
-2.47941e-181
1.09537e-183
-9.5964e-182
4.00877e-184
-3.42926e-182
1.35353e-184
-1.13271e-182
4.21681e-185
-3.46016e-183
1.2031e-185
-9.69737e-184
3.07903e-186
-2.43795e-184
6.90464e-187
-5.36283e-185
1.34155e-187
-1.02084e-185
2.26718e-188
-1.69085e-186
3.35042e-189
-2.4526e-187
4.24687e-190
-3.0463e-188
4.4834e-191
-3.13401e-189
3.904e-192
-2.64511e-190
2.80963e-193
-1.83611e-191
1.6605e-194
-1.03754e-192
8.01383e-196
-4.7265e-194
3.16092e-197
-1.7312e-195
1.02444e-198
-5.1025e-197
2.75082e-200
-1.21242e-198
6.18255e-202
-2.32312e-200
1.17626e-203
-3.5683e-202
1.91707e-205
-4.29396e-204
2.70906e-207
-3.7439e-206
3.35832e-209
-1.56844e-208
3.90513e-211
1.14491e-213
4.49961e-213
3.93269e-215
5.12786e-215
7.50541e-217
5.77691e-217
1.19204e-218
6.42984e-219
1.71983e-220
7.06595e-221
2.33108e-222
7.6613e-223
3.01688e-224
8.18963e-225
3.76131e-226
8.62382e-227
4.54103e-228
8.93771e-229
5.3255e-230
9.10825e-231
6.07816e-232
9.11779e-233
6.75844e-234
8.95623e-235
7.32476e-236
8.62282e-237
7.73828e-238
8.1271e-239
7.96693e-240
7.48903e-241
7.98943e-242
6.7379e-243
7.79843e-244
5.91017e-245
7.40245e-246
5.04633e-247
6.82582e-248
4.18728e-249
6.10676e-250
3.37052e-251
5.29348e-252
2.62689e-253
4.43888e-254
1.97824e-255
3.59472e-256
1.4363e-257
2.80608e-258
1.003e-259
2.10709e-260
6.71917e-262
1.51854e-262
4.30581e-264
1.04773e-264
2.63126e-266
6.90176e-267
1.52809e-268
4.32752e-269
8.40132e-271
2.57409e-271
4.35418e-273
1.44705e-273
2.11705e-275
7.65571e-276
9.60373e-278
3.79368e-278
4.03919e-280
1.75124e-280
1.56352e-282
7.4837e-283
5.52203e-285
2.939e-285
1.76097e-287
1.05157e-287
5.00609e-290
3.39248e-290
1.24836e-292
9.74273e-293
2.67395e-295
2.45095e-295
4.78132e-298
5.28896e-298
6.84931e-301
9.51476e-301
7.36716e-304
1.36945e-303
5.28827e-307
1.47798e-306
1.9016e-310