/*--------------------------------*- C++ -*----------------------------------*\
| =========                 |                                                 |
| \\      /  F ield         | OpenFOAM: The Open Source CFD Toolbox           |
|  \\    /   O peration     | Version:  2412                                  |
|   \\  /    A nd           | Website:  www.openfoam.com                      |
|    \\/     M anipulation  |                                                 |
\*---------------------------------------------------------------------------*/
FoamFile
{
    version     2.0;
    format      ascii;
    arch        "LSB;label=32;scalar=64";
    class       volScalarField;
    location    "1.1";
    object      p;
}
// * * * * * * * * * * * * * * * * * * * * * * * * * * * * * * * * * * * * * //

dimensions      [1 -1 -2 0 0 0 0];

internalField   nonuniform List<scalar> 
40000
(
0
-8.31584e-05
-0.000303508
-0.000684986
-0.00123136
-0.00194183
-0.00281513
-0.0038504
-0.00504657
-0.00640258
-0.00791732
-0.00958965
-0.0114184
-0.0134021
-0.0155395
-0.0178291
-0.0202691
-0.0228578
-0.0255934
-0.0284739
-0.0314971
-0.0346609
-0.0379629
-0.0414006
-0.0449715
-0.0486728
-0.0525018
-0.0564554
-0.0605307
-0.0647244
-0.0690331
-0.0734536
-0.0779821
-0.082615
-0.0873485
-0.0921788
-0.0971016
-0.102113
-0.107208
-0.112384
-0.117634
-0.122956
-0.128343
-0.133791
-0.139295
-0.144851
-0.150452
-0.156093
-0.16177
-0.167477
-0.173208
-0.178957
-0.184719
-0.190489
-0.196259
-0.202025
-0.20778
-0.213519
-0.219235
-0.224923
-0.230575
-0.236187
-0.241751
-0.247262
-0.252714
-0.258101
-0.263415
-0.268652
-0.273805
-0.278869
-0.283836
-0.288702
-0.293461
-0.298106
-0.302633
-0.307036
-0.311309
-0.315447
-0.319445
-0.323298
-0.327001
-0.33055
-0.33394
-0.337166
-0.340225
-0.343113
-0.345825
-0.348359
-0.350711
-0.352878
-0.354857
-0.356645
-0.358241
-0.359642
-0.360846
-0.361852
-0.362658
-0.363263
-0.363667
-0.363868
-0.363868
-0.363664
-0.363259
-0.362653
-0.361845
-0.360838
-0.359633
-0.35823
-0.356633
-0.354843
-0.352863
-0.350694
-0.348341
-0.345806
-0.343092
-0.340203
-0.337143
-0.333915
-0.330524
-0.326974
-0.323269
-0.319415
-0.315416
-0.311276
-0.307002
-0.302598
-0.29807
-0.293423
-0.288664
-0.283797
-0.278828
-0.273763
-0.268609
-0.263371
-0.258056
-0.252668
-0.247216
-0.241703
-0.236138
-0.230525
-0.224872
-0.219184
-0.213466
-0.207727
-0.201971
-0.196204
-0.190433
-0.184663
-0.178899
-0.173149
-0.167418
-0.161711
-0.156033
-0.150391
-0.144789
-0.139234
-0.133729
-0.12828
-0.122893
-0.117571
-0.11232
-0.107144
-0.102049
-0.0970369
-0.0921138
-0.0872834
-0.0825496
-0.0779165
-0.0733877
-0.0689671
-0.0646581
-0.0604642
-0.0563888
-0.052435
-0.0486059
-0.0449043
-0.0413332
-0.0378952
-0.034593
-0.031429
-0.0284053
-0.0255244
-0.0227882
-0.020199
-0.0177585
-0.0154683
-0.0133301
-0.0113455
-0.00951569
-0.00784217
-0.00632599
-0.00496816
-0.00376975
-0.00273159
-0.00185418
-0.00113811
-0.000583887
-0.0001922
3.53297e-05
0.000108761
-3.92394
-3.92401
-3.92422
-3.92461
-3.92515
-3.92586
-3.92674
-3.92777
-3.92897
-3.93033
-3.93184
-3.93351
-3.93534
-3.93733
-3.93947
-3.94176
-3.9442
-3.94679
-3.94952
-3.95241
-3.95543
-3.95859
-3.9619
-3.96534
-3.96891
-3.97261
-3.97644
-3.9804
-3.98447
-3.98867
-3.99298
-3.9974
-4.00193
-4.00657
-4.0113
-4.01613
-4.02106
-4.02607
-4.03117
-4.03635
-4.0416
-4.04693
-4.05231
-4.05777
-4.06327
-4.06883
-4.07443
-4.08008
-4.08576
-4.09147
-4.0972
-4.10295
-4.10872
-4.11449
-4.12026
-4.12603
-4.13179
-4.13753
-4.14325
-4.14894
-4.1546
-4.16021
-4.16578
-4.17129
-4.17675
-4.18214
-4.18745
-4.19269
-4.19785
-4.20292
-4.20789
-4.21276
-4.21752
-4.22216
-4.22669
-4.2311
-4.23538
-4.23952
-4.24352
-4.24737
-4.25108
-4.25463
-4.25802
-4.26125
-4.26431
-4.2672
-4.26991
-4.27245
-4.2748
-4.27697
-4.27895
-4.28074
-4.28234
-4.28374
-4.28494
-4.28595
-4.28676
-4.28736
-4.28777
-4.28797
-4.28797
-4.28776
-4.28736
-4.28675
-4.28594
-4.28493
-4.28373
-4.28233
-4.28073
-4.27894
-4.27695
-4.27478
-4.27243
-4.26989
-4.26718
-4.26429
-4.26122
-4.258
-4.2546
-4.25105
-4.24734
-4.24349
-4.23948
-4.23534
-4.23107
-4.22666
-4.22213
-4.21748
-4.21272
-4.20785
-4.20288
-4.19781
-4.19265
-4.18741
-4.18209
-4.1767
-4.17125
-4.16573
-4.16016
-4.15455
-4.14889
-4.1432
-4.13748
-4.13174
-4.12598
-4.12021
-4.11443
-4.10866
-4.10289
-4.09714
-4.09141
-4.0857
-4.08002
-4.07437
-4.06877
-4.06321
-4.0577
-4.05225
-4.04686
-4.04154
-4.03628
-4.03111
-4.02601
-4.021
-4.01607
-4.01124
-4.0065
-4.00187
-3.99734
-3.99291
-3.9886
-3.98441
-3.98033
-3.97638
-3.97254
-3.96884
-3.96527
-3.96183
-3.95853
-3.95536
-3.95234
-3.94945
-3.94672
-3.94413
-3.94169
-3.9394
-3.93726
-3.93527
-3.93344
-3.93177
-3.93025
-3.92889
-3.92769
-3.92665
-3.92578
-3.92506
-3.92451
-3.92412
-3.92389
-3.92382
-7.8477
-7.84777
-7.84799
-7.84838
-7.84893
-7.84964
-7.85052
-7.85155
-7.85275
-7.85411
-7.85563
-7.8573
-7.85913
-7.86112
-7.86326
-7.86555
-7.86799
-7.87059
-7.87333
-7.87621
-7.87924
-7.88241
-7.88571
-7.88916
-7.89273
-7.89644
-7.90027
-7.90423
-7.90831
-7.91251
-7.91683
-7.92125
-7.92579
-7.93043
-7.93517
-7.94001
-7.94494
-7.94996
-7.95506
-7.96025
-7.96551
-7.97084
-7.97623
-7.98169
-7.9872
-7.99277
-7.99838
-8.00403
-8.00972
-8.01543
-8.02118
-8.02694
-8.03271
-8.03849
-8.04427
-8.05005
-8.05581
-8.06156
-8.06729
-8.07299
-8.07866
-8.08428
-8.08985
-8.09538
-8.10084
-8.10624
-8.11156
-8.11681
-8.12198
-8.12705
-8.13203
-8.13691
-8.14168
-8.14633
-8.15087
-8.15528
-8.15957
-8.16371
-8.16772
-8.17158
-8.17529
-8.17885
-8.18225
-8.18548
-8.18855
-8.19145
-8.19416
-8.1967
-8.19906
-8.20123
-8.20322
-8.20501
-8.20661
-8.20802
-8.20922
-8.21023
-8.21104
-8.21165
-8.21205
-8.21225
-8.21225
-8.21205
-8.21164
-8.21103
-8.21022
-8.20921
-8.20801
-8.2066
-8.205
-8.2032
-8.20122
-8.19905
-8.19669
-8.19415
-8.19142
-8.18853
-8.18546
-8.18223
-8.17883
-8.17527
-8.17155
-8.16769
-8.16368
-8.15953
-8.15525
-8.15083
-8.1463
-8.14164
-8.13687
-8.13199
-8.12701
-8.12194
-8.11677
-8.11152
-8.10619
-8.10079
-8.09533
-8.08981
-8.08423
-8.07861
-8.07294
-8.06724
-8.06151
-8.05576
-8.04999
-8.04422
-8.03843
-8.03265
-8.02688
-8.02112
-8.01538
-8.00966
-8.00397
-7.99832
-7.99271
-7.98714
-7.98163
-7.97617
-7.97077
-7.96544
-7.96018
-7.955
-7.94989
-7.94487
-7.93994
-7.93511
-7.93036
-7.92572
-7.92119
-7.91676
-7.91245
-7.90825
-7.90416
-7.9002
-7.89637
-7.89266
-7.88909
-7.88564
-7.88234
-7.87917
-7.87614
-7.87326
-7.87052
-7.86792
-7.86548
-7.86319
-7.86105
-7.85906
-7.85723
-7.85555
-7.85403
-7.85267
-7.85147
-7.85043
-7.84956
-7.84884
-7.84828
-7.84789
-7.84767
-7.84759
-11.7713
-11.7714
-11.7716
-11.772
-11.7725
-11.7733
-11.7741
-11.7752
-11.7764
-11.7777
-11.7793
-11.7809
-11.7828
-11.7848
-11.7869
-11.7892
-11.7916
-11.7942
-11.797
-11.7999
-11.8029
-11.8061
-11.8094
-11.8128
-11.8164
-11.8201
-11.824
-11.8279
-11.832
-11.8362
-11.8406
-11.845
-11.8495
-11.8542
-11.8589
-11.8638
-11.8687
-11.8738
-11.8789
-11.8841
-11.8893
-11.8947
-11.9001
-11.9056
-11.9111
-11.9167
-11.9223
-11.9279
-11.9336
-11.9394
-11.9451
-11.9509
-11.9567
-11.9625
-11.9683
-11.9741
-11.9799
-11.9856
-11.9914
-11.9971
-12.0028
-12.0084
-12.014
-12.0195
-12.025
-12.0304
-12.0358
-12.041
-12.0462
-12.0513
-12.0563
-12.0612
-12.066
-12.0706
-12.0752
-12.0796
-12.0839
-12.0881
-12.0921
-12.0959
-12.0997
-12.1032
-12.1066
-12.1099
-12.113
-12.1159
-12.1186
-12.1212
-12.1235
-12.1257
-12.1277
-12.1295
-12.1311
-12.1325
-12.1337
-12.1347
-12.1355
-12.1361
-12.1365
-12.1367
-12.1367
-12.1365
-12.1361
-12.1355
-12.1347
-12.1337
-12.1325
-12.1311
-12.1295
-12.1277
-12.1257
-12.1235
-12.1211
-12.1186
-12.1159
-12.1129
-12.1099
-12.1066
-12.1032
-12.0996
-12.0959
-12.092
-12.088
-12.0839
-12.0796
-12.0751
-12.0706
-12.0659
-12.0611
-12.0562
-12.0512
-12.0462
-12.041
-12.0357
-12.0304
-12.025
-12.0195
-12.0139
-12.0083
-12.0027
-11.997
-11.9913
-11.9856
-11.9798
-11.974
-11.9682
-11.9624
-11.9566
-11.9508
-11.9451
-11.9393
-11.9336
-11.9279
-11.9222
-11.9166
-11.911
-11.9055
-11.9
-11.8946
-11.8893
-11.884
-11.8788
-11.8737
-11.8687
-11.8637
-11.8589
-11.8541
-11.8495
-11.8449
-11.8405
-11.8362
-11.832
-11.8279
-11.8239
-11.8201
-11.8164
-11.8128
-11.8093
-11.806
-11.8028
-11.7998
-11.7969
-11.7942
-11.7916
-11.7891
-11.7868
-11.7847
-11.7827
-11.7809
-11.7792
-11.7777
-11.7763
-11.7751
-11.7741
-11.7732
-11.7725
-11.7719
-11.7715
-11.7713
-11.7712
-15.6947
-15.6948
-15.6951
-15.6954
-15.696
-15.6967
-15.6976
-15.6986
-15.6998
-15.7012
-15.7027
-15.7044
-15.7062
-15.7082
-15.7104
-15.7127
-15.7151
-15.7177
-15.7205
-15.7234
-15.7264
-15.7296
-15.7329
-15.7364
-15.74
-15.7437
-15.7476
-15.7515
-15.7556
-15.7599
-15.7642
-15.7686
-15.7732
-15.7779
-15.7826
-15.7875
-15.7924
-15.7975
-15.8026
-15.8078
-15.8131
-15.8185
-15.8239
-15.8294
-15.8349
-15.8405
-15.8461
-15.8518
-15.8575
-15.8633
-15.8691
-15.8749
-15.8807
-15.8865
-15.8923
-15.8981
-15.9039
-15.9097
-15.9155
-15.9212
-15.9269
-15.9326
-15.9382
-15.9437
-15.9492
-15.9547
-15.96
-15.9653
-15.9705
-15.9756
-15.9806
-15.9855
-15.9903
-15.995
-15.9996
-16.004
-16.0084
-16.0125
-16.0166
-16.0205
-16.0242
-16.0278
-16.0312
-16.0345
-16.0376
-16.0405
-16.0432
-16.0458
-16.0482
-16.0503
-16.0523
-16.0542
-16.0558
-16.0572
-16.0584
-16.0594
-16.0602
-16.0608
-16.0613
-16.0615
-16.0615
-16.0612
-16.0608
-16.0602
-16.0594
-16.0584
-16.0572
-16.0558
-16.0541
-16.0523
-16.0503
-16.0481
-16.0458
-16.0432
-16.0405
-16.0375
-16.0345
-16.0312
-16.0278
-16.0242
-16.0204
-16.0165
-16.0125
-16.0083
-16.004
-15.9996
-15.995
-15.9903
-15.9855
-15.9806
-15.9756
-15.9705
-15.9653
-15.96
-15.9546
-15.9492
-15.9437
-15.9381
-15.9325
-15.9268
-15.9211
-15.9154
-15.9096
-15.9039
-15.8981
-15.8922
-15.8864
-15.8806
-15.8748
-15.869
-15.8632
-15.8575
-15.8518
-15.8461
-15.8404
-15.8348
-15.8293
-15.8238
-15.8184
-15.813
-15.8077
-15.8025
-15.7974
-15.7924
-15.7874
-15.7825
-15.7778
-15.7731
-15.7686
-15.7641
-15.7598
-15.7556
-15.7515
-15.7475
-15.7436
-15.7399
-15.7363
-15.7329
-15.7295
-15.7264
-15.7233
-15.7204
-15.7177
-15.7151
-15.7126
-15.7103
-15.7082
-15.7062
-15.7043
-15.7026
-15.7011
-15.6998
-15.6986
-15.6975
-15.6966
-15.6959
-15.6954
-15.695
-15.6947
-15.6947
-19.618
-19.6181
-19.6183
-19.6187
-19.6193
-19.62
-19.6209
-19.6219
-19.6231
-19.6245
-19.626
-19.6277
-19.6296
-19.6316
-19.6337
-19.636
-19.6385
-19.6411
-19.6439
-19.6468
-19.6498
-19.653
-19.6563
-19.6598
-19.6634
-19.6671
-19.671
-19.675
-19.6791
-19.6833
-19.6877
-19.6922
-19.6967
-19.7014
-19.7062
-19.7111
-19.716
-19.7211
-19.7263
-19.7315
-19.7368
-19.7422
-19.7476
-19.7531
-19.7587
-19.7643
-19.77
-19.7757
-19.7814
-19.7872
-19.793
-19.7988
-19.8046
-19.8105
-19.8163
-19.8222
-19.828
-19.8338
-19.8396
-19.8454
-19.8511
-19.8568
-19.8624
-19.868
-19.8735
-19.879
-19.8844
-19.8897
-19.8949
-19.9
-19.9051
-19.91
-19.9149
-19.9196
-19.9242
-19.9286
-19.933
-19.9372
-19.9412
-19.9451
-19.9489
-19.9525
-19.956
-19.9592
-19.9623
-19.9653
-19.968
-19.9706
-19.973
-19.9752
-19.9772
-19.979
-19.9806
-19.9821
-19.9833
-19.9843
-19.9851
-19.9858
-19.9862
-19.9864
-19.9864
-19.9862
-19.9857
-19.9851
-19.9843
-19.9833
-19.9821
-19.9806
-19.979
-19.9772
-19.9752
-19.973
-19.9706
-19.968
-19.9653
-19.9623
-19.9592
-19.9559
-19.9525
-19.9489
-19.9451
-19.9412
-19.9371
-19.9329
-19.9286
-19.9241
-19.9195
-19.9148
-19.91
-19.905
-19.9
-19.8949
-19.8896
-19.8843
-19.8789
-19.8735
-19.8679
-19.8624
-19.8567
-19.851
-19.8453
-19.8395
-19.8337
-19.8279
-19.8221
-19.8163
-19.8104
-19.8046
-19.7987
-19.7929
-19.7871
-19.7814
-19.7756
-19.7699
-19.7642
-19.7586
-19.7531
-19.7476
-19.7421
-19.7367
-19.7314
-19.7262
-19.721
-19.716
-19.711
-19.7061
-19.7013
-19.6967
-19.6921
-19.6876
-19.6833
-19.679
-19.6749
-19.6709
-19.6671
-19.6633
-19.6597
-19.6563
-19.6529
-19.6498
-19.6467
-19.6438
-19.641
-19.6384
-19.636
-19.6337
-19.6315
-19.6295
-19.6277
-19.626
-19.6244
-19.6231
-19.6219
-19.6208
-19.6199
-19.6192
-19.6186
-19.6183
-19.618
-19.6179
-23.5412
-23.5412
-23.5415
-23.5419
-23.5424
-23.5431
-23.544
-23.5451
-23.5463
-23.5477
-23.5492
-23.5509
-23.5527
-23.5548
-23.5569
-23.5592
-23.5617
-23.5643
-23.5671
-23.57
-23.5731
-23.5763
-23.5796
-23.5831
-23.5867
-23.5905
-23.5943
-23.5984
-23.6025
-23.6067
-23.6111
-23.6156
-23.6202
-23.6249
-23.6297
-23.6346
-23.6396
-23.6447
-23.6498
-23.6551
-23.6604
-23.6658
-23.6713
-23.6768
-23.6824
-23.6881
-23.6937
-23.6995
-23.7053
-23.7111
-23.7169
-23.7227
-23.7286
-23.7345
-23.7403
-23.7462
-23.7521
-23.7579
-23.7637
-23.7695
-23.7753
-23.781
-23.7867
-23.7923
-23.7979
-23.8034
-23.8088
-23.8141
-23.8194
-23.8246
-23.8296
-23.8346
-23.8395
-23.8442
-23.8488
-23.8533
-23.8577
-23.8619
-23.866
-23.87
-23.8738
-23.8774
-23.8809
-23.8842
-23.8873
-23.8902
-23.893
-23.8956
-23.898
-23.9002
-23.9023
-23.9041
-23.9057
-23.9072
-23.9084
-23.9094
-23.9103
-23.9109
-23.9113
-23.9115
-23.9115
-23.9113
-23.9109
-23.9102
-23.9094
-23.9084
-23.9072
-23.9057
-23.9041
-23.9022
-23.9002
-23.898
-23.8956
-23.893
-23.8902
-23.8873
-23.8841
-23.8808
-23.8774
-23.8737
-23.8699
-23.866
-23.8619
-23.8577
-23.8533
-23.8488
-23.8442
-23.8394
-23.8346
-23.8296
-23.8245
-23.8194
-23.8141
-23.8088
-23.8033
-23.7978
-23.7923
-23.7866
-23.781
-23.7753
-23.7695
-23.7637
-23.7579
-23.752
-23.7462
-23.7403
-23.7344
-23.7285
-23.7227
-23.7168
-23.711
-23.7052
-23.6994
-23.6937
-23.688
-23.6823
-23.6768
-23.6712
-23.6657
-23.6603
-23.655
-23.6498
-23.6446
-23.6395
-23.6345
-23.6296
-23.6248
-23.6201
-23.6155
-23.611
-23.6067
-23.6024
-23.5983
-23.5943
-23.5904
-23.5866
-23.583
-23.5795
-23.5762
-23.573
-23.5699
-23.567
-23.5643
-23.5616
-23.5592
-23.5568
-23.5547
-23.5527
-23.5508
-23.5491
-23.5476
-23.5462
-23.545
-23.544
-23.5431
-23.5423
-23.5418
-23.5414
-23.5412
-23.5411
-27.4641
-27.4642
-27.4644
-27.4648
-27.4654
-27.4661
-27.467
-27.4681
-27.4693
-27.4707
-27.4722
-27.4739
-27.4758
-27.4778
-27.4799
-27.4823
-27.4848
-27.4874
-27.4902
-27.4931
-27.4962
-27.4994
-27.5028
-27.5063
-27.5099
-27.5137
-27.5176
-27.5216
-27.5257
-27.53
-27.5344
-27.5389
-27.5435
-27.5482
-27.5531
-27.558
-27.563
-27.5681
-27.5733
-27.5786
-27.584
-27.5894
-27.5949
-27.6005
-27.6061
-27.6118
-27.6175
-27.6233
-27.6291
-27.6349
-27.6408
-27.6467
-27.6526
-27.6585
-27.6644
-27.6703
-27.6762
-27.6821
-27.6879
-27.6938
-27.6996
-27.7053
-27.711
-27.7167
-27.7223
-27.7278
-27.7333
-27.7387
-27.744
-27.7492
-27.7543
-27.7593
-27.7642
-27.769
-27.7737
-27.7782
-27.7826
-27.7869
-27.791
-27.795
-27.7988
-27.8024
-27.8059
-27.8093
-27.8124
-27.8154
-27.8182
-27.8208
-27.8232
-27.8255
-27.8275
-27.8294
-27.831
-27.8325
-27.8337
-27.8347
-27.8356
-27.8362
-27.8366
-27.8368
-27.8368
-27.8366
-27.8362
-27.8356
-27.8347
-27.8337
-27.8325
-27.831
-27.8294
-27.8275
-27.8255
-27.8232
-27.8208
-27.8182
-27.8154
-27.8124
-27.8092
-27.8059
-27.8024
-27.7987
-27.7949
-27.7909
-27.7868
-27.7826
-27.7782
-27.7736
-27.769
-27.7642
-27.7593
-27.7543
-27.7492
-27.7439
-27.7386
-27.7333
-27.7278
-27.7223
-27.7167
-27.711
-27.7053
-27.6995
-27.6937
-27.6879
-27.682
-27.6761
-27.6702
-27.6643
-27.6584
-27.6525
-27.6466
-27.6407
-27.6348
-27.629
-27.6232
-27.6174
-27.6117
-27.606
-27.6004
-27.5948
-27.5893
-27.5839
-27.5785
-27.5732
-27.568
-27.5629
-27.5579
-27.553
-27.5482
-27.5434
-27.5388
-27.5343
-27.5299
-27.5257
-27.5215
-27.5175
-27.5136
-27.5098
-27.5062
-27.5027
-27.4993
-27.4961
-27.493
-27.4901
-27.4873
-27.4847
-27.4822
-27.4799
-27.4777
-27.4757
-27.4738
-27.4721
-27.4706
-27.4692
-27.468
-27.4669
-27.466
-27.4653
-27.4648
-27.4644
-27.4641
-27.464
-31.3869
-31.387
-31.3872
-31.3876
-31.3882
-31.3889
-31.3898
-31.3909
-31.3921
-31.3935
-31.395
-31.3968
-31.3986
-31.4006
-31.4028
-31.4052
-31.4077
-31.4103
-31.4131
-31.4161
-31.4191
-31.4224
-31.4258
-31.4293
-31.4329
-31.4367
-31.4406
-31.4447
-31.4489
-31.4531
-31.4576
-31.4621
-31.4667
-31.4715
-31.4763
-31.4813
-31.4863
-31.4915
-31.4967
-31.502
-31.5074
-31.5129
-31.5184
-31.524
-31.5297
-31.5354
-31.5412
-31.547
-31.5528
-31.5587
-31.5646
-31.5706
-31.5765
-31.5825
-31.5884
-31.5944
-31.6003
-31.6062
-31.6121
-31.618
-31.6239
-31.6297
-31.6354
-31.6411
-31.6468
-31.6524
-31.6579
-31.6633
-31.6687
-31.6739
-31.6791
-31.6841
-31.6891
-31.6939
-31.6986
-31.7032
-31.7076
-31.7119
-31.7161
-31.7201
-31.7239
-31.7276
-31.7312
-31.7345
-31.7377
-31.7407
-31.7436
-31.7462
-31.7487
-31.7509
-31.753
-31.7548
-31.7565
-31.758
-31.7592
-31.7603
-31.7611
-31.7617
-31.7622
-31.7624
-31.7624
-31.7622
-31.7617
-31.7611
-31.7603
-31.7592
-31.758
-31.7565
-31.7548
-31.753
-31.7509
-31.7486
-31.7462
-31.7435
-31.7407
-31.7377
-31.7345
-31.7311
-31.7276
-31.7239
-31.7201
-31.7161
-31.7119
-31.7076
-31.7031
-31.6986
-31.6939
-31.689
-31.6841
-31.679
-31.6739
-31.6686
-31.6633
-31.6578
-31.6523
-31.6467
-31.6411
-31.6354
-31.6296
-31.6238
-31.618
-31.6121
-31.6062
-31.6003
-31.5943
-31.5884
-31.5824
-31.5764
-31.5705
-31.5646
-31.5587
-31.5528
-31.5469
-31.5411
-31.5354
-31.5296
-31.524
-31.5184
-31.5128
-31.5074
-31.502
-31.4967
-31.4914
-31.4863
-31.4812
-31.4763
-31.4714
-31.4667
-31.462
-31.4575
-31.4531
-31.4488
-31.4446
-31.4406
-31.4366
-31.4329
-31.4292
-31.4257
-31.4223
-31.4191
-31.416
-31.413
-31.4102
-31.4076
-31.4051
-31.4028
-31.4006
-31.3985
-31.3967
-31.395
-31.3934
-31.392
-31.3908
-31.3898
-31.3889
-31.3881
-31.3876
-31.3872
-31.3869
-31.3869
-35.3096
-35.3097
-35.3099
-35.3103
-35.3109
-35.3116
-35.3125
-35.3136
-35.3148
-35.3162
-35.3177
-35.3195
-35.3213
-35.3234
-35.3256
-35.3279
-35.3304
-35.3331
-35.3359
-35.3389
-35.342
-35.3452
-35.3486
-35.3522
-35.3558
-35.3596
-35.3636
-35.3677
-35.3719
-35.3762
-35.3806
-35.3852
-35.3899
-35.3946
-35.3995
-35.4045
-35.4096
-35.4148
-35.42
-35.4254
-35.4308
-35.4363
-35.4419
-35.4476
-35.4533
-35.459
-35.4648
-35.4707
-35.4766
-35.4825
-35.4885
-35.4944
-35.5004
-35.5064
-35.5124
-35.5184
-35.5244
-35.5304
-35.5364
-35.5423
-35.5482
-35.5541
-35.5599
-35.5657
-35.5714
-35.577
-35.5825
-35.588
-35.5934
-35.5987
-35.6039
-35.609
-35.614
-35.6189
-35.6237
-35.6283
-35.6328
-35.6371
-35.6413
-35.6454
-35.6493
-35.653
-35.6566
-35.66
-35.6632
-35.6663
-35.6691
-35.6718
-35.6743
-35.6765
-35.6786
-35.6805
-35.6822
-35.6837
-35.685
-35.686
-35.6869
-35.6875
-35.6879
-35.6881
-35.6881
-35.6879
-35.6875
-35.6869
-35.686
-35.6849
-35.6837
-35.6822
-35.6805
-35.6786
-35.6765
-35.6742
-35.6718
-35.6691
-35.6662
-35.6632
-35.66
-35.6566
-35.653
-35.6493
-35.6454
-35.6413
-35.6371
-35.6327
-35.6283
-35.6236
-35.6189
-35.614
-35.609
-35.6039
-35.5987
-35.5934
-35.588
-35.5825
-35.5769
-35.5713
-35.5656
-35.5598
-35.554
-35.5482
-35.5423
-35.5363
-35.5304
-35.5244
-35.5184
-35.5124
-35.5064
-35.5004
-35.4944
-35.4884
-35.4825
-35.4765
-35.4706
-35.4648
-35.459
-35.4532
-35.4475
-35.4419
-35.4363
-35.4308
-35.4253
-35.42
-35.4147
-35.4095
-35.4044
-35.3995
-35.3946
-35.3898
-35.3851
-35.3806
-35.3761
-35.3718
-35.3676
-35.3635
-35.3596
-35.3558
-35.3521
-35.3486
-35.3452
-35.3419
-35.3388
-35.3358
-35.333
-35.3304
-35.3278
-35.3255
-35.3233
-35.3213
-35.3194
-35.3177
-35.3161
-35.3147
-35.3135
-35.3124
-35.3115
-35.3108
-35.3102
-35.3098
-35.3096
-35.3095
-39.2321
-39.2321
-39.2324
-39.2328
-39.2333
-39.2341
-39.235
-39.2361
-39.2373
-39.2387
-39.2403
-39.242
-39.2439
-39.2459
-39.2481
-39.2505
-39.253
-39.2557
-39.2585
-39.2615
-39.2646
-39.2679
-39.2713
-39.2749
-39.2786
-39.2824
-39.2864
-39.2905
-39.2947
-39.2991
-39.3036
-39.3082
-39.3129
-39.3177
-39.3226
-39.3276
-39.3328
-39.338
-39.3433
-39.3487
-39.3542
-39.3597
-39.3653
-39.371
-39.3768
-39.3826
-39.3884
-39.3944
-39.4003
-39.4063
-39.4123
-39.4183
-39.4244
-39.4304
-39.4365
-39.4425
-39.4486
-39.4546
-39.4607
-39.4666
-39.4726
-39.4785
-39.4844
-39.4902
-39.496
-39.5017
-39.5073
-39.5128
-39.5183
-39.5237
-39.5289
-39.5341
-39.5391
-39.5441
-39.5489
-39.5535
-39.5581
-39.5625
-39.5667
-39.5708
-39.5748
-39.5786
-39.5822
-39.5856
-39.5889
-39.592
-39.5949
-39.5976
-39.6001
-39.6024
-39.6045
-39.6064
-39.6081
-39.6096
-39.6109
-39.612
-39.6128
-39.6135
-39.6139
-39.6141
-39.6141
-39.6139
-39.6135
-39.6128
-39.612
-39.6109
-39.6096
-39.6081
-39.6064
-39.6045
-39.6024
-39.6001
-39.5975
-39.5948
-39.5919
-39.5889
-39.5856
-39.5822
-39.5785
-39.5748
-39.5708
-39.5667
-39.5625
-39.5581
-39.5535
-39.5488
-39.544
-39.5391
-39.534
-39.5289
-39.5236
-39.5182
-39.5128
-39.5072
-39.5016
-39.4959
-39.4902
-39.4844
-39.4785
-39.4726
-39.4666
-39.4606
-39.4546
-39.4485
-39.4425
-39.4364
-39.4304
-39.4243
-39.4183
-39.4122
-39.4062
-39.4002
-39.3943
-39.3884
-39.3825
-39.3767
-39.371
-39.3653
-39.3596
-39.3541
-39.3486
-39.3432
-39.3379
-39.3327
-39.3276
-39.3225
-39.3176
-39.3128
-39.3081
-39.3035
-39.299
-39.2947
-39.2904
-39.2863
-39.2824
-39.2785
-39.2748
-39.2713
-39.2679
-39.2646
-39.2615
-39.2585
-39.2556
-39.253
-39.2504
-39.2481
-39.2459
-39.2438
-39.2419
-39.2402
-39.2386
-39.2372
-39.236
-39.2349
-39.234
-39.2333
-39.2327
-39.2323
-39.2321
-39.232
-43.1544
-43.1544
-43.1547
-43.1551
-43.1557
-43.1564
-43.1573
-43.1584
-43.1596
-43.1611
-43.1626
-43.1644
-43.1663
-43.1683
-43.1706
-43.1729
-43.1755
-43.1782
-43.181
-43.184
-43.1872
-43.1905
-43.1939
-43.1975
-43.2012
-43.2051
-43.2091
-43.2132
-43.2175
-43.2219
-43.2264
-43.231
-43.2358
-43.2406
-43.2456
-43.2507
-43.2558
-43.2611
-43.2664
-43.2719
-43.2774
-43.283
-43.2887
-43.2944
-43.3002
-43.3061
-43.312
-43.318
-43.324
-43.33
-43.3361
-43.3422
-43.3483
-43.3544
-43.3605
-43.3666
-43.3728
-43.3789
-43.385
-43.391
-43.397
-43.403
-43.409
-43.4148
-43.4207
-43.4264
-43.4321
-43.4377
-43.4432
-43.4487
-43.454
-43.4592
-43.4643
-43.4693
-43.4742
-43.4789
-43.4835
-43.488
-43.4923
-43.4965
-43.5005
-43.5043
-43.5079
-43.5114
-43.5147
-43.5179
-43.5208
-43.5235
-43.5261
-43.5284
-43.5306
-43.5325
-43.5342
-43.5357
-43.5371
-43.5381
-43.539
-43.5397
-43.5401
-43.5403
-43.5403
-43.5401
-43.5397
-43.539
-43.5381
-43.537
-43.5357
-43.5342
-43.5325
-43.5306
-43.5284
-43.5261
-43.5235
-43.5208
-43.5178
-43.5147
-43.5114
-43.5079
-43.5043
-43.5004
-43.4964
-43.4923
-43.488
-43.4835
-43.4789
-43.4742
-43.4693
-43.4643
-43.4592
-43.454
-43.4486
-43.4432
-43.4377
-43.4321
-43.4264
-43.4206
-43.4148
-43.4089
-43.403
-43.397
-43.391
-43.3849
-43.3788
-43.3727
-43.3666
-43.3605
-43.3543
-43.3482
-43.3421
-43.336
-43.33
-43.3239
-43.3179
-43.3119
-43.306
-43.3002
-43.2944
-43.2886
-43.2829
-43.2773
-43.2718
-43.2664
-43.261
-43.2558
-43.2506
-43.2455
-43.2406
-43.2357
-43.231
-43.2263
-43.2218
-43.2174
-43.2132
-43.209
-43.205
-43.2012
-43.1974
-43.1939
-43.1904
-43.1871
-43.184
-43.181
-43.1781
-43.1754
-43.1729
-43.1705
-43.1683
-43.1662
-43.1643
-43.1626
-43.161
-43.1596
-43.1583
-43.1572
-43.1563
-43.1556
-43.155
-43.1546
-43.1544
-43.1543
-47.0765
-47.0766
-47.0768
-47.0772
-47.0778
-47.0786
-47.0795
-47.0806
-47.0818
-47.0832
-47.0848
-47.0866
-47.0885
-47.0906
-47.0928
-47.0952
-47.0978
-47.1005
-47.1034
-47.1064
-47.1096
-47.1129
-47.1164
-47.12
-47.1238
-47.1276
-47.1317
-47.1358
-47.1401
-47.1446
-47.1491
-47.1538
-47.1586
-47.1635
-47.1685
-47.1736
-47.1788
-47.1841
-47.1895
-47.195
-47.2006
-47.2062
-47.212
-47.2178
-47.2236
-47.2296
-47.2355
-47.2416
-47.2476
-47.2537
-47.2598
-47.266
-47.2722
-47.2784
-47.2846
-47.2908
-47.2969
-47.3031
-47.3093
-47.3154
-47.3215
-47.3276
-47.3336
-47.3395
-47.3454
-47.3513
-47.357
-47.3627
-47.3683
-47.3738
-47.3792
-47.3845
-47.3897
-47.3947
-47.3997
-47.4045
-47.4091
-47.4137
-47.418
-47.4222
-47.4263
-47.4302
-47.4339
-47.4374
-47.4408
-47.4439
-47.4469
-47.4497
-47.4523
-47.4547
-47.4568
-47.4588
-47.4606
-47.4621
-47.4634
-47.4645
-47.4654
-47.4661
-47.4665
-47.4668
-47.4668
-47.4665
-47.4661
-47.4654
-47.4645
-47.4634
-47.4621
-47.4606
-47.4588
-47.4568
-47.4547
-47.4523
-47.4497
-47.4469
-47.4439
-47.4408
-47.4374
-47.4339
-47.4301
-47.4263
-47.4222
-47.418
-47.4136
-47.4091
-47.4044
-47.3996
-47.3947
-47.3896
-47.3845
-47.3792
-47.3738
-47.3683
-47.3627
-47.357
-47.3512
-47.3454
-47.3395
-47.3335
-47.3275
-47.3215
-47.3154
-47.3092
-47.3031
-47.2969
-47.2907
-47.2845
-47.2783
-47.2721
-47.2659
-47.2598
-47.2537
-47.2476
-47.2415
-47.2355
-47.2295
-47.2236
-47.2177
-47.2119
-47.2062
-47.2005
-47.1949
-47.1895
-47.184
-47.1787
-47.1735
-47.1684
-47.1634
-47.1585
-47.1537
-47.149
-47.1445
-47.1401
-47.1358
-47.1316
-47.1276
-47.1237
-47.1199
-47.1163
-47.1128
-47.1095
-47.1063
-47.1033
-47.1004
-47.0977
-47.0952
-47.0928
-47.0905
-47.0884
-47.0865
-47.0848
-47.0832
-47.0818
-47.0805
-47.0794
-47.0785
-47.0777
-47.0772
-47.0768
-47.0765
-47.0764
-50.9985
-50.9986
-50.9988
-50.9992
-50.9998
-51.0006
-51.0015
-51.0026
-51.0038
-51.0053
-51.0069
-51.0086
-51.0106
-51.0127
-51.0149
-51.0174
-51.0199
-51.0227
-51.0256
-51.0286
-51.0318
-51.0352
-51.0387
-51.0423
-51.0461
-51.05
-51.0541
-51.0583
-51.0627
-51.0671
-51.0717
-51.0764
-51.0812
-51.0862
-51.0912
-51.0964
-51.1017
-51.107
-51.1125
-51.118
-51.1237
-51.1294
-51.1352
-51.141
-51.147
-51.153
-51.159
-51.1651
-51.1712
-51.1774
-51.1836
-51.1898
-51.1961
-51.2023
-51.2086
-51.2149
-51.2211
-51.2274
-51.2336
-51.2398
-51.246
-51.2521
-51.2582
-51.2643
-51.2703
-51.2762
-51.282
-51.2878
-51.2934
-51.299
-51.3045
-51.3099
-51.3151
-51.3203
-51.3253
-51.3301
-51.3349
-51.3395
-51.3439
-51.3482
-51.3523
-51.3562
-51.36
-51.3636
-51.367
-51.3702
-51.3733
-51.3761
-51.3787
-51.3811
-51.3833
-51.3853
-51.3871
-51.3887
-51.39
-51.3912
-51.3921
-51.3927
-51.3932
-51.3934
-51.3934
-51.3932
-51.3927
-51.3921
-51.3912
-51.39
-51.3887
-51.3871
-51.3853
-51.3833
-51.3811
-51.3787
-51.3761
-51.3732
-51.3702
-51.367
-51.3636
-51.36
-51.3562
-51.3523
-51.3482
-51.3439
-51.3394
-51.3348
-51.3301
-51.3252
-51.3202
-51.3151
-51.3098
-51.3045
-51.299
-51.2934
-51.2877
-51.282
-51.2761
-51.2702
-51.2642
-51.2582
-51.2521
-51.246
-51.2398
-51.2336
-51.2273
-51.2211
-51.2148
-51.2085
-51.2023
-51.196
-51.1898
-51.1835
-51.1773
-51.1712
-51.165
-51.1589
-51.1529
-51.1469
-51.141
-51.1351
-51.1293
-51.1236
-51.118
-51.1124
-51.107
-51.1016
-51.0963
-51.0912
-51.0861
-51.0812
-51.0764
-51.0716
-51.0671
-51.0626
-51.0583
-51.054
-51.05
-51.046
-51.0423
-51.0386
-51.0351
-51.0318
-51.0286
-51.0255
-51.0226
-51.0199
-51.0173
-51.0149
-51.0126
-51.0105
-51.0086
-51.0068
-51.0052
-51.0038
-51.0025
-51.0014
-51.0005
-50.9997
-50.9991
-50.9987
-50.9985
-50.9984
-54.9203
-54.9204
-54.9206
-54.921
-54.9216
-54.9224
-54.9233
-54.9244
-54.9257
-54.9271
-54.9288
-54.9305
-54.9325
-54.9346
-54.9369
-54.9393
-54.9419
-54.9447
-54.9476
-54.9507
-54.9539
-54.9573
-54.9608
-54.9645
-54.9683
-54.9723
-54.9764
-54.9807
-54.985
-54.9895
-54.9942
-54.9989
-55.0038
-55.0088
-55.0139
-55.0191
-55.0245
-55.0299
-55.0354
-55.041
-55.0467
-55.0525
-55.0583
-55.0643
-55.0703
-55.0763
-55.0824
-55.0886
-55.0948
-55.101
-55.1073
-55.1136
-55.12
-55.1263
-55.1326
-55.139
-55.1453
-55.1517
-55.158
-55.1643
-55.1706
-55.1768
-55.183
-55.1891
-55.1952
-55.2012
-55.2071
-55.2129
-55.2187
-55.2243
-55.2299
-55.2354
-55.2407
-55.2459
-55.251
-55.256
-55.2608
-55.2654
-55.2699
-55.2743
-55.2785
-55.2825
-55.2863
-55.29
-55.2934
-55.2967
-55.2998
-55.3027
-55.3053
-55.3078
-55.3101
-55.3121
-55.3139
-55.3155
-55.3169
-55.318
-55.3189
-55.3196
-55.3201
-55.3203
-55.3203
-55.3201
-55.3196
-55.3189
-55.318
-55.3169
-55.3155
-55.3139
-55.3121
-55.31
-55.3078
-55.3053
-55.3026
-55.2998
-55.2967
-55.2934
-55.29
-55.2863
-55.2825
-55.2784
-55.2743
-55.2699
-55.2654
-55.2607
-55.2559
-55.251
-55.2459
-55.2407
-55.2353
-55.2299
-55.2243
-55.2186
-55.2129
-55.207
-55.2011
-55.1951
-55.189
-55.1829
-55.1767
-55.1705
-55.1642
-55.1579
-55.1516
-55.1453
-55.1389
-55.1326
-55.1262
-55.1199
-55.1136
-55.1073
-55.101
-55.0947
-55.0885
-55.0824
-55.0762
-55.0702
-55.0642
-55.0583
-55.0524
-55.0466
-55.0409
-55.0353
-55.0298
-55.0244
-55.0191
-55.0139
-55.0087
-55.0038
-54.9989
-54.9941
-54.9895
-54.985
-54.9806
-54.9764
-54.9722
-54.9683
-54.9645
-54.9608
-54.9572
-54.9539
-54.9506
-54.9475
-54.9446
-54.9419
-54.9393
-54.9368
-54.9345
-54.9324
-54.9305
-54.9287
-54.9271
-54.9256
-54.9244
-54.9233
-54.9223
-54.9216
-54.921
-54.9206
-54.9203
-54.9202
-58.8419
-58.842
-58.8423
-58.8427
-58.8433
-58.844
-58.845
-58.8461
-58.8474
-58.8488
-58.8505
-58.8523
-58.8542
-58.8564
-58.8587
-58.8611
-58.8638
-58.8666
-58.8695
-58.8726
-58.8759
-58.8793
-58.8829
-58.8866
-58.8904
-58.8944
-58.8986
-58.9029
-58.9073
-58.9119
-58.9165
-58.9213
-58.9263
-58.9313
-58.9365
-58.9418
-58.9471
-58.9526
-58.9582
-58.9639
-58.9696
-58.9755
-58.9814
-58.9874
-58.9935
-58.9996
-59.0058
-59.012
-59.0183
-59.0247
-59.031
-59.0374
-59.0438
-59.0502
-59.0567
-59.0631
-59.0696
-59.076
-59.0824
-59.0888
-59.0951
-59.1015
-59.1077
-59.114
-59.1201
-59.1262
-59.1322
-59.1382
-59.144
-59.1498
-59.1554
-59.161
-59.1664
-59.1717
-59.1769
-59.1819
-59.1868
-59.1916
-59.1961
-59.2006
-59.2048
-59.2089
-59.2128
-59.2165
-59.2201
-59.2234
-59.2265
-59.2295
-59.2322
-59.2347
-59.237
-59.2391
-59.2409
-59.2425
-59.2439
-59.2451
-59.246
-59.2467
-59.2472
-59.2474
-59.2474
-59.2472
-59.2467
-59.246
-59.2451
-59.2439
-59.2425
-59.2409
-59.239
-59.237
-59.2347
-59.2322
-59.2294
-59.2265
-59.2234
-59.22
-59.2165
-59.2128
-59.2089
-59.2048
-59.2005
-59.1961
-59.1915
-59.1868
-59.1819
-59.1768
-59.1717
-59.1664
-59.1609
-59.1554
-59.1497
-59.144
-59.1381
-59.1322
-59.1262
-59.1201
-59.1139
-59.1077
-59.1014
-59.0951
-59.0887
-59.0824
-59.0759
-59.0695
-59.0631
-59.0566
-59.0502
-59.0438
-59.0373
-59.031
-59.0246
-59.0183
-59.012
-59.0057
-58.9995
-58.9934
-58.9873
-58.9813
-58.9754
-58.9696
-58.9638
-58.9581
-58.9526
-58.9471
-58.9417
-58.9364
-58.9313
-58.9262
-58.9213
-58.9165
-58.9118
-58.9072
-58.9028
-58.8985
-58.8944
-58.8904
-58.8865
-58.8828
-58.8792
-58.8758
-58.8725
-58.8694
-58.8665
-58.8637
-58.8611
-58.8586
-58.8563
-58.8542
-58.8522
-58.8504
-58.8488
-58.8473
-58.846
-58.8449
-58.844
-58.8432
-58.8426
-58.8422
-58.842
-58.8419
-62.7634
-62.7635
-62.7637
-62.7642
-62.7648
-62.7655
-62.7665
-62.7676
-62.7689
-62.7704
-62.772
-62.7738
-62.7758
-62.778
-62.7803
-62.7828
-62.7854
-62.7883
-62.7912
-62.7944
-62.7977
-62.8011
-62.8047
-62.8085
-62.8124
-62.8164
-62.8206
-62.825
-62.8294
-62.834
-62.8388
-62.8436
-62.8486
-62.8537
-62.8589
-62.8643
-62.8697
-62.8753
-62.8809
-62.8867
-62.8925
-62.8984