/*--------------------------------*- C++ -*----------------------------------*\
| =========                 |                                                 |
| \\      /  F ield         | OpenFOAM: The Open Source CFD Toolbox           |
|  \\    /   O peration     | Version:  2412                                  |
|   \\  /    A nd           | Website:  www.openfoam.com                      |
|    \\/     M anipulation  |                                                 |
\*---------------------------------------------------------------------------*/
FoamFile
{
    version     2.0;
    format      ascii;
    arch        "LSB;label=32;scalar=64";
    class       volScalarField;
    location    "1.1";
    object      p_rgh;
}
// * * * * * * * * * * * * * * * * * * * * * * * * * * * * * * * * * * * * * //

dimensions      [1 -1 -2 0 0 0 0];

internalField   nonuniform List<scalar> 
40000
(
1.962
1.96192
1.9617
1.96132
1.96077
1.96006
1.95918
1.95815
1.95695
1.9556
1.95408
1.95241
1.95058
1.9486
1.94646
1.94417
1.94173
1.93914
1.93641
1.93353
1.9305
1.92734
1.92404
1.9206
1.91703
1.91333
1.9095
1.90554
1.90147
1.89728
1.89297
1.88855
1.88402
1.87938
1.87465
1.86982
1.8649
1.85989
1.85479
1.84962
1.84437
1.83904
1.83366
1.82821
1.8227
1.81715
1.81155
1.80591
1.80023
1.79452
1.78879
1.78304
1.77728
1.77151
1.76574
1.75997
1.75422
1.74848
1.74276
1.73708
1.73142
1.72581
1.72025
1.71474
1.70929
1.7039
1.69858
1.69335
1.68819
1.68313
1.67816
1.6733
1.66854
1.66389
1.65937
1.65496
1.65069
1.64655
1.64256
1.6387
1.635
1.63145
1.62806
1.62483
1.62177
1.61889
1.61617
1.61364
1.61129
1.60912
1.60714
1.60535
1.60376
1.60236
1.60115
1.60015
1.59934
1.59874
1.59833
1.59813
1.59813
1.59834
1.59874
1.59935
1.60015
1.60116
1.60237
1.60377
1.60537
1.60716
1.60914
1.61131
1.61366
1.61619
1.61891
1.6218
1.62486
1.62808
1.63148
1.63503
1.63873
1.64258
1.64658
1.65072
1.655
1.6594
1.66393
1.66858
1.67334
1.6782
1.68317
1.68824
1.69339
1.69863
1.70394
1.70933
1.71478
1.7203
1.72586
1.73147
1.73713
1.74282
1.74853
1.75427
1.76003
1.7658
1.77157
1.77734
1.7831
1.78885
1.79458
1.80029
1.80597
1.81161
1.81721
1.82277
1.82827
1.83372
1.83911
1.84443
1.84968
1.85486
1.85995
1.86496
1.86989
1.87472
1.87945
1.88408
1.88861
1.89303
1.89734
1.90154
1.90561
1.90957
1.91339
1.9171
1.92067
1.9241
1.92741
1.93057
1.93359
1.93648
1.93921
1.9418
1.94424
1.94653
1.94867
1.95065
1.95248
1.95416
1.95567
1.95703
1.95823
1.95927
1.96015
1.96086
1.96142
1.96181
1.96204
1.96211
1.96206
1.96199
1.96178
1.96139
1.96085
1.96014
1.95926
1.95823
1.95703
1.95567
1.95416
1.95249
1.95066
1.94867
1.94653
1.94424
1.9418
1.93921
1.93648
1.93359
1.93057
1.92741
1.9241
1.92066
1.91709
1.91339
1.90956
1.9056
1.90153
1.89733
1.89302
1.8886
1.88407
1.87943
1.8747
1.86987
1.86494
1.85993
1.85483
1.84965
1.8444
1.83907
1.83369
1.82823
1.82273
1.81717
1.81157
1.80592
1.80024
1.79453
1.7888
1.78305
1.77728
1.77151
1.76574
1.75997
1.75421
1.74847
1.74275
1.73706
1.7314
1.72579
1.72022
1.71471
1.70925
1.70386
1.69855
1.69331
1.68815
1.68308
1.67811
1.67324
1.66848
1.66384
1.65931
1.6549
1.65062
1.64648
1.64248
1.63863
1.63492
1.63137
1.62798
1.62475
1.62169
1.6188
1.61609
1.61355
1.6112
1.60903
1.60705
1.60526
1.60366
1.60226
1.60106
1.60005
1.59924
1.59864
1.59823
1.59803
1.59803
1.59824
1.59864
1.59925
1.60006
1.60107
1.60227
1.60367
1.60527
1.60706
1.60905
1.61122
1.61357
1.61611
1.61882
1.62171
1.62478
1.628
1.6314
1.63495
1.63866
1.64251
1.64652
1.65066
1.65493
1.65934
1.66387
1.66852
1.67328
1.67815
1.68312
1.68819
1.69335
1.69859
1.70391
1.7093
1.71475
1.72027
1.72584
1.73145
1.73711
1.7428
1.74852
1.75426
1.76002
1.76579
1.77157
1.77734
1.78311
1.78886
1.79459
1.8003
1.80598
1.81163
1.81723
1.82279
1.8283
1.83375
1.83914
1.84446
1.84972
1.85489
1.85999
1.865
1.86993
1.87476
1.8795
1.88413
1.88866
1.89309
1.8974
1.90159
1.90567
1.90962
1.91346
1.91716
1.92073
1.92417
1.92747
1.93064
1.93366
1.93655
1.93928
1.94187
1.94431
1.9466
1.94874
1.95073
1.95256
1.95423
1.95575
1.95711
1.95831
1.95935
1.96022
1.96094
1.96149
1.96188
1.96211
1.96218
1.9623
1.96223
1.96201
1.96162
1.96107
1.96036
1.95948
1.95845
1.95725
1.95589
1.95437
1.9527
1.95087
1.94888
1.94674
1.94445
1.94201
1.93941
1.93667
1.93379
1.93076
1.92759
1.92429
1.92084
1.91727
1.91356
1.90973
1.90577
1.90169
1.89749
1.89317
1.88875
1.88421
1.87957
1.87483
1.86999
1.86506
1.86004
1.85494
1.84975
1.84449
1.83916
1.83377
1.82831
1.8228
1.81723
1.81162
1.80597
1.80028
1.79457
1.78882
1.78306
1.77729
1.77151
1.76573
1.75995
1.75419
1.74844
1.74271
1.73701
1.73134
1.72572
1.72015
1.71462
1.70916
1.70376
1.69844
1.69319
1.68802
1.68295
1.67797
1.67309
1.66832
1.66367
1.65913
1.65472
1.65043
1.64629
1.64228
1.63842
1.63471
1.63115
1.62775
1.62452
1.62145
1.61855
1.61584
1.6133
1.61094
1.60877
1.60678
1.60499
1.60339
1.60198
1.60078
1.59977
1.59896
1.59835
1.59795
1.59775
1.59775
1.59795
1.59836
1.59897
1.59978
1.60079
1.60199
1.6034
1.605
1.6068
1.60878
1.61095
1.61331
1.61585
1.61858
1.62147
1.62454
1.62777
1.63117
1.63473
1.63845
1.64231
1.64632
1.65047
1.65475
1.65917
1.6637
1.66836
1.67313
1.67801
1.68299
1.68806
1.69323
1.69848
1.70381
1.70921
1.71467
1.72019
1.72577
1.73139
1.73706
1.74276
1.74849
1.75424
1.76001
1.76578
1.77157
1.77735
1.78312
1.78888
1.79462
1.80034
1.80603
1.81168
1.81729
1.82286
1.82837
1.83383
1.83923
1.84456
1.84982
1.855
1.86011
1.86513
1.87006
1.87489
1.87964
1.88428
1.88881
1.89324
1.89755
1.90175
1.90584
1.9098
1.91363
1.91734
1.92091
1.92436
1.92766
1.93083
1.93386
1.93674
1.93948
1.94208
1.94452
1.94681
1.94895
1.95094
1.95277
1.95445
1.95597
1.95733
1.95853
1.95957
1.96044
1.96116
1.96172
1.96211
1.96233
1.96241
1.9627
1.96262
1.9624
1.96201
1.96146
1.96074
1.95986
1.95883
1.95763
1.95626
1.95475
1.95307
1.95123
1.94924
1.9471
1.9448
1.94236
1.93976
1.93702
1.93413
1.9311
1.92792
1.92461
1.92116
1.91758
1.91387
1.91002
1.90606
1.90197
1.89776
1.89344
1.889
1.88446
1.87981
1.87506
1.87021
1.86527
1.86024
1.85513
1.84993
1.84466
1.83932
1.83391
1.82844
1.82292
1.81734
1.81172
1.80605
1.80035
1.79462
1.78887
1.78309
1.77731
1.77151
1.76572
1.75993
1.75414
1.74838
1.74264
1.73692
1.73124
1.72561
1.72002
1.71448
1.709
1.70359
1.69825
1.69298
1.6878
1.68272
1.67772
1.67283
1.66805
1.66338
1.65883
1.6544
1.65011
1.64594
1.64193
1.63805
1.63433
1.63076
1.62735
1.62411
1.62103
1.61813
1.6154
1.61285
1.61048
1.60831
1.60631
1.60452
1.60291
1.6015
1.60029
1.59928
1.59847
1.59786
1.59745
1.59725
1.59725
1.59746
1.59786
1.59847
1.59929
1.6003
1.60151
1.60292
1.60453
1.60633
1.60832
1.6105
1.61287
1.61542
1.61815
1.62105
1.62413
1.62738
1.63079
1.63435
1.63808
1.64196
1.64598
1.65014
1.65443
1.65886
1.66341
1.66809
1.67287
1.67776
1.68276
1.68785
1.69303
1.69829
1.70363
1.70905
1.71452
1.72006
1.72566
1.73129
1.73697
1.74269
1.74843
1.7542
1.75998
1.76577
1.77157
1.77736
1.78315
1.78893
1.79468
1.80041
1.80611
1.81178
1.8174
1.82298
1.82851
1.83398
1.83938
1.84473
1.85
1.85519
1.86031
1.86534
1.87028
1.87512
1.87987
1.88452
1.88907
1.8935
1.89783
1.90204
1.90612
1.91009
1.91393
1.91765
1.92123
1.92468
1.92799
1.93116
1.9342
1.93709
1.93983
1.94243
1.94488
1.94717
1.94932
1.95131
1.95314
1.95482
1.95634
1.9577
1.95891
1.95995
1.96083
1.96154
1.9621
1.96249
1.96272
1.9628
1.96325
1.96317
1.96295
1.96256
1.962
1.96129
1.96041
1.95936
1.95816
1.9568
1.95527
1.95359
1.95176
1.94976
1.94761
1.94531
1.94286
1.94025
1.9375
1.93461
1.93157
1.92839
1.92507
1.92161
1.91802
1.91429
1.91044
1.90647
1.90237
1.89815
1.89381
1.88937
1.88481
1.88015
1.87538
1.87052
1.86557
1.86053
1.8554
1.85019
1.8449
1.83954
1.83412
1.82863
1.82309
1.8175
1.81185
1.80617
1.80045
1.7947
1.78893
1.78314
1.77733
1.77152
1.7657
1.75989
1.75409
1.7483
1.74254
1.7368
1.7311
1.72544
1.71983
1.71427
1.70877
1.70334
1.69798
1.69269
1.68749
1.68238
1.67737
1.67246
1.66766
1.66297
1.6584
1.65395
1.64964
1.64546
1.64142
1.63753
1.63379
1.63021
1.62678
1.62352
1.62043
1.61752
1.61478
1.61222
1.60984
1.60765
1.60565
1.60384
1.60223
1.60082
1.5996
1.59858
1.59777
1.59716
1.59675
1.59655
1.59655
1.59675
1.59716
1.59777
1.59859
1.59961
1.60083
1.60224
1.60386
1.60567
1.60767
1.60986
1.61224
1.6148
1.61754
1.62046
1.62355
1.62681
1.63023
1.63382
1.63756
1.64145
1.64549
1.64967
1.65399
1.65843
1.663
1.66769
1.6725
1.67741
1.68243
1.68754
1.69274
1.69802
1.70338
1.70882
1.71432
1.71988
1.72549
1.73115
1.73685
1.74259
1.74835
1.75414
1.75994
1.76576
1.77157
1.77739
1.78319
1.78899
1.79476
1.80051
1.80623
1.81192
1.81756
1.82315
1.8287
1.83418
1.83961
1.84496
1.85025
1.85546
1.86059
1.86563
1.87059
1.87545
1.88021
1.88488
1.88943
1.89388
1.89822
1.90243
1.90653
1.91051
1.91436
1.91809
1.92168
1.92513
1.92846
1.93164
1.93468
1.93757
1.94032
1.94293
1.94538
1.94768
1.94983
1.95183
1.95367
1.95535
1.95687
1.95824
1.95944
1.96049
1.96137
1.96209
1.96265
1.96304
1.96326
1.96334
1.96396
1.96389
1.96366
1.96327
1.96271
1.96199
1.96111
1.96006
1.95885
1.95749
1.95596
1.95427
1.95243
1.95043
1.94827
1.94596
1.9435
1.94089
1.93813
1.93523
1.93218
1.92899
1.92566
1.92219
1.91859
1.91485
1.91099
1.907
1.90288
1.89865
1.8943
1.88984
1.88527
1.88059
1.87581
1.87093
1.86596
1.86089
1.85575
1.85052
1.84521
1.83983
1.83439
1.82888
1.82331
1.8177
1.81203
1.80633
1.80058
1.79481
1.78901
1.78319
1.77736
1.77152
1.76568
1.75984
1.75401
1.7482
1.74241
1.73665
1.73092
1.72523
1.71959
1.71401
1.70848
1.70302
1.69763
1.69232
1.68709
1.68196
1.67692
1.67198
1.66715
1.66244
1.65784
1.65337
1.64903
1.64483
1.64077
1.63686
1.6331
1.62949
1.62605
1.62277
1.61966
1.61673
1.61397
1.6114
1.60901
1.6068
1.60479
1.60297
1.60135
1.59993
1.5987
1.59768
1.59686
1.59625
1.59584
1.59563
1.59563
1.59584
1.59625
1.59687
1.59769
1.59871
1.59994
1.60136
1.60299
1.60481
1.60682
1.60902
1.61142
1.61399
1.61675
1.61968
1.62279
1.62607
1.62952
1.63312
1.63689
1.6408
1.64486
1.64907
1.6534
1.65788
1.66247
1.66719
1.67202
1.67696
1.682
1.68713
1.69236
1.69767
1.70306
1.70853
1.71405
1.71964
1.72528
1.73097
1.7367
1.74246
1.74825
1.75407
1.75989
1.76573
1.77158
1.77742
1.78325
1.78907
1.79487
1.80064
1.80639
1.81209
1.81776
1.82338
1.82894
1.83445
1.8399
1.84527
1.85058
1.85581
1.86096
1.86602
1.87099
1.87587
1.88065
1.88533
1.8899
1.89437
1.89872
1.90295
1.90706
1.91105
1.91492
1.91865
1.92226
1.92573
1.92906
1.93225
1.9353
1.9382
1.94096
1.94358
1.94604
1.94835
1.9505
1.9525
1.95435
1.95604
1.95756
1.95893
1.96014
1.96119
1.96207
1.96279
1.96335
1.96375
1.96397
1.96405
1.96484
1.96476
1.96453
1.96413
1.96358
1.96285
1.96197
1.96092
1.95971
1.95833
1.9568
1.95511
1.95326
1.95125
1.94909
1.94677
1.9443
1.94168
1.93891
1.93599
1.93293
1.92973
1.92638
1.9229
1.91928
1.91553
1.91166
1.90765
1.90352
1.89927
1.8949
1.89042
1.88583
1.88113
1.87633
1.87143
1.86643
1.86135
1.85617
1.85092
1.84559
1.84019
1.83472
1.82918
1.82359
1.81794
1.81225
1.80652
1.80074
1.79494
1.78911
1.78326
1.7774
1.77153
1.76565
1.75978
1.75392
1.74808
1.74225
1.73646
1.7307
1.72498
1.7193
1.71368
1.70812
1.70263
1.6972
1.69186
1.6866
1.68143
1.67636
1.67139
1.66653
1.66178
1.65716
1.65266
1.64829
1.64406
1.63997
1.63603
1.63224
1.62861
1.62515
1.62184
1.61871
1.61576
1.61298
1.61039
1.60798
1.60576
1.60374
1.60191
1.60027
1.59884
1.5976
1.59657
1.59575
1.59513
1.59471
1.59451
1.59451
1.59472
1.59513
1.59575
1.59658
1.59761
1.59885
1.60028
1.60192
1.60375
1.60578
1.608
1.61041
1.613
1.61578
1.61874
1.62187
1.62517
1.62864
1.63227
1.63606
1.64
1.64409
1.64832
1.65269
1.65719
1.66182
1.66657
1.67143
1.6764
1.68147
1.68664
1.6919
1.69725
1.70267
1.70817
1.71373
1.71935
1.72503
1.73075
1.73651
1.7423
1.74813
1.75398
1.75984
1.76571
1.77158
1.77746
1.78332
1.78917
1.795
1.8008
1.80658
1.81231
1.81801
1.82365
1.82924
1.83478
1.84025
1.84565
1.85099
1.85624
1.86141
1.8665
1.87149
1.87639
1.88119
1.88589
1.89049
1.89497
1.89934
1.90359
1.90772
1.91172
1.9156
1.91935
1.92297
1.92645
1.9298
1.933
1.93606
1.93898
1.94175
1.94437
1.94684
1.94916
1.95132
1.95333
1.95518
1.95688
1.95841
1.95978
1.961
1.96205
1.96293
1.96366
1.96422
1.96461
1.96484
1.96492
1.96587
1.96579
1.96556
1.96517
1.9646
1.96388
1.96299
1.96193
1.96072
1.95934
1.9578
1.9561
1.95424
1.95222
1.95005
1.94772
1.94524
1.94261
1.93983
1.9369
1.93382
1.93061
1.92725
1.92375
1.92011
1.91635
1.91245
1.90842
1.90427
1.9
1.89561
1.89111
1.88649
1.88177
1.87694
1.87202
1.867
1.86189
1.85669
1.8514
1.84604
1.84061
1.83511
1.82954
1.82392
1.81824
1.81251
1.80674
1.80094
1.7951
1.78923
1.78335
1.77745
1.77154
1.76562
1.75971
1.75381
1.74793
1.74207
1.73623
1.73043
1.72467
1.71896
1.7133
1.7077
1.70216
1.6967
1.69131
1.68602
1.68081
1.6757
1.67069
1.66579
1.66101
1.65634
1.65181
1.64741
1.64314
1.63902
1.63505
1.63123
1.62757
1.62407
1.62074
1.61759
1.61461
1.61181
1.60919
1.60676
1.60453
1.60248
1.60063
1.59899
1.59754
1.59629
1.59526
1.59442
1.5938
1.59338
1.59317
1.59317
1.59338
1.5938
1.59443
1.59526
1.5963
1.59755
1.599
1.60065
1.6025
1.60454
1.60678
1.60921
1.61183
1.61463
1.61761
1.62077
1.6241
1.6276
1.63126
1.63508
1.63905
1.64317
1.64744
1.65184
1.65638
1.66104
1.66583
1.67073
1.67574
1.68085
1.68606
1.69136
1.69674
1.70221
1.70774
1.71334
1.71901
1.72472
1.73048
1.73628
1.74212
1.74798
1.75387
1.75977
1.76568
1.77159
1.7775
1.7834
1.78929
1.79516
1.801
1.8068
1.81257
1.8183
1.82398
1.8296
1.83517
1.84067
1.84611
1.85147
1.85675
1.86195
1.86706
1.87208
1.87701
1.88184
1.88656
1.89117
1.89568
1.90007
1.90434
1.90849
1.91252
1.91641
1.92018
1.92382
1.92731
1.93067
1.93389
1.93697
1.9399
1.94268
1.94531
1.94779
1.95012
1.9523
1.95431
1.95617
1.95787
1.95941
1.96079
1.96201
1.96307
1.96396
1.96468
1.96525
1.96564
1.96587
1.96595
1.96707
1.96699
1.96676
1.96636
1.96579
1.96506
1.96417
1.96311
1.96189
1.9605
1.95895
1.95725
1.95538
1.95335
1.95117
1.94883
1.94633
1.94369
1.94089
1.93795
1.93486
1.93162
1.92824
1.92473
1.92107
1.91729
1.91337
1.90932
1.90515
1.90085
1.89644
1.89191
1.88726
1.88251
1.87766
1.8727
1.86765
1.86251
1.85728
1.85196
1.84657
1.8411
1.83556
1.82996
1.8243
1.81858
1.81282
1.80701
1.80116
1.79528
1.78937
1.78344
1.7775
1.77155
1.76559
1.75964
1.75369
1.74776
1.74185
1.73597
1.73013
1.72432
1.71856
1.71285
1.7072
1.70162
1.69611
1.69068
1.68534
1.68009
1.67493
1.66988
1.66493
1.66011
1.6554
1.65083
1.64638
1.64208
1.63792
1.63391
1.63005
1.62636
1.62283
1.61947
1.61628
1.61327
1.61044
1.6078
1.60535
1.60309
1.60103
1.59916
1.5975
1.59603
1.59478
1.59373
1.59289
1.59225
1.59183
1.59162
1.59162
1.59184
1.59226
1.59289
1.59373
1.59479
1.59604
1.59751
1.59917
1.60104
1.60311
1.60537
1.60782
1.61046
1.61329
1.6163
1.61949
1.62285
1.62639
1.63008
1.63394
1.63795
1.64211
1.64642
1.65086
1.65544
1.66014
1.66497
1.66992
1.67497
1.68013
1.68538
1.69073
1.69616
1.70167
1.70725
1.7129
1.71861
1.72437
1.73018
1.73602
1.74191
1.74782
1.75375
1.75969
1.76565
1.7716
1.77756
1.7835
1.78943
1.79534
1.80122
1.80707
1.81288
1.81864
1.82436
1.83002
1.83563
1.84116
1.84663
1.85203
1.85734
1.86257
1.86772
1.87277
1.87773
1.88258
1.88733
1.89197
1.8965
1.90092
1.90521
1.90939
1.91344
1.91735
1.92114
1.9248
1.92831
1.93169
1.93493
1.93802
1.94096
1.94376
1.94641
1.9489
1.95124
1.95342
1.95545
1.95732
1.95903
1.96058
1.96196
1.96319
1.96425
1.96514
1.96587
1.96644
1.96684
1.96707
1.96715
1.96843
1.96834
1.96811
1.96771
1.96714
1.96641
1.96551
1.96445
1.96322
1.96182
1.96027
1.95855
1.95667
1.95463
1.95244
1.95008
1.94758
1.94492
1.9421
1.93914
1.93603
1.93278
1.92938
1.92584
1.92217
1.91836
1.91441
1.91034
1.90614
1.90182
1.89738
1.89282
1.88814
1.88336
1.87848
1.87349
1.8684
1.86322
1.85795
1.8526
1.84717
1.84166
1.83608
1.83044
1.82473
1.81897
1.81316
1.80731
1.80141
1.79549
1.78953
1.78356
1.77756
1.77156
1.76556
1.75955
1.75355
1.74757
1.74161
1.73568
1.72978
1.72392
1.71811
1.71235
1.70665
1.70101
1.69545
1.68997
1.68457
1.67926
1.67406
1.66895
1.66396
1.65909
1.65433
1.64971
1.64522
1.64087
1.63667
1.63261
1.62872
1.62498
1.62141
1.61801
1.61479
1.61175
1.60889
1.60622
1.60374
1.60146
1.59937
1.59748
1.5958
1.59432
1.59305
1.59199
1.59114
1.5905
1.59007
1.58986
1.58986
1.59007
1.5905
1.59114
1.59199
1.59306
1.59433
1.59581
1.59749
1.59938
1.60147
1.60376
1.60624
1.60891
1.61177
1.61482
1.61804
1.62144
1.62501
1.62874
1.63264
1.6367
1.6409
1.64525
1.64974
1.65437
1.65912
1.664
1.66899
1.6741
1.67931
1.68461
1.69001
1.69549
1.70106
1.70669
1.71239
1.71816
1.72397
1.72983
1.73573
1.74167
1.74763
1.75361
1.75961
1.76561
1.77162
1.77762
1.78362
1.78959
1.79555
1.80148
1.80737
1.81322
1.81903
1.82479
1.8305
1.83614
1.84172
1.84723
1.85266
1.85802
1.86329
1.86847
1.87355
1.87854
1.88343
1.88821
1.89288
1.89744
1.90189
1.90621
1.91041
1.91448
1.91842
1.92224
1.92591
1.92945
1.93285
1.9361
1.93921
1.94217
1.94499
1.94765
1.95015
1.95251
1.9547
1.95674
1.95862
1.96034
1.9619
1.96329
1.96452
1.96559
1.96649
1.96722
1.96779
1.96819
1.96842
1.9685
1.96995
1.96987
1.96963
1.96923
1.96866
1.96792
1.96701
1.96594
1.96471
1.9633
1.96174
1.96001
1.95812
1.95607
1.95386
1.95149
1.94897
1.94629
1.94346
1.94048
1.93735
1.93407
1.93065
1.92709
1.92339
1.91956
1.91559
1.91149
1.90726
1.9029
1.89843
1.89384
1.88913
1.88431
1.87939
1.87436
1.86924
1.86402
1.85871
1.85332
1.84784
1.84229
1.83666
1.83097
1.82522
1.81941
1.81355
1.80765
1.8017
1.79572
1.78972
1.78369
1.77764
1.77158
1.76552
1.75946
1.7534
1.74736
1.74134
1.73535
1.72939
1.72347
1.7176
1.71178
1.70602
1.70033
1.69471
1.68916
1.68371
1.67834
1.67308
1.66792
1.66287
1.65794
1.65313
1.64845
1.64391
1.63951
1.63526
1.63116
1.62721
1.62343
1.61982
1.61638
1.61312
1.61004
1.60715
1.60444
1.60193
1.59962
1.5975
1.59559
1.59389
1.59239
1.59111
1.59003
1.58917
1.58852
1.58809
1.58787
1.58787
1.58809
1.58853
1.58917
1.59004
1.59111
1.5924
1.5939
1.59561
1.59752
1.59963
1.60195
1.60446
1.60717
1.61006
1.61314
1.61641
1.61985
1.62346
1.62724
1.63119
1.63529
1.63954
1.64395
1.64849
1.65317
1.65798
1.66291
1.66796
1.67312
1.67839
1.68375
1.68921
1.69475
1.70037
1.70607
1.71183
1.71765
1.72352
1.72944
1.7354
1.7414
1.74742
1.75346
1.75951
1.76557
1.77164
1.7777
1.78374
1.78978
1.79578
1.80176
1.80771
1.81362
1.81948
1.82528
1.83104
1.83673
1.84235
1.8479
1.85338
1.85878
1.86409
1.86931
1.87443
1.87946
1.88438
1.8892
1.8939
1.8985
1.90297
1.90732
1.91155
1.91565
1.91962
1.92346
1.92716
1.93072
1.93414
1.93742
1.94055
1.94353
1.94636
1.94904
1.95156
1.95393
1.95614
1.95819
1.96008
1.96181
1.96338
1.96478
1.96602
1.96709
1.968
1.96874
1.96931
1.96971
1.96994
1.97002
1.97164
1.97155
1.97132
1.97091
1.97034
1.96959
1.96868
1.9676
1.96636
1.96495
1.96337
1.96163
1.95973
1.95766
1.95544
1.95305
1.95051
1.94782
1.94497
1.94196
1.93881
1.93551
1.93207
1.92848
1.92475
1.92089
1.91689
1.91276
1.90849
1.90411
1.8996
1.89497
1.89023
1.88537
1.88041
1.87534
1.87017
1.86491
1.85955
1.85411
1.84859
1.84299
1.83731
1.83157
1.82577
1.8199
1.81399
1.80803
1.80203
1.79599
1.78992
1.78383
1.77772
1.7716
1.76548
1.75935
1.75324
1.74713
1.74105
1.73499
1.72896
1.72298
1.71704
1.71116
1.70533
1.69957
1.69388
1.68827
1.68275
1.67732
1.67199
1.66677
1.66166
1.65667
1.6518
1.64706
1.64246
1.638
1.6337
1.62954
1.62555
1.62172
1.61806
1.61457
1.61126
1.60814
1.60521
1.60247
1.59992
1.59758
1.59543
1.5935
1.59177
1.59025
1.58895
1.58786
1.58698
1.58633
1.58589
1.58567
1.58567
1.58589
1.58633
1.58699
1.58786
1.58895
1.59026
1.59178
1.59351
1.59545
1.59759
1.59994
1.60249
1.60523
1.60816
1.61129
1.61459
1.61808
1.62174
1.62557
1.62957
1.63373
1.63804
1.6425
1.6471
1.65183
1.6567
1.6617
1.66681
1.67204
1.67737
1.6828
1.68832
1.69393
1.69961
1.70538
1.7112
1.71709
1.72303
1.72902
1.73504
1.7411
1.74719
1.75329
1.75941
1.76553
1.77166
1.77778
1.78389
1.78998
1.79605
1.80209
1.80809
1.81405
1.81997
1.82583
1.83163
1.83738
1.84305
1.84865
1.85418
1.85962
1.86497
1.87024
1.87541
1.88047
1.88544
1.89029
1.89504
1.89967
1.90418
1.90856
1.91282
1.91696
1.92096
1.92482
1.92855
1.93214
1.93558
1.93888
1.94203
1.94504
1.94789
1.95058
1.95313
1.95551
1.95773
1.9598
1.9617
1.96344
1.96502
1.96643
1.96768
1.96876
1.96967
1.97041
1.97099
1.97139
1.97163
1.97171
1.97349
1.97341
1.97317
1.97276
1.97218
1.97143
1.97051
1.96943
1.96817
1.96675
1.96516
1.96341
1.96149
1.95941
1.95717
1.95477
1.95221
1.94949
1.94662
1.9436
1.94042
1.93709
1.93362
1.93001
1.92625
1.92235
1.91832
1.91415
1.90986
1.90543
1.90089
1.89622
1.89143
1.88653
1.88153
1.87641
1.8712
1.86589
1.86048
1.85499
1.84941
1.84376
1.83803
1.83223
1.82637
1.82045
1.81447
1.80845
1.80238
1.79628
1.79015
1.78399
1.77782
1.77163
1.76544
1.75924
1.75305
1.74688
1.74072
1.73459
1.7285
1.72244
1.71643
1.71047
1.70457
1.69874
1.69298
1.6873
1.6817
1.6762
1.6708
1.66551
1.66033
1.65527
1.65033
1.64553
1.64087
1.63635
1.63198
1.62776
1.62371
1.61982
1.61611
1.61257
1.60922
1.60605
1.60308
1.60029
1.59771
1.59533
1.59315
1.59119
1.58943
1.58789
1.58657
1.58546
1.58457
1.58391
1.58346
1.58324
1.58324
1.58346
1.58391
1.58458
1.58547
1.58658
1.5879
1.58944
1.5912
1.59317
1.59535
1.59773
1.60031
1.6031
1.60607
1.60924
1.6126
1.61614
1.61985
1.62374
1.62779
1.63201
1.63638
1.6409
1.64557
1.65037
1.65531
1.66037
1.66555
1.67084
1.67625
1.68175
1.68734
1.69302
1.69878
1.70462
1.71052
1.71648
1.72249
1.72855
1.73465
1.74078
1.74693
1.75311
1.7593
1.76549
1.77169
1.77788
1.78405
1.79021
1.79634
1.80245
1.80851
1.81453
1.82051
1.82643
1.83229
1.83809
1.84382
1.84948
1.85506
1.86055
1.86595
1.87127
1.87648
1.88159
1.8866
1.8915
1.89628
1.90095
1.9055
1.90993
1.91422
1.91839
1.92242
1.92632
1.93008
1.93369
1.93716
1.94049
1.94367
1.94669
1.94956
1.95228
1.95484
1.95724
1.95949
1.96157
1.96348
1.96524
1.96683
1.96825
1.9695
1.97059
1.97151
1.97226
1.97284
1.97324
1.97348
1.97356
1.97551
1.97543
1.97519
1.97478
1.97419
1.97344
1.97251
1.97142
1.97015
1.96872
1.96712
1.96535
1.96342
1.96132
1.95906
1.95664
1.95406
1.95132
1.94843
1.94538
1.94217
1.93882
1.93532
1.93167
1.92788
1.92395
1.91988
1.91568
1.91134
1.90688
1.90229
1.89758
1.89275
1.88781
1.88275
1.87759
1.87232
1.86696
1.8615
1.85595
1.85032
1.8446
1.83881
1.83295
1.82703
1.82104
1.815
1.80891
1.80278
1.79661
1.7904
1.78418
1.77793
1.77166
1.7654
1.75912
1.75286
1.74661
1.74037
1.73417
1.72799
1.72185
1.71576
1.70972
1.70374
1.69783
1.69199
1.68623
1.68056
1.67498
1.6695
1.66413
1.65888
1.65374
1.64873
1.64386
1.63912
1.63453
1.6301
1.62582
1.6217
1.61776
1.61399
1.61039
1.60699
1.60377
1.60074
1.59791
1.59529
1.59287
1.59066
1.58866
1.58688
1.58531
1.58396
1.58284
1.58194
1.58126
1.58081
1.58058
1.58058
1.58081
1.58126
1.58194
1.58285
1.58397
1.58532
1.58689
1.58867
1.59067
1.59289
1.59531
1.59793
1.60076
1.60379
1.60701
1.61042
1.61401
1.61778
1.62173
1.62585
1.63013
1.63457
1.63916
1.64389
1.64877
1.65378
1.65892
1.66417
1.66954
1.67502
1.6806
1.68628
1.69204
1.69788
1.70379
1.70977
1.71581
1.7219
1.72804
1.73422
1.74043
1.74666
1.75292
1.75918
1.76545
1.77172
1.77798
1.78423
1.79046
1.79667
1.80284
1.80897
1.81506
1.8211
1.82709
1.83302
1.83888
1.84467
1.85038
1.85602
1.86156
1.86702
1.87239
1.87765
1.88282
1.88787
1.89282
1.89765
1.90236
1.90695
1.91141
1.91575
1.91995
1.92402
1.92795
1.93174
1.93539
1.93889
1.94224
1.94545
1.9485
1.95139
1.95413
1.95671
1.95914
1.9614
1.96349
1.96542
1.96719
1.96879
1.97023
1.97149
1.97259
1.97351
1.97427
1.97485
1.97526
1.9755
1.97558
1.9777
1.97762
1.97738
1.97696
1.97637
1.97561
1.97468
1.97357
1.9723
1.97085
1.96924
1.96746
1.96551
1.96339
1.96111
1.95867
1.95607
1.95331
1.95038
1.94731
1.94408
1.94069
1.93716
1.93348
1.92965
1.92569
1.92158
1.91734
1.91296
1.90845
1.90382
1.89906
1.89418
1.88919
1.88408
1.87886
1.87354
1.86812
1.8626
1.85699
1.8513
1.84552
1.83967
1.83374
1.82775
1.82169
1.81558
1.80942
1.80321
1.79696
1.79068
1.78438
1.77805
1.7717
1.76535
1.759
1.75265
1.74632
1.74
1.7337
1.72744
1.72122
1.71504
1.70891
1.70285
1.69685
1.69092
1.68508
1.67932
1.67366
1.66809
1.66264
1.6573
1.65208
1.647
1.64204
1.63723
1.63257
1.62806
1.62371
1.61952
1.61551
1.61168
1.60802
1.60456
1.60128
1.59821
1.59533
1.59266
1.5902
1.58795
1.58591
1.5841
1.58251
1.58114
1.57999
1.57907
1.57838
1.57792
1.57769
1.57769
1.57793
1.57839
1.57908
1.58
1.58114
1.58252
1.58411
1.58593
1.58796
1.59021
1.59268
1.59535
1.59823
1.60131
1.60458
1.60805
1.6117
1.61554
1.61955
1.62374
1.62809
1.6326
1.63727
1.64208
1.64703
1.65212
1.65734
1.66268
1.66813
1.6737
1.67936
1.68512
1.69097
1.6969
1.7029
1.70896
1.71509
1.72127
1.72749
1.73376
1.74005
1.74637
1.75271
1.75906
1.76541
1.77176
1.77811
1.78443
1.79074
1.79702
1.80327
1.80948
1.81564
1.82175
1.82781
1.8338
1.83973
1.84559
1.85136
1.85706
1.86267
1.86819
1.87361
1.87893
1.88415
1.88925
1.89425
1.89913
1.90389
1.90852
1.91303
1.9174
1.92165
1.92576
1.92972
1.93355
1.93723
1.94076
1.94415
1.94738
1.95045
1.95338
1.95614
1.95874
1.96119
1.96346
1.96558
1.96753
1.96931
1.97093
1.97237
1.97365
1.97475
1.97568
1.97644
1.97703
1.97745
1.97769
1.97777
1.98006
1.97997
1.97973
1.97931
1.97872
1.97795
1.97701
1.9759
1.97461
1.97315
1.97152
1.96973
1.96776
1.96563
1.96333
1.96086
1.95823
1.95544
1.9525
1.94939
1.94613
1.94271
1.93914
1.93543
1.93156
1.92756
1.92341
1.91912
1.9147
1.91015
1.90547
1.90066
1.89573
1.89068
1.88551
1.88024
1.87486
1.86938
1.8638
1.85812
1.85236
1.84652
1.84059
1.83459
1.82852
1.82239
1.81621
1.80996
1.80368
1.79735
1.79099
1.7846
1.77818
1.77175
1.76531
1.75887
1.75243
1.74601
1.7396
1.73321
1.72685
1.72054
1.71427
1.70805
1.70189
1.69579
1.68977
1.68383
1.67798
1.67223
1.66657
1.66103
1.6556
1.6503
1.64512
1.64008
1.63519
1.63044
1.62586
1.62143
1.61717
1.61309
1.60918
1.60546
1.60193
1.5986
1.59547
1.59254
1.58982
1.58731
1.58502
1.58295
1.5811
1.57947
1.57808
1.57691
1.57597
1.57527
1.5748
1.57457
1.57457
1.5748
1.57528
1.57598
1.57692
1.57808
1.57948
1.58111
1.58296
1.58503
1.58733
1.58983
1.59256
1.59549
1.59862
1.60196
1.60549
1.60921
1.61311
1.6172
1.62146
1.62589
1.63048
1.63522
1.64012
1.64516
1.65033
1.65564
1.66107
1.66662
1.67227
1.67803
1.68388
1.68982
1.69584
1.70193
1.7081
1.71432
1.72059
1.72691
1.73326
1.73965
1.74606
1.75249
1.75893
1.76537
1.77181
1.77824
1.78465
1.79105
1.79741
1.80374
1.81003
1.81627
1.82246
1.82859
1.83466
1.84066
1.84658
1.85243
1.85819
1.86386
1.86944
1.87493
1.88031
1.88558
1.89075
1.89579
1.90072
1.90553
1.91022
1.91477
1.91919
1.92348
1.92763
1.93163
1.9355
1.93921
1.94278
1.9462
1.94946
1.95257
1.95551
1.9583
1.96093
1.9634
1.9657
1.96783
1.9698
1.9716
1.97322
1.97468
1.97597
1.97708
1.97802
1.97879
1.97939
1.9798
1.98005
1.98013
1.98259
1.9825
1.98226
1.98184
1.98124
1.98046
1.97951
1.97839
1.97709
1.97562
1.97397
1.97216
1.97017
1.96802
1.9657
1.96321
1.96056
1.95774
1.95476
1.95162
1.94833
1.94488
1.94128
1.93752
1.93362
1.92957
1.92538
1.92104
1.91657
1.91197
1.90724
1.90237
1.89739
1.89228
1.88706
1.88172
1.87628
1.87073
1.86508
1.85934
1.85351
1.84759
1.84159
1.83551
1.82937
1.82315
1.81688
1.81056
1.80419
1.79777
1.79132
1.78484
1.77833
1.77181
1.76527
1.75874
1.7522
1.74568
1.73917
1.73268
1.72623
1.71981
1.71344
1.70712
1.70086
1.69466
1.68854
1.6825
1.67655
1.67069
1.66494
1.6593
1.65378
1.64838
1.64311
1.63798
1.63299
1.62816
1.62349
1.61898
1.61464
1.61048
1.6065
1.60271
1.59911
1.59571
1.59252
1.58953
1.58676
1.5842
1.58186
1.57975
1.57786
1.5762
1.57478
1.57359
1.57264
1.57192
1.57144
1.5712
1.5712
1.57144
1.57192
1.57264
1.5736
1.57479
1.57622
1.57787
1.57976
1.58188
1.58421
1.58677
1.58955
1.59254
1.59573
1.59913
1.60273
1.60652
1.61051
1.61467
1.61901
1.62352
1.62819
1.63303
1.63801
1.64315
1.64841
1.65382
1.65934
1.66498
1.67074
1.67659
1.68255
1.68859
1.69471
1.7009
1.70717
1.71349
1.71986
1.72628
1.73274
1.73922
1.74573
1.75226
1.75879
1.76533
1.77187
1.77839
1.7849
1.79138
1.79783
1.80425
1.81062
1.81695
1.82322
1.82943
1.83558
1.84165
1.84765
1.85357
1.85941
1.86515
1.8708
1.87635
1.88179
1.88713
1.89235
1.89746
1.90244
1.9073
1.91204
1.91664
1.92111
1.92545
1.92964
1.93369
1.93759
1.94134
1.94495
1.9484
1.95169
1.95483
1.95781
1.96063
1.96328
1.96577
1.96809
1.97024
1.97223
1.97405
1.97569
1.97716
1.97846
1.97958
1.98053
1.98131
1.98191
1.98233
1.98258
1.98266
1.98529
1.98521
1.98496
1.98453
1.98393
1.98315
1.98219
1.98105
1.97974
1.97825
1.97659
1.97476
1.97276
1.97058
1.96823
1.96572
1.96304
1.96019
1.95718
1.95401
1.95068
1.9472
1.94355
1.93976
1.93581
1.93172
1.92748
1.9231
1.91858
1.91392
1.90913
1.90421
1.89917
1.894
1.88871
1.88331
1.8778
1.87218
1.86647
1.86065
1.85474
1.84874
1.84266
1.8365
1.83027
1.82397
1.81761
1.8112
1.80473
1.79823
1.79168
1.7851
1.7785
1.77187
1.76524
1.7586
1.75196
1.74533
1.73872
1.73212
1.72556
1.71904
1.71256
1.70613
1.69976
1.69345
1.68722
1.68108
1.67502
1.66906
1.6632
1.65745
1.65182
1.64632
1.64095
1.63572
1.63064
1.62572
1.62095
1.61635
1.61193
1.60768
1.60362
1.59975
1.59608
1.59261
1.58935
1.5863
1.58347
1.58086
1.57848
1.57632
1.57439
1.5727
1.57125
1.57003
1.56906
1.56832
1.56783
1.56759
1.56759
1.56784
1.56833
1.56906
1.57004
1.57125
1.57271
1.5744
1.57633
1.57849
1.58088
1.58349
1.58632
1.58937
1.59264
1.59611
1.59978
1.60365
1.60771
1.61196
1.61638
1.62098
1.62575
1.63068
1.63576
1.64099
1.64636
1.65186
1.65749
1.66324
1.6691
1.67506
1.68112
1.68727
1.6935
1.69981
1.70618
1.71261
1.71909
1.72561
1.73218
1.73877
1.74539
1.75202
1.75866
1.7653
1.77193
1.77856
1.78516
1.79174
1.79829
1.8048
1.81126
1.81768
1.82404
1.83034
1.83657
1.84273
1.84881
1.8548
1.86071
1.86653
1.87225
1.87787
1.88338
1.88878
1.89407
1.89924
1.90428
1.9092
1.91399
1.91865
1.92317
1.92755
1.93179
1.93588
1.93983
1.94362
1.94727
1.95075
1.95408
1.95725
1.96026
1.96311
1.96579
1.9683
1.97065
1.97283
1.97483
1.97666
1.97832
1.97981
1.98112
1.98226
1.98322
1.984
1.98461
1.98503
1.98528
1.98536
1.98817
1.98809
1.98784
1.98741
1.98679
1.986
1.98503
1.98389
1.98256
1.98106
1.97938
1.97753
1.9755
1.9733
1.97093
1.96839
1.96568
1.96281
1.95977
1.95656
1.95319
1.94967
1.94598
1.94215
1.93815
1.93401
1.92973
1.92529
1.92072
1.91601
1.91116
1.90618
1.90107
1.89584
1.89048
1.88501
1.87943
1.87374
1.86794
1.86205
1.85605
1.84997
1.84381
1.83756
1.83124
1.82485
1.8184
1.81189
1.80533
1.79872
1.79207
1.78539
1.77868
1.77195
1.76521
1.75846
1.75171
1.74497
1.73824
1.73153
1.72486
1.71822
1.71162
1.70508
1.69859
1.69217
1.68582
1.67956
1.67339
1.66731
1.66134
1.65548
1.64974
1.64413
1.63865
1.63332
1.62814
1.62311
1.61824
1.61355
1.60903
1.60469
1.60055
1.5966