/*--------------------------------*- C++ -*----------------------------------*\
| =========                 |                                                 |
| \\      /  F ield         | OpenFOAM: The Open Source CFD Toolbox           |
|  \\    /   O peration     | Version:  2412                                  |
|   \\  /    A nd           | Website:  www.openfoam.com                      |
|    \\/     M anipulation  |                                                 |
\*---------------------------------------------------------------------------*/
FoamFile
{
    version     2.0;
    format      ascii;
    arch        "LSB;label=32;scalar=64";
    class       surfaceScalarField;
    location    "1.1";
    object      phi;
}
// * * * * * * * * * * * * * * * * * * * * * * * * * * * * * * * * * * * * * //

dimensions      [0 3 -1 0 0 0 0];

oriented        oriented;

internalField   nonuniform List<scalar> 
79600
(
2.11763e-11
-2.11581e-11
4.5022e-11
-2.38463e-11
7.25675e-11
-2.75465e-11
1.01901e-10
-2.93348e-11
1.32057e-10
-3.01565e-11
1.62362e-10
-3.03057e-11
1.92532e-10
-3.01706e-11
2.22486e-10
-2.99542e-11
2.52186e-10
-2.97005e-11
2.81633e-10
-2.9447e-11
3.10826e-10
-2.91935e-11
3.39757e-10
-2.89313e-11
3.68417e-10
-2.86598e-11
3.96794e-10
-2.83768e-11
4.24875e-10
-2.80799e-11
4.52642e-10
-2.77673e-11
4.80079e-10
-2.74368e-11
5.07167e-10
-2.7088e-11
5.33888e-10
-2.67201e-11
5.6022e-10
-2.63322e-11
5.86145e-10
-2.5924e-11
6.1164e-10
-2.5495e-11
6.36685e-10
-2.50449e-11
6.61258e-10
-2.45734e-11
6.85338e-10
-2.40802e-11
7.08903e-10
-2.35651e-11
7.31931e-10
-2.30279e-11
7.54401e-10
-2.24689e-11
7.76289e-10
-2.18882e-11
7.97575e-10
-2.12858e-11
8.18236e-10
-2.06615e-11
8.3825e-10
-2.00151e-11
8.57595e-10
-1.93463e-11
8.7625e-10
-1.8655e-11
8.94191e-10
-1.79416e-11
9.11397e-10
-1.72061e-11
9.27845e-10
-1.64487e-11
9.43513e-10
-1.56694e-11
9.58381e-10
-1.4868e-11
9.72425e-10
-1.40446e-11
9.85625e-10
-1.31993e-11
9.97957e-10
-1.23325e-11
1.0094e-09
-1.14446e-11
1.01994e-09
-1.05358e-11
1.02954e-09
-9.60687e-12
1.0382e-09
-8.65818e-12
1.04589e-09
-7.69043e-12
1.0526e-09
-6.70438e-12
1.05829e-09
-5.70079e-12
1.06297e-09
-4.68041e-12
1.06662e-09
-3.64389e-12
1.06921e-09
-2.59173e-12
1.07073e-09
-1.5241e-12
1.07117e-09
-4.40323e-13
1.07051e-09
6.57497e-13
1.06875e-09
1.76338e-12
1.06587e-09
2.87691e-12
1.06188e-09
3.99807e-12
1.05675e-09
5.1266e-12
1.05049e-09
6.26136e-12
1.04309e-09
7.40104e-12
1.03454e-09
8.54428e-12
1.02485e-09
9.68969e-12
1.01402e-09
1.08359e-11
1.00204e-09
1.19812e-11
9.88915e-10
1.31239e-11
9.74653e-10
1.42621e-11
9.59259e-10
1.53939e-11
9.42742e-10
1.65174e-11
9.25111e-10
1.76311e-11
9.06378e-10
1.87332e-11
8.86557e-10
1.98219e-11
8.65662e-10
2.08954e-11
8.4371e-10
2.19518e-11
8.20721e-10
2.29894e-11
7.96714e-10
2.40064e-11
7.71713e-10
2.50012e-11
7.45742e-10
2.59715e-11
7.18826e-10
2.69155e-11
6.90993e-10
2.78313e-11
6.62275e-10
2.8717e-11
6.32703e-10
2.95711e-11
6.02311e-10
3.03915e-11
5.71135e-10
3.11765e-11
5.39211e-10
3.19242e-11
5.06579e-10
3.26333e-11
4.73277e-10
3.33021e-11
4.39348e-10
3.39294e-11
4.04835e-10
3.45136e-11
3.69781e-10
3.50535e-11
3.34233e-10
3.55478e-11
2.98236e-10
3.59957e-11
2.61839e-10
3.63965e-11
2.25089e-10
3.67491e-11
1.88036e-10
3.70525e-11
1.50729e-10
3.73063e-11
1.13218e-10
3.75103e-11
7.55541e-11
3.76638e-11
3.77883e-11
3.77661e-11
-2.79186e-14
3.78163e-11
-3.78442e-11
3.78164e-11
-7.56102e-11
3.77661e-11
-1.13274e-10
3.76638e-11
-1.50785e-10
3.75108e-11
-1.88093e-10
3.73074e-11
-2.25146e-10
3.70536e-11
-2.61897e-10
3.67504e-11
-2.98294e-10
3.63982e-11
-3.34291e-10
3.59979e-11
-3.6984e-10
3.55501e-11
-4.04895e-10
3.50557e-11
-4.39412e-10
3.45158e-11
-4.73344e-10
3.3932e-11
-5.0665e-10
3.33052e-11
-5.39287e-10
3.26367e-11
-5.71216e-10
3.19278e-11
-6.02397e-10
3.11805e-11
-6.32793e-10
3.03961e-11
-6.62368e-10
2.95761e-11
-6.91091e-10
2.87226e-11
-7.18928e-10
2.78373e-11
-7.4585e-10
2.69219e-11
-7.71828e-10
2.59781e-11
-7.96837e-10
2.50082e-11
-8.20851e-10
2.40141e-11
-8.43848e-10
2.29975e-11
-8.65808e-10
2.19604e-11
-8.86712e-10
2.09043e-11
-9.06543e-10
1.98316e-11
-9.25286e-10
1.87437e-11
-9.42928e-10
1.76419e-11
-9.59456e-10
1.65284e-11
-9.74862e-10
1.54057e-11
-9.89137e-10
1.42753e-11
-1.00228e-09
1.31384e-11
-1.01427e-09
1.19973e-11
-1.02513e-09
1.0854e-11
-1.03484e-09
9.70961e-12
-1.0434e-09
8.56559e-12
-1.05082e-09
7.42311e-12
-1.05711e-09
6.28351e-12
-1.06225e-09
5.14835e-12
-1.06627e-09
4.0185e-12
-1.06917e-09
2.89492e-12
-1.07095e-09
1.77875e-12
-1.07162e-09
6.70413e-13
-1.07119e-09
-4.28984e-13
-1.06967e-09
-1.51342e-12
-1.06709e-09
-2.58075e-12
-1.06346e-09
-3.63135e-12
-1.0588e-09
-4.66495e-12
-1.05312e-09
-5.68163e-12
-1.04643e-09
-6.68116e-12
-1.03877e-09
-7.6632e-12
-1.03014e-09
-8.62735e-12
-1.02057e-09
-9.57317e-12
-1.01007e-09
-1.05005e-11
-9.98659e-10
-1.14089e-11
-9.86362e-10
-1.22974e-11
-9.73196e-10
-1.31647e-11
-9.59185e-10
-1.40107e-11
-9.44348e-10
-1.48354e-11
-9.28711e-10
-1.56377e-11
-9.12294e-10
-1.64164e-11
-8.95121e-10
-1.71721e-11
-8.77216e-10
-1.79052e-11
-8.586e-10
-1.8616e-11
-8.39295e-10
-1.93044e-11
-8.19325e-10
-1.99713e-11
-7.98709e-10
-2.06166e-11
-7.77468e-10
-2.12402e-11
-7.55624e-10
-2.18422e-11
-7.33203e-10
-2.24218e-11
-7.10226e-10
-2.29764e-11
-6.86723e-10
-2.35056e-11
-6.62712e-10
-2.40108e-11
-6.3822e-10
-2.44934e-11
-6.13263e-10
-2.49553e-11
-5.87864e-10
-2.53986e-11
-5.62042e-10
-2.5823e-11
-5.35813e-10
-2.62277e-11
-5.09206e-10
-2.66112e-11
-4.82237e-10
-2.69702e-11
-4.54931e-10
-2.73044e-11
-4.27318e-10
-2.76149e-11
-3.99415e-10
-2.79029e-11
-3.71242e-10
-2.81718e-11
-3.42822e-10
-2.84233e-11
-3.14165e-10
-2.8656e-11
-2.85294e-10
-2.88702e-11
-2.5623e-10
-2.90651e-11
-2.26991e-10
-2.92372e-11
-1.97603e-10
-2.93868e-11
-1.68091e-10
-2.95136e-11
-1.38474e-10
-2.96167e-11
-1.0878e-10
-2.96936e-11
-7.90579e-11
-2.97221e-11
-4.94686e-11
-2.95875e-11
-2.10255e-11
-2.84423e-11
-2.10295e-11
3.29581e-11
-5.4117e-11
7.20168e-11
-6.29067e-11
1.10334e-10
-6.58649e-11
1.48994e-10
-6.79963e-11
1.88077e-10
-6.92402e-11
2.27447e-10
-6.96767e-11
2.66952e-10
-6.96765e-11
3.06443e-10
-6.94454e-11
3.45829e-10
-6.90867e-11
3.85036e-10
-6.86549e-11
4.24013e-10
-6.81705e-11
4.62721e-10
-6.76389e-11
5.01125e-10
-6.70631e-11
5.39193e-10
-6.64441e-11
5.76894e-10
-6.57811e-11
6.142e-10
-6.50729e-11
6.51082e-10
-6.43184e-11
6.87511e-10
-6.35167e-11
7.23459e-10
-6.26671e-11
7.58896e-10
-6.17689e-11
7.93794e-10
-6.08214e-11
8.28123e-10
-5.98241e-11
8.61854e-10
-5.87764e-11
8.94958e-10
-5.76775e-11
9.27404e-10
-5.6527e-11
9.59165e-10
-5.53247e-11
9.90209e-10
-5.40707e-11
1.02051e-09
-5.27649e-11
1.05002e-09
-5.14074e-11
1.07873e-09
-4.99977e-11
1.10661e-09
-4.85356e-11
1.13361e-09
-4.70207e-11
1.15972e-09
-4.54529e-11
1.18489e-09
-4.38324e-11
1.20911e-09
-4.21593e-11
1.23234e-09
-4.04339e-11
1.25454e-09
-3.86563e-11
1.2757e-09
-3.68267e-11
1.29578e-09
-3.49452e-11
1.31475e-09
-3.30122e-11
1.33257e-09
-3.10283e-11
1.34924e-09
-2.89942e-11
1.3647e-09
-2.69106e-11
1.37894e-09
-2.47784e-11
1.39193e-09
-2.25986e-11
1.40365e-09
-2.03725e-11
1.41406e-09
-1.81015e-11
1.42314e-09
-1.57871e-11
1.43087e-09
-1.34311e-11
1.43722e-09
-1.1035e-11
1.44217e-09
-8.60073e-12
1.44571e-09
-6.13005e-12
1.44781e-09
-3.62515e-12
1.44846e-09
-1.08863e-12
1.44764e-09
1.47758e-12
1.44534e-09
4.06941e-12
1.44153e-09
6.68504e-12
1.43621e-09
9.32154e-12
1.42936e-09
1.19762e-11
1.42097e-09
1.46461e-11
1.41105e-09
1.73281e-11
1.39957e-09
2.00188e-11
1.38655e-09
2.27151e-11
1.37197e-09
2.54133e-11
1.35584e-09
2.81097e-11
1.33817e-09
3.08e-11
1.31895e-09
3.34801e-11
1.2982e-09
3.61459e-11
1.27592e-09
3.87931e-11
1.25213e-09
4.14178e-11
1.22685e-09
4.40157e-11
1.20009e-09
4.65824e-11
1.17187e-09
4.91135e-11
1.14222e-09
5.16047e-11
1.11116e-09
5.40516e-11
1.07871e-09
5.64501e-11
1.04492e-09
5.87956e-11
1.00981e-09
6.10837e-11
9.73412e-10
6.331e-11
9.35771e-10
6.54702e-11
8.96928e-10
6.75598e-11
8.56924e-10
6.95746e-11
8.15806e-10
7.15101e-11
7.73621e-10
7.33621e-11
7.30419e-10
7.51266e-11
6.86252e-10
7.68001e-11
6.41176e-10
7.83793e-11
5.95245e-10
7.98604e-11
5.48517e-10
8.12404e-11
5.01054e-10
8.2516e-11
4.52915e-10
8.36848e-11
4.04166e-10
8.47442e-11
3.5487e-10
8.5692e-11
3.05092e-10
8.65261e-11
2.54899e-10
8.72445e-11
2.0436e-10
8.78457e-11
1.53541e-10
8.83285e-11
1.02514e-10
8.86917e-11
5.13466e-11
8.8934e-11
1.08632e-13
8.90541e-11
-5.11296e-11
8.90538e-11
-1.02297e-10
8.89332e-11
-1.53324e-10
8.86914e-11
-2.04142e-10
8.83293e-11
-2.54682e-10
8.78479e-11
-3.04875e-10
8.72478e-11
-3.54654e-10
8.65302e-11
-4.03951e-10
8.56967e-11
-4.52702e-10
8.47491e-11
-5.00841e-10
8.36895e-11
-5.48307e-10
8.25205e-11
-5.95036e-10
8.12447e-11
-6.4097e-10
7.98651e-11
-6.86051e-10
7.83847e-11
-7.30221e-10
7.6806e-11
-7.73426e-10
7.51327e-11
-8.15615e-10
7.33685e-11
-8.56736e-10
7.15176e-11
-8.96742e-10
6.95833e-11
-9.35589e-10
6.75696e-11
-9.73233e-10
6.54808e-11
-1.00963e-09
6.33216e-11
-1.04475e-09
6.10959e-11
-1.07855e-09
5.88082e-11
-1.111e-09
5.64632e-11
-1.14207e-09
5.40656e-11
-1.17172e-09
5.16198e-11
-1.19995e-09
4.91294e-11
-1.22671e-09
4.65988e-11
-1.252e-09
4.4033e-11
-1.2758e-09
4.1436e-11
-1.29808e-09
3.88118e-11
-1.31884e-09
3.61654e-11
-1.33807e-09
3.35013e-11
-1.35575e-09
3.08235e-11
-1.37189e-09
2.81357e-11
-1.38647e-09
2.54419e-11
-1.39951e-09
2.27457e-11
-1.411e-09
2.00511e-11
-1.42093e-09
1.73613e-11
-1.42933e-09
1.46791e-11
-1.43619e-09
1.20081e-11
-1.44152e-09
9.35165e-12
-1.44534e-09
6.71262e-12
-1.44765e-09
4.09397e-12
-1.44848e-09
1.49908e-12
-1.44785e-09
-1.06863e-12
-1.44575e-09
-3.6053e-12
-1.44222e-09
-6.10889e-12
-1.43728e-09
-8.57729e-12
-1.43094e-09
-1.10079e-11
-1.42322e-09
-1.33992e-11
-1.41415e-09
-1.57502e-11
-1.40375e-09
-1.80598e-11
-1.39205e-09
-2.03264e-11
-1.37907e-09
-2.25491e-11
-1.36485e-09
-2.47268e-11
-1.3494e-09
-2.68584e-11
-1.33275e-09
-2.89421e-11
-1.31494e-09
-3.09769e-11
-1.29598e-09
-3.29622e-11
-1.27592e-09
-3.48964e-11
-1.25478e-09
-3.67782e-11
-1.23259e-09
-3.86069e-11
-1.20938e-09
-4.03826e-11
-1.18518e-09
-4.2105e-11
-1.16002e-09
-4.37745e-11
-1.13393e-09
-4.53919e-11
-1.10695e-09
-4.69571e-11
-1.0791e-09
-4.84696e-11
-1.0504e-09
-4.99308e-11
-1.02091e-09
-5.13399e-11
-9.90632e-10
-5.26963e-11
-9.59612e-10
-5.39966e-11
-9.27879e-10
-5.52421e-11
-8.95458e-10
-5.64315e-11
-8.62381e-10
-5.75685e-11
-8.28678e-10
-5.86567e-11
-7.9438e-10
-5.96971e-11
-7.59516e-10
-6.06894e-11
-7.24113e-10
-6.1632e-11
-6.88203e-10
-6.25237e-11
-6.51811e-10
-6.33625e-11
-6.14965e-10
-6.41481e-11
-5.777e-10
-6.48827e-11
-5.40038e-10
-6.55664e-11
-5.02009e-10
-6.62016e-11
-4.6364e-10
-6.6791e-11
-4.24958e-10
-6.7336e-11
-3.85992e-10
-6.78353e-11
-3.4677e-10
-6.82872e-11
-3.07317e-10
-6.86899e-11
-2.67662e-10
-6.90403e-11
-2.27832e-10
-6.93418e-11
-1.87853e-10
-6.95968e-11
-1.47746e-10
-6.98005e-11
-1.0754e-10
-6.9929e-11
-6.73575e-11
-6.97715e-11
-2.83824e-11
-6.74159e-11
-4.94114e-11
3.15362e-11
-8.56543e-11
7.37478e-11
-1.05118e-10
1.15248e-10
-1.07365e-10
1.56164e-10
-1.08912e-10
1.96901e-10
-1.09978e-10
2.37617e-10
-1.10393e-10
2.7834e-10
-1.104e-10
3.19011e-10
-1.10117e-10
3.59571e-10
-1.09646e-10
3.99963e-10
-1.09048e-10
4.40139e-10
-1.08347e-10
4.80056e-10
-1.07557e-10
5.19677e-10
-1.06684e-10
5.58965e-10
-1.05732e-10
5.97888e-10
-1.04703e-10
6.36411e-10
-1.03596e-10
6.74505e-10
-1.02412e-10
7.12138e-10
-1.01149e-10
7.49279e-10
-9.9808e-11
7.85899e-10
-9.83879e-11
8.21966e-10
-9.6888e-11
8.57449e-10
-9.53076e-11
8.92318e-10
-9.36461e-11
9.26543e-10
-9.19026e-11
9.60093e-10
-9.00767e-11
9.92937e-10
-8.8168e-11
1.02504e-09
-8.61765e-11
1.05638e-09
-8.41019e-11
1.08692e-09
-8.19438e-11
1.11662e-09
-7.97019e-11
1.14546e-09
-7.73758e-11
1.1734e-09
-7.49651e-11
1.20042e-09
-7.24699e-11
1.22648e-09
-6.98903e-11
1.25154e-09
-6.72266e-11
1.27559e-09
-6.44789e-11
1.29858e-09
-6.16476e-11
1.32048e-09
-5.87331e-11
1.34127e-09
-5.57358e-11
1.36092e-09
-5.26565e-11
1.37938e-09
-4.94962e-11
1.39665e-09
-4.6256e-11
1.41267e-09
-4.29369e-11
1.42743e-09
-3.95404e-11
1.4409e-09
-3.60681e-11
1.45305e-09
-3.25218e-11
1.46385e-09
-2.89038e-11
1.47328e-09
-2.52165e-11
1.48131e-09
-2.14624e-11
1.48792e-09
-1.76441e-11
1.49308e-09
-1.37645e-11
1.49678e-09
-9.82696e-12
1.49899e-09
-5.83517e-12
1.49969e-09
-1.79337e-12
1.49887e-09
2.29527e-12
1.49652e-09
6.42724e-12
1.4926e-09
1.05984e-11
1.48712e-09
1.48039e-11
1.48006e-09
1.90392e-11
1.4714e-09
2.32991e-11
1.46115e-09
2.75785e-11
1.4493e-09
3.18724e-11
1.43584e-09
3.61753e-11
1.42077e-09
4.04814e-11
1.4041e-09
4.47845e-11
1.38582e-09
4.90781e-11
1.36595e-09
5.33559e-11
1.34448e-09
5.76112e-11
1.32144e-09
6.18377e-11
1.29683e-09
6.60286e-11
1.27066e-09
7.01772e-11
1.24297e-09
7.42762e-11
1.21376e-09
7.83187e-11
1.18307e-09
8.22975e-11
1.15092e-09
8.62059e-11
1.11733e-09
9.00367e-11
1.08234e-09
9.37831e-11
1.04599e-09
9.74377e-11
1.00831e-09
1.00993e-10
9.69334e-10
1.04443e-10
9.29112e-10
1.07781e-10
8.87688e-10
1.10998e-10
8.45108e-10
1.1409e-10
8.01421e-10
1.17048e-10
7.5668e-10
1.19867e-10
7.10938e-10
1.22541e-10
6.64252e-10
1.25065e-10
6.1668e-10
1.27432e-10
5.68281e-10
1.29638e-10
5.19119e-10
1.31678e-10
4.69256e-10
1.33547e-10
4.18759e-10
1.35242e-10
3.67694e-10
1.36758e-10
3.16129e-10
1.38092e-10
2.64133e-10
1.39241e-10
2.11777e-10
1.40203e-10
1.59131e-10
1.40974e-10
1.06267e-10
1.41555e-10
5.32581e-11
1.41942e-10
1.75971e-13
1.42136e-10
-5.29062e-11
1.42136e-10
-1.05914e-10
1.41942e-10
-1.58777e-10
1.41556e-10
-2.11422e-10
1.40976e-10
-2.63779e-10
1.40205e-10
-3.15776e-10
1.39245e-10
-3.67342e-10
1.38096e-10
-4.18408e-10
1.36763e-10
-4.68907e-10
1.35247e-10
-5.18771e-10
1.33553e-10
-5.67935e-10
1.31684e-10
-6.16334e-10
1.29645e-10
-6.63909e-10
1.27439e-10
-7.10598e-10
1.25073e-10
-7.56342e-10
1.2255e-10
-8.01086e-10
1.19876e-10
-8.44774e-10
1.17058e-10
-8.87356e-10
1.141e-10
-9.28783e-10
1.1101e-10
-9.69006e-10
1.07794e-10
-1.00798e-09
1.04457e-10
-1.04567e-09
1.01008e-10
-1.08203e-09
9.74531e-11
-1.11702e-09
9.37995e-11
-1.15061e-09
9.00543e-11
-1.18276e-09
8.62245e-11
-1.21346e-09
8.23173e-11
-1.24267e-09
7.83393e-11
-1.27036e-09
7.4297e-11
-1.29653e-09
7.01984e-11
-1.32115e-09
6.60509e-11
-1.34419e-09
6.18611e-11
-1.36566e-09
5.76357e-11
-1.38554e-09
5.3382e-11
-1.40383e-09
4.91066e-11
-1.42051e-09
4.48152e-11
-1.43558e-09
4.05143e-11
-1.44904e-09
3.62099e-11
-1.4609e-09
3.19081e-11
-1.47115e-09
2.76149e-11
-1.47981e-09
2.33352e-11
-1.48688e-09
1.90743e-11
-1.49236e-09
1.48378e-11
-1.49628e-09
1.06305e-11
-1.49865e-09
6.4574e-12
-1.49947e-09
2.32353e-12
-1.49877e-09
-1.76658e-12
-1.49657e-09
-5.80826e-12
-1.49288e-09
-9.79863e-12
-1.48772e-09
-1.37337e-11
-1.48112e-09
-1.76099e-11
-1.4731e-09
-2.14241e-11
-1.46367e-09
-2.5174e-11
-1.45287e-09
-2.88568e-11
-1.44073e-09
-3.24707e-11
-1.42726e-09
-3.6014e-11
-1.4125e-09
-3.94848e-11
-1.39648e-09
-4.28806e-11
-1.37922e-09
-4.61995e-11
-1.36076e-09
-4.94404e-11
-1.34112e-09
-5.26018e-11
-1.32033e-09
-5.56817e-11
-1.29843e-09
-5.86788e-11
-1.27545e-09
-6.15921e-11
-1.25141e-09
-6.44212e-11
-1.22634e-09
-6.7166e-11
-1.20029e-09
-6.98271e-11
-1.17328e-09
-7.24044e-11
-1.14534e-09
-7.48972e-11
-1.1165e-09
-7.73054e-11
-1.0868e-09
-7.96305e-11
-1.05627e-09
-8.18712e-11
-1.02494e-09
-8.40273e-11
-9.92837e-10
-8.6098e-11
-9.59997e-10
-8.80828e-11
-9.26446e-10
-8.99812e-11
-8.92218e-10
-9.17969e-11
-8.57341e-10
-9.35319e-11
-8.21851e-10
-9.51873e-11
-7.85777e-10
-9.67639e-11
-7.49149e-10
-9.82599e-11
-7.11998e-10
-9.96747e-11
-6.74352e-10
-1.01009e-10
-6.36239e-10
-1.02261e-10
-5.97689e-10
-1.03434e-10
-5.58729e-10
-1.04527e-10
-5.19389e-10
-1.05542e-10
-4.79698e-10
-1.0648e-10
-4.39685e-10
-1.07345e-10
-3.99382e-10
-1.08138e-10
-3.58816e-10
-1.08855e-10
-3.18011e-10
-1.09493e-10
-2.76996e-10
-1.10054e-10
-2.35799e-10
-1.1054e-10
-1.94443e-10
-1.10952e-10
-1.52955e-10
-1.11289e-10
-1.11366e-10
-1.11519e-10
-6.98162e-11
-1.11322e-10
-2.95677e-11
-1.07669e-10
-7.89785e-11
2.99769e-11
-1.15631e-10
7.20124e-11
-1.47152e-10
1.14507e-10
-1.49858e-10
1.56308e-10
-1.50712e-10
1.97692e-10
-1.51362e-10
2.38895e-10
-1.51597e-10
2.79968e-10
-1.51473e-10
3.20909e-10
-1.51059e-10
3.61699e-10
-1.50436e-10
4.023e-10
-1.49649e-10
4.42673e-10
-1.48721e-10
4.82784e-10
-1.47668e-10
5.22596e-10
-1.46496e-10
5.62075e-10
-1.45211e-10
6.01188e-10
-1.43815e-10
6.39902e-10
-1.4231e-10
6.78187e-10
-1.40696e-10
7.16011e-10
-1.38973e-10
7.53344e-10
-1.3714e-10
7.90155e-10
-1.35198e-10
8.26412e-10
-1.33145e-10
8.62086e-10
-1.30981e-10
8.97145e-10
-1.28705e-10
9.31558e-10
-1.26316e-10
9.65296e-10
-1.23814e-10
9.98326e-10
-1.21198e-10
1.03062e-09
-1.18467e-10
1.06214e-09
-1.15622e-10
1.09285e-09
-1.12661e-10
1.12273e-09
-1.09585e-10
1.15175e-09
-1.06392e-10
1.17987e-09
-1.03083e-10
1.20706e-09
-9.96579e-11
1.23328e-09
-9.61164e-11
1.25851e-09
-9.24587e-11
1.28272e-09
-8.86853e-11
1.30587e-09
-8.47966e-11
1.32793e-09
-8.07931e-11
1.34886e-09
-7.66758e-11
1.36865e-09
-7.24458e-11
1.38726e-09
-6.81044e-11
1.40466e-09
-6.36528e-11
1.42081e-09
-5.90928e-11
1.4357e-09
-5.44262e-11
1.44929e-09
-4.96553e-11
1.46155e-09
-4.47827e-11
1.47245e-09
-3.98113e-11
1.48198e-09
-3.47442e-11
1.4901e-09
-2.95848e-11
1.49679e-09
-2.43369e-11
1.50203e-09
-1.90044e-11
1.5058e-09
-1.35919e-11
1.50806e-09
-8.10435e-12
1.50882e-09
-2.54736e-12
1.50804e-09
3.07535e-12
1.50571e-09
8.7582e-12
1.50181e-09
1.4495e-11
1.49633e-09
2.02797e-11
1.48927e-09
2.61057e-11
1.4806e-09
3.19661e-11
1.47032e-09
3.78539e-11
1.45843e-09
4.37619e-11
1.44493e-09
4.96825e-11
1.4298e-09
5.56076e-11
1.41306e-09
6.15287e-11
1.3947e-09
6.74371e-11
1.37473e-09
7.33241e-11
1.35316e-09
7.91809e-11
1.33e-09
8.49986e-11
1.30526e-09
9.07678e-11
1.27896e-09
9.64788e-11
1.25111e-09
1.02122e-10
1.22174e-09
1.07688e-10
1.19088e-09
1.13166e-10
1.15854e-09
1.18548e-10
1.12475e-09
1.23823e-10
1.08955e-09
1.28981e-10
1.05298e-09
1.34013e-10
1.01506e-09
1.38909e-10
9.75848e-10
1.43659e-10
9.35373e-10
1.48255e-10
8.93686e-10
1.52685e-10
8.50832e-10
1.56942e-10
8.06862e-10
1.61016e-10
7.61829e-10
1.64899e-10
7.15787e-10
1.68583e-10
6.68792e-10
1.7206e-10
6.20903e-10
1.75322e-10
5.7218e-10
1.78361e-10
5.22686e-10
1.81172e-10
4.72486e-10
1.83747e-10
4.21646e-10
1.86083e-10
3.70234e-10
1.88172e-10
3.18316e-10
1.9001e-10
2.65964e-10
1.91594e-10
2.13249e-10
1.92919e-10
1.60241e-10
1.93982e-10
1.07013e-10
1.94782e-10
5.36384e-11
1.95316e-10
1.90785e-13
1.95584e-10
-5.32564e-11
1.95584e-10
-1.0663e-10
1.95317e-10
-1.59856e-10
1.94784e-10
-2.12864e-10
1.93985e-10
-2.6558e-10
1.92921e-10
-3.17933e-10
1.91597e-10
-3.69852e-10
1.90014e-10
-4.21266e-10
1.88176e-10
-4.72107e-10
1.86087e-10
-5.22307e-10
1.83753e-10
-5.71802e-10
1.81178e-10
-6.20525e-10
1.78369e-10
-6.68416e-10
1.7533e-10
-7.15414e-10
1.7207e-10
-7.61458e-10
1.68595e-10
-8.06494e-10
1.64912e-10
-8.50464e-10
1.6103e-10
-8.9332e-10
1.56957e-10
-9.3501e-10
1.527e-10
-9.75487e-10
1.48271e-10
-1.01471e-09
1.43676e-10
-1.05262e-09
1.38927e-10
-1.0892e-09
1.34032e-10
-1.1244e-09
1.29001e-10
-1.15819e-09
1.23844e-10
-1.19053e-09
1.1857e-10
-1.2214e-09
1.13189e-10
-1.25077e-09
1.07712e-10
-1.27862e-09
1.02146e-10
-1.30493e-09
9.65032e-11
-1.32967e-09
9.07934e-11
-1.35284e-09
8.50261e-11
-1.37441e-09
7.92101e-11
-1.39438e-09
7.33549e-11
-1.41274e-09
6.74697e-11
-1.42949e-09
6.15628e-11
-1.44462e-09
5.56431e-11
-1.45813e-09
4.97193e-11
-1.47002e-09
4.37994e-11
-1.4803e-09
3.78919e-11
-1.48897e-09
3.20044e-11
-1.49604e-09
2.61437e-11
-1.50152e-09
2.03171e-11
-1.50542e-09
1.45314e-11
-1.50776e-09
8.7933e-12
-1.50854e-09
3.10948e-12
-1.5078e-09
-2.51423e-12
-1.50553e-09
-8.07149e-12
-1.50177e-09
-1.35578e-11
-1.49654e-09
-1.89677e-11
-1.48985e-09
-2.42969e-11
-1.48173e-09
-2.95414e-11
-1.47221e-09
-3.46973e-11
-1.4613e-09
-3.97608e-11
-1.44904e-09
-4.47288e-11
-1.43546e-09
-4.9599e-11
-1.42057e-09
-5.43686e-11
-1.40442e-09
-5.90346e-11
-1.38702e-09
-6.35947e-11
-1.36842e-09
-6.80467e-11
-1.34863e-09
-7.23885e-11
-1.32769e-09
-7.66182e-11
-1.30563e-09
-8.0735e-11
-1.28249e-09
-8.47372e-11
-1.25828e-09
-8.86239e-11
-1.23305e-09
-9.23953e-11
-1.20683e-09
-9.60514e-11
-1.17964e-09
-9.95915e-11
-1.15153e-09
-1.03015e-10
-1.12251e-09
-1.06321e-10
-1.09263e-09
-1.09512e-10
-1.06191e-09
-1.12587e-10
-1.03039e-09
-1.15546e-10
-9.98098e-10
-1.18389e-10
-9.65065e-10
-1.21115e-10
-9.31321e-10
-1.23724e-10
-8.96898e-10
-1.2622e-10
-8.61826e-10
-1.28603e-10
-8.26138e-10
-1.30875e-10
-7.89864e-10
-1.33038e-10
-7.53033e-10
-1.35089e-10
-7.15679e-10
-1.37029e-10
-6.77829e-10
-1.38859e-10
-6.39512e-10
-1.40579e-10
-6.00758e-10
-1.42189e-10
-5.61593e-10
-1.4369e-10
-5.22047e-10
-1.45085e-10
-4.82152e-10
-1.46376e-10
-4.41935e-10
-1.47563e-10
-4.01424e-10
-1.48648e-10
-3.60649e-10
-1.4963e-10
-3.19635e-10
-1.50506e-10
-2.78411e-10
-1.51277e-10
-2.37001e-10
-1.51949e-10
-1.95435e-10
-1.52521e-10
-1.53737e-10
-1.52985e-10
-1.11947e-10
-1.53308e-10
-7.02108e-11
-1.53055e-10
-2.98007e-11
-1.48082e-10
-1.08782e-10
2.94555e-11
-1.45086e-10
7.09149e-11
-1.88609e-10
1.13538e-10
-1.9248e-10
1.55769e-10
-1.92943e-10
1.97592e-10
-1.93184e-10
2.39142e-10
-1.93148e-10
2.80481e-10
-1.92812e-10
3.2164e-10
-1.92218e-10
3.62609e-10
-1.91405e-10
4.03365e-10
-1.90405e-10
4.43879e-10
-1.89236e-10
4.8412e-10
-1.87909e-10
5.24056e-10
-1.86432e-10
5.63657e-10
-1.84811e-10
6.0289e-10
-1.83047e-10
6.41724e-10
-1.81143e-10
6.80127e-10
-1.79099e-10
7.1807e-10
-1.76916e-10
7.55522e-10
-1.74592e-10
7.92453e-10
-1.72128e-10
8.28831e-10
-1.69523e-10
8.64626e-10
-1.66776e-10
8.99806e-10
-1.63886e-10
9.34342e-10
-1.60852e-10
9.68202e-10
-1.57674e-10
1.00135e-09
-1.5435e-10
1.03377e-09
-1.50881e-10
1.06541e-09
-1.47265e-10
1.09625e-09
-1.43502e-10
1.12626e-09
-1.39591e-10
1.1554e-09
-1.35532e-10
1.18364e-09
-1.31325e-10
1.21095e-09
-1.2697e-10
1.2373e-09
-1.22466e-10
1.26265e-09
-1.17813e-10
1.28698e-09
-1.13014e-10
1.31025e-09
-1.08067e-10
1.33243e-09
-1.02973e-10
1.35349e-09
-9.77347e-11
1.37339e-09
-9.23524e-11
1.39212e-09
-8.68279e-11
1.40963e-09
-8.11628e-11
1.42589e-09
-7.53594e-11
1.44089e-09
-6.94201e-11
1.45458e-09
-6.33477e-11
1.46694e-09
-5.71455e-11
1.47795e-09
-5.08171e-11
1.48757e-09
-4.43665e-11
1.49578e-09
-3.77978e-11
1.50256e-09
-3.1116e-11
1.50788e-09
-2.4326e-11
1.51172e-09
-1.74336e-11
1.51406e-09
-1.04447e-11
1.51488e-09
-3.36655e-12
1.51416e-09
3.79672e-12
1.51188e-09
1.10369e-11
1.50803e-09
1.83462e-11
1.50259e-09
2.5717e-11
1.49555e-09
3.3141e-11
1.48691e-09
4.06095e-11
1.47665e-09
4.81136e-11
1.46477e-09
5.56439e-11
1.45126e-09
6.31906e-11
1.43612e-09
7.07432e-11
1.41936e-09
7.82912e-11
1.40097e-09
8.58236e-11
1.38097e-09
9.33295e-11
1.35935e-09
1.00798e-10
1.33613e-09
1.08216e-10
1.31133e-09
1.15573e-10
1.28495e-09
1.22857e-10
1.25702e-09
1.30054e-10
1.22755e-09
1.37153e-10
1.19658e-09
1.44141e-10
1.16412e-09
1.51006e-10
1.13021e-09
1.57735e-10
1.09488e-09
1.64316e-10
1.05816e-09
1.70735e-10
1.02008e-09
1.76981e-10
9.80701e-10
1.83041e-10
9.40051e-10
1.88904e-10
8.98178e-10
1.94557e-10
8.5513e-10
1.99989e-10
8.10957e-10
2.05188e-10
7.65712e-10
2.10144e-10
7.1945e-10
2.14846e-10
6.72228e-10
2.19283e-10
6.24103e-10
2.23446e-10
5.75139e-10
2.27326e-10
5.25397e-10
2.30914e-10
4.74943e-10
2.34202e-10
4.23844e-10
2.37183e-10
3.72168e-10
2.3985e-10
3.19982e-10
2.42196e-10
2.67359e-10
2.44217e-10
2.14368e-10
2.45909e-10
1.61083e-10
2.47267e-10
1.07577e-10
2.48288e-10
5.39218e-11
2.48971e-10
1.93515e-13
2.49313e-10
-5.35342e-11
2.49313e-10
-1.07188e-10
2.48972e-10
-1.60694e-10
2.48291e-10
-2.13979e-10
2.4727e-10
-2.6697e-10
2.45912e-10
-3.19595e-10
2.4422e-10
-3.71781e-10
2.42199e-10
-4.23459e-10
2.39853e-10
-4.7456e-10
2.37187e-10
-5.25013e-10
2.34207e-10
-5.74755e-10
2.30921e-10
-6.23721e-10
2.27334e-10
-6.71846e-10
2.23456e-10
-7.19071e-10
2.19294e-10
-7.65335e-10
2.14859e-10
-8.10582e-10
2.10159e-10
-8.54756e-10
2.05205e-10
-8.97806e-10
2.00007e-10
-9.39681e-10
1.94575e-10
-9.80334e-10
1.88923e-10
-1.01972e-09
1.83062e-10
-1.05779e-09
1.77002e-10
-1.09452e-09
1.70757e-10
-1.12985e-09
1.64339e-10
-1.16377e-09
1.5776e-10
-1.19623e-09
1.51032e-10
-1.22721e-09
1.44167e-10
-1.25667e-09
1.3718e-10
-1.28461e-09
1.30081e-10
-1.31099e-09
1.22885e-10
-1.3358e-09
1.15603e-10
-1.35902e-09
1.08248e-10
-1.38064e-09
1.00831e-10
-1.40065e-09
9.33649e-11
-1.41904e-09
8.58602e-11
-1.43581e-09
7.83285e-11
-1.45094e-09
7.07812e-11
-1.46446e-09
6.32296e-11
-1.47634e-09
5.56838e-11
-1.4866e-09
4.81543e-11
-1.49525e-09
4.0651e-11
-1.50229e-09
3.31829e-11
-1.50773e-09
2.57586e-11
-1.51158e-09
1.8387e-11
-1.51387e-09
1.10766e-11
-1.5146e-09
3.83597e-12
-1.51378e-09
-3.32714e-12
-1.51145e-09
-1.04057e-11
-1.50761e-09
-1.73933e-11
-1.50229e-09
-2.42834e-11
-1.49552e-09
-3.10705e-11
-1.48731e-09
-3.77496e-11
-1.47769e-09
-4.43154e-11
-1.46669e-09
-5.07634e-11
-1.45432e-09
-5.70893e-11
-1.44063e-09
-6.32894e-11
-1.42564e-09
-6.93603e-11
-1.40937e-09
-7.5299e-11
-1.39187e-09
-8.11026e-11
-1.37314e-09
-8.67677e-11
-1.35324e-09
-9.2292e-11
-1.33218e-09
-9.76739e-11
-1.31001e-09
-1.02912e-10
-1.28674e-09
-1.08004e-10
-1.26241e-09
-1.1295e-10
-1.23706e-09
-1.17749e-10
-1.21071e-09
-1.224e-10
-1.1834e-09
-1.26902e-10
-1.15516e-09
-1.31256e-10
-1.12602e-09
-1.35462e-10
-1.09601e-09
-1.39519e-10
-1.06517e-09
-1.43429e-10
-1.03352e-09
-1.47192e-10
-1.0011e-09
-1.50806e-10
-9.67946e-10
-1.54272e-10
-9.3408e-10
-1.57592e-10
-8.99535e-10
-1.60765e-10
-8.6434e-10
-1.63796e-10
-8.28532e-10
-1.66685e-10
-7.92135e-10
-1.69432e-10
-7.55184e-10
-1.72039e-10
-7.1771e-10
-1.74504e-10
-6.79739e-10
-1.76829e-10
-6.41304e-10
-1.79015e-10
-6.02432e-10
-1.81061e-10
-5.6315e-10
-1.82971e-10
-5.23489e-10
-1.84746e-10
-4.83478e-10
-1.86387e-10
-4.43146e-10
-1.87897e-10
-4.0252e-10
-1.89275e-10
-3.61627e-10
-1.9052e-10
-3.20498e-10
-1.91634e-10
-2.79159e-10
-1.92618e-10
-2.37636e-10
-1.93473e-10
-1.95956e-10
-1.942e-10
-1.54152e-10
-1.94793e-10
-1.12259e-10
-1.95204e-10
-7.04268e-11
-1.94885e-10
-2.99199e-11
-1.88586e-10
-1.387e-10
2.93659e-11
-1.7445e-10
7.05372e-11
-2.29778e-10
1.13144e-10
-2.35085e-10
1.55569e-10
-2.35368e-10
1.9766e-10
-2.35275e-10
2.39473e-10
-2.3496e-10
2.81059e-10
-2.34397e-10
3.22435e-10
-2.33593e-10
3.63598e-10
-2.32568e-10
4.04528e-10
-2.31336e-10
4.45205e-10
-2.29912e-10
4.85599e-10
-2.28303e-10
5.25685e-10
-2.26516e-10
5.6543e-10
-2.24555e-10
6.04806e-10
-2.22421e-10
6.43781e-10
-2.20117e-10
6.82325e-10
-2.17643e-10
7.2041e-10
-2.15e-10
7.58004e-10
-2.12186e-10
7.95076e-10
-2.092e-10
8.31597e-10
-2.06044e-10
8.67535e-10
-2.02714e-10
9.02861e-10
-1.99211e-10
9.37542e-10
-1.95533e-10
9.71547e-10
-1.9168e-10
1.00485e-09
-1.8765e-10
1.03741e-09
-1.83442e-10
1.0692e-09
-1.79056e-10
1.10019e-09
-1.74491e-10
1.13034e-09
-1.69746e-10
1.15963e-09
-1.64821e-10
1.18802e-09
-1.59716e-10
1.21548e-09
-1.5443e-10
1.24198e-09
-1.48963e-10
1.26748e-09
-1.43316e-10
1.29196e-09
-1.37489e-10
1.31537e-09
-1.31483e-10
1.3377e-09
-1.25299e-10
1.3589e-09
-1.18938e-10
1.37895e-09
-1.12402e-10
1.39781e-09
-1.05692e-10
1.41546e-09
-9.88113e-11
1.43186e-09
-9.1762e-11
1.44699e-09
-8.4547e-11
1.46081e-09
-7.71698e-11
1.4733e-09
-6.96344e-11
1.48443e-09
-6.19451e-11
1.49417e-09
-5.41066e-11
1.50249e-09
-4.61242e-11
1.50938e-09
-3.80034e-11
1.5148e-09
-2.97504e-11
1.51874e-09
-2.13721e-11
1.52117e-09
-1.28755e-11
1.52207e-09
-4.26903e-12
1.52143e-09
4.44156e-12
1.51922e-09
1.32464e-11
1.51543e-09
2.2136e-11
1.51004e-09
3.11013e-11
1.50305e-09
4.01321e-11
1.49444e-09
4.92179e-11
1.48421e-09
5.83477e-11
1.47234e-09
6.751e-11
1.45884e-09
7.66928e-11
1.4437e-09
8.58835e-11
1.42692e-09
9.50694e-11
1.40851e-09
1.04237e-10
1.38846e-09
1.13374e-10
1.36679e-09
1.22465e-10
1.34351e-09
1.31496e-10
1.31863e-09
1.40453e-10
1.29217e-09
1.49321e-10
1.26414e-09
1.58084e-10
1.23456e-09
1.66729e-10
1.20346e-09
1.7524e-10
1.17087e-09
1.83601e-10
1.13681e-09
1.91796e-10
1.10131e-09
1.99812e-10
1.06442e-09
2.07631e-10
1.02616e-09
2.1524e-10
9.86579e-10
2.22623e-10
9.45718e-10
2.29765e-10
9.03623e-10
2.36653e-10
8.60341e-10
2.43271e-10
8.15924e-10
2.49606e-10
7.70424e-10
2.55645e-10
7.23897e-10
2.61374e-10
6.76399e-10
2.66781e-10
6.27991e-10
2.71854e-10
5.78734e-10
2.76583e-10
5.28692e-10
2.80955e-10
4.7793e-10
2.84963e-10
4.26517e-10
2.88596e-10
3.74519e-10
2.91847e-10
3.22008e-10
2.94707e-10
2.69054e-10
2.97171e-10
2.1573e-10
2.99233e-10
1.62107e-10
3.00889e-10
1.08261e-10
3.02134e-10
5.4265e-11
3.02966e-10
1.94702e-13
3.03383e-10
-5.38751e-11
3.03384e-10
-1.0787e-10
3.02968e-10
-1.61716e-10
3.02137e-10
-2.15339e-10
3.00892e-10
-2.68665e-10
2.99237e-10
-3.2162e-10
2.97175e-10
-3.74132e-10
2.94712e-10
-4.26131e-10
2.91852e-10
-4.77545e-10
2.88602e-10
-5.28307e-10
2.8497e-10
-5.78349e-10
2.80964e-10
-6.27607e-10
2.76592e-10
-6.76016e-10
2.71865e-10
-7.23516e-10
2.66793e-10
-7.70045e-10
2.61388e-10
-8.15547e-10
2.55661e-10
-8.59966e-10
2.49624e-10
-9.0325e-10
2.4329e-10
-9.45347e-10
2.36673e-10
-9.8621e-10
2.29787e-10
-1.02579e-09
2.22645e-10
-1.06405e-09
2.15264e-10
-1.10095e-09
2.07656e-10
-1.13645e-09
1.99838e-10
-1.17052e-09
1.91824e-10
-1.20311e-09
1.83629e-10
-1.23421e-09
1.75269e-10
-1.26379e-09
1.6676e-10
-1.29183e-09
1.58116e-10
-1.31829e-09
1.49354e-10
-1.34318e-09
1.40487e-10
-1.36646e-09
1.31532e-10
-1.38813e-09
1.22503e-10
-1.40818e-09
1.13413e-10
-1.4266e-09
1.04277e-10
-1.44338e-09
9.51102e-11
-1.45852e-09
8.59249e-11
-1.47203e-09
7.67353e-11
-1.4839e-09
6.75538e-11
-1.49413e-09
5.83925e-11
-1.50274e-09
4.92636e-11
-1.50974e-09
4.01781e-11
-1.51513e-09
3.11469e-11
-1.51892e-09
2.21809e-11
-1.52114e-09
1.32907e-11
-1.52179e-09
4.48607e-12
-1.52089e-09
-4.22342e-12
-1.51847e-09
-1.28297e-11
-1.51453e-09
-2.1325e-11
-1.50911e-09
-2.97018e-11
-1.50223e-09
-3.7953e-11
-1.49391e-09
-4.60716e-11
-1.48417e-09
-5.40518e-11
-1.47304e-09
-6.18881e-11
-1.46055e-09
-6.95754e-11
-1.44673e-09
-7.71088e-11
-1.43161e-09
-8.44845e-11
-1.41521e-09
-9.16991e-11
-1.39756e-09
-9.87487e-11
-1.3787e-09
-1.05629e-10
-1.35865e-09
-1.12338e-10
-1.33745e-09
-1.18875e-10
-1.31513e-09
-1.25235e-10
-1.29171e-09
-1.3142e-10
-1.26724e-09
-1.37425e-10
-1.24174e-09
-1.43251e-10
-1.21524e-09
-1.48896e-10
-1.18778e-09
-1.54362e-10
-1.15939e-09
-1.59647e-10
-1.1301e-09
-1.64752e-10
-1.09994e-09
-1.69676e-10
-1.06895e-09
-1.74421e-10
-1.03715e-09
-1.78986e-10
-1.00459e-09
-1.83371e-10