/*--------------------------------*- C++ -*----------------------------------*\
| =========                 |                                                 |
| \\      /  F ield         | OpenFOAM: The Open Source CFD Toolbox           |
|  \\    /   O peration     | Version:  2412                                  |
|   \\  /    A nd           | Website:  www.openfoam.com                      |
|    \\/     M anipulation  |                                                 |
\*---------------------------------------------------------------------------*/
FoamFile
{
    version     2.0;
    format      ascii;
    arch        "LSB;label=32;scalar=64";
    class       volVectorField;
    location    "1.1";
    object      U;
}
// * * * * * * * * * * * * * * * * * * * * * * * * * * * * * * * * * * * * * //

dimensions      [0 1 -1 0 0 0 0];

internalField   nonuniform List<vector> 
40000
(
(1.07503e-05 -7.45999e-06 0)
(3.25901e-05 -7.04728e-06 0)
(5.88273e-05 -1.00442e-05 0)
(8.66419e-05 -1.13551e-05 0)
(0.000116887 -1.17539e-05 0)
(0.000147188 -1.18485e-05 0)
(0.000177449 -1.17722e-05 0)
(0.000207509 -1.16673e-05 0)
(0.000237333 -1.15496e-05 0)
(0.000266916 -1.14408e-05 0)
(0.00029624 -1.13388e-05 0)
(0.000325305 -1.1235e-05 0)
(0.000354104 -1.11285e-05 0)
(0.000382627 -1.10186e-05 0)
(0.00041086 -1.0904e-05 0)
(0.000438786 -1.07833e-05 0)
(0.000466391 -1.06554e-05 0)
(0.000493656 -1.05203e-05 0)
(0.000520563 -1.03777e-05 0)
(0.000547092 -1.02273e-05 0)
(0.000573223 -1.00689e-05 0)
(0.000598936 -9.90226e-06 0)
(0.000624208 -9.72738e-06 0)
(0.00064902 -9.54404e-06 0)
(0.000673348 -9.35211e-06 0)
(0.000697173 -9.1515e-06 0)
(0.000720473 -8.94222e-06 0)
(0.000743224 -8.72442e-06 0)
(0.000765406 -8.49823e-06 0)
(0.000786996 -8.26368e-06 0)
(0.000807972 -8.02068e-06 0)
(0.000828312 -7.76906e-06 0)
(0.000847994 -7.50869e-06 0)
(0.000866997 -7.23959e-06 0)
(0.000885297 -6.96189e-06 0)
(0.000902873 -6.67571e-06 0)
(0.000919703 -6.3811e-06 0)
(0.000935763 -6.07802e-06 0)
(0.000951034 -5.76643e-06 0)
(0.000965492 -5.4463e-06 0)
(0.000979117 -5.11765e-06 0)
(0.000991885 -4.78062e-06 0)
(0.00100378 -4.43538e-06 0)
(0.00101477 -4.08209e-06 0)
(0.00102484 -3.72091e-06 0)
(0.00103398 -3.3521e-06 0)
(0.00104215 -2.97589e-06 0)
(0.00104935 -2.59259e-06 0)
(0.00105555 -2.2025e-06 0)
(0.00106074 -1.80594e-06 0)
(0.00106491 -1.40314e-06 0)
(0.00106803 -9.94263e-07 0)
(0.00107009 -5.7924e-07 0)
(0.00107107 -1.57657e-07 0)
(0.00107096 2.69472e-07 0)
(0.00106975 7.00045e-07 0)
(0.00106743 1.13311e-06 0)
(0.001064 1.56892e-06 0)
(0.00105944 2.00741e-06 0)
(0.00105374 2.44823e-06 0)
(0.00104691 2.89095e-06 0)
(0.00103894 3.33507e-06 0)
(0.00102982 3.78004e-06 0)
(0.00101956 4.22534e-06 0)
(0.00100815 4.67035e-06 0)
(0.0009956 5.11436e-06 0)
(0.000981907 5.5566e-06 0)
(0.000967078 5.99629e-06 0)
(0.000951122 6.43276e-06 0)
(0.000934046 6.86536e-06 0)
(0.000915863 7.29342e-06 0)
(0.000896584 7.71623e-06 0)
(0.000876224 8.13307e-06 0)
(0.000854798 8.54326e-06 0)
(0.000832325 8.94617e-06 0)
(0.000808825 9.34116e-06 0)
(0.000784318 9.72754e-06 0)
(0.000758829 1.01045e-05 0)
(0.000732382 1.04714e-05 0)
(0.000705005 1.08273e-05 0)
(0.000676726 1.11717e-05 0)
(0.000647577 1.1504e-05 0)
(0.000617591 1.18233e-05 0)
(0.000586803 1.21289e-05 0)
(0.000555249 1.24201e-05 0)
(0.000522967 1.26964e-05 0)
(0.000489995 1.29571e-05 0)
(0.000456375 1.32016e-05 0)
(0.00042215 1.34295e-05 0)
(0.000387361 1.364e-05 0)
(0.000352055 1.38329e-05 0)
(0.000316278 1.40077e-05 0)
(0.000280076 1.41642e-05 0)
(0.000243497 1.4302e-05 0)
(0.000206591 1.44207e-05 0)
(0.000169405 1.45202e-05 0)
(0.000131991 1.46005e-05 0)
(9.43981e-05 1.46614e-05 0)
(5.6678e-05 1.47024e-05 0)
(1.8883e-05 1.47229e-05 0)
(-1.89388e-05 1.47228e-05 0)
(-5.6734e-05 1.4702e-05 0)
(-9.44543e-05 1.46609e-05 0)
(-0.000132047 1.46001e-05 0)
(-0.000169462 1.45199e-05 0)
(-0.000206648 1.44202e-05 0)
(-0.000243555 1.43013e-05 0)
(-0.000280134 1.41635e-05 0)
(-0.000316336 1.40069e-05 0)
(-0.000352114 1.38321e-05 0)
(-0.000387421 1.36391e-05 0)
(-0.000422212 1.34285e-05 0)
(-0.000456441 1.3201e-05 0)
(-0.000490064 1.29569e-05 0)
(-0.00052304 1.26966e-05 0)
(-0.000555327 1.24207e-05 0)
(-0.000586886 1.21299e-05 0)
(-0.000617679 1.18249e-05 0)
(-0.000647668 1.1506e-05 0)
(-0.000676821 1.11741e-05 0)
(-0.000705105 1.08299e-05 0)
(-0.000732488 1.04739e-05 0)
(-0.000758941 1.0107e-05 0)
(-0.000784437 9.72998e-06 0)
(-0.000808951 9.34362e-06 0)
(-0.000832459 8.94861e-06 0)
(-0.00085494 8.54567e-06 0)
(-0.000876374 8.13538e-06 0)
(-0.000896744 7.71867e-06 0)
(-0.000916033 7.29611e-06 0)
(-0.000934226 6.86804e-06 0)
(-0.000951313 6.43542e-06 0)
(-0.000967281 5.99926e-06 0)
(-0.000982123 5.5601e-06 0)
(-0.00099583 5.11834e-06 0)
(-0.0010084 4.67496e-06 0)
(-0.00101982 4.23077e-06 0)
(-0.00103011 3.78617e-06 0)
(-0.00103924 3.34181e-06 0)
(-0.00104724 2.89811e-06 0)
(-0.00105409 2.45558e-06 0)
(-0.0010598 2.01483e-06 0)
(-0.00106438 1.57608e-06 0)
(-0.00106784 1.1396e-06 0)
(-0.00107018 7.05551e-07 0)
(-0.0010714 2.73816e-07 0)
(-0.00107152 -1.54484e-07 0)
(-0.00107055 -5.76809e-07 0)
(-0.0010685 -9.92129e-07 0)
(-0.00106539 -1.40078e-06 0)
(-0.00106124 -1.80276e-06 0)
(-0.00105607 -2.19808e-06 0)
(-0.00104988 -2.5866e-06 0)
(-0.00104271 -2.96819e-06 0)
(-0.00103456 -3.34278e-06 0)
(-0.00102546 -3.71024e-06 0)
(-0.00101542 -4.07052e-06 0)
(-0.00100446 -4.42354e-06 0)
(-0.000992604 -4.76879e-06 0)
(-0.00097987 -5.10592e-06 0)
(-0.000966279 -5.43495e-06 0)
(-0.000951853 -5.75597e-06 0)
(-0.000936614 -6.06834e-06 0)
(-0.000920584 -6.37157e-06 0)
(-0.000903787 -6.66593e-06 0)
(-0.000886246 -6.95162e-06 0)
(-0.000867983 -7.22868e-06 0)
(-0.00084902 -7.49683e-06 0)
(-0.000829379 -7.75639e-06 0)
(-0.000809083 -8.00753e-06 0)
(-0.000788151 -8.25044e-06 0)
(-0.000766606 -8.48546e-06 0)
(-0.000744472 -8.7121e-06 0)
(-0.000721771 -8.92894e-06 0)
(-0.00069853 -9.13558e-06 0)
(-0.000674772 -9.33258e-06 0)
(-0.000650518 -9.52069e-06 0)
(-0.000625789 -9.70064e-06 0)
(-0.000600607 -9.87358e-06 0)
(-0.000574993 -1.00394e-05 0)
(-0.000548965 -1.01981e-05 0)
(-0.000522546 -1.03492e-05 0)
(-0.000495757 -1.0491e-05 0)
(-0.000468619 -1.06229e-05 0)
(-0.000441158 -1.07446e-05 0)
(-0.000413397 -1.08562e-05 0)
(-0.000385356 -1.09596e-05 0)
(-0.000357056 -1.10562e-05 0)
(-0.000328514 -1.11459e-05 0)
(-0.000299748 -1.12295e-05 0)
(-0.000270779 -1.13064e-05 0)
(-0.000241626 -1.13745e-05 0)
(-0.000212311 -1.14335e-05 0)
(-0.000182859 -1.14833e-05 0)
(-0.000153291 -1.15238e-05 0)
(-0.000123633 -1.15535e-05 0)
(-9.39023e-05 -1.15618e-05 0)
(-6.41647e-05 -1.15229e-05 0)
(-3.51865e-05 -1.11839e-05 0)
(-9.04853e-06 -9.05105e-06 0)
(1.54379e-05 -3.77641e-05 0)
(5.32069e-05 -4.28927e-05 0)
(9.15652e-05 -4.69896e-05 0)
(0.000129313 -4.93092e-05 0)
(0.000168293 -5.0486e-05 0)
(0.000207578 -5.07204e-05 0)
(0.000247078 -5.05543e-05 0)
(0.00028662 -5.02412e-05 0)
(0.00032609 -4.98606e-05 0)
(0.000365411 -4.9462e-05 0)
(0.00040452 -4.90511e-05 0)
(0.000443375 -4.86218e-05 0)
(0.000481941 -4.81732e-05 0)
(0.000520185 -4.77023e-05 0)
(0.000558077 -4.72063e-05 0)
(0.000595587 -4.66826e-05 0)
(0.000632687 -4.61285e-05 0)
(0.000669348 -4.55431e-05 0)
(0.000705541 -4.49252e-05 0)
(0.000741238 -4.42739e-05 0)
(0.00077641 -4.35882e-05 0)
(0.000811028 -4.28677e-05 0)
(0.000845062 -4.21116e-05 0)
(0.000878483 -4.13195e-05 0)
(0.000911262 -4.04908e-05 0)
(0.00094337 -3.96254e-05 0)
(0.000974777 -3.87231e-05 0)
(0.00100545 -3.77842e-05 0)
(0.00103536 -3.68086e-05 0)
(0.00106448 -3.57964e-05 0)
(0.00109278 -3.4747e-05 0)
(0.00112022 -3.36603e-05 0)
(0.00114678 -3.2536e-05 0)
(0.00117243 -3.1374e-05 0)
(0.00119713 -3.01748e-05 0)
(0.00122085 -2.89384e-05 0)
(0.00124357 -2.76651e-05 0)
(0.00126526 -2.63547e-05 0)
(0.00128588 -2.50074e-05 0)
(0.00130541 -2.36232e-05 0)
(0.00132381 -2.22025e-05 0)
(0.00134106 -2.07459e-05 0)
(0.00135713 -1.92537e-05 0)
(0.00137198 -1.77267e-05 0)
(0.0013856 -1.61656e-05 0)
(0.00139796 -1.45714e-05 0)
(0.00140902 -1.29452e-05 0)
(0.00141877 -1.1288e-05 0)
(0.00142718 -9.60126e-06 0)
(0.00143422 -7.88604e-06 0)
(0.00143988 -6.14362e-06 0)
(0.00144413 -4.37519e-06 0)
(0.00144695 -2.58185e-06 0)
(0.00144833 -7.64305e-07 0)
(0.00144825 1.07484e-06 0)
(0.00144669 2.93156e-06 0)
(0.00144363 4.80337e-06 0)
(0.00143907 6.68925e-06 0)
(0.00143298 8.58771e-06 0)
(0.00142537 1.04968e-05 0)
(0.00141621 1.24145e-05 0)
(0.00140551 1.43384e-05 0)
(0.00139326 1.62663e-05 0)
(0.00137946 1.81956e-05 0)
(0.00136411 2.01236e-05 0)
(0.00134721 2.20473e-05 0)
(0.00132876 2.39636e-05 0)
(0.00130877 2.58695e-05 0)
(0.00128726 2.7762e-05 0)
(0.00126422 2.96383e-05 0)
(0.00123969 3.14953e-05 0)
(0.00121366 3.333e-05 0)
(0.00118617 3.51393e-05 0)
(0.00115723 3.69199e-05 0)
(0.00112687 3.8669e-05 0)
(0.00109511 4.03836e-05 0)
(0.00106199 4.20604e-05 0)
(0.00102753 4.36963e-05 0)
(0.000991772 4.52881e-05 0)
(0.000954749 4.68325e-05 0)
(0.000916501 4.83267e-05 0)
(0.000877072 4.97674e-05 0)
(0.000836505 5.11516e-05 0)
(0.000794847 5.24761e-05 0)
(0.000752146 5.37382e-05 0)
(0.000708455 5.49353e-05 0)
(0.000663826 5.60649e-05 0)
(0.000618315 5.71245e-05 0)
(0.000571978 5.81117e-05 0)
(0.000524875 5.90243e-05 0)
(0.000477065 5.98604e-05 0)
(0.000428613 6.06184e-05 0)
(0.000379582 6.12967e-05 0)
(0.000330036 6.18939e-05 0)
(0.000280043 6.24083e-05 0)
(0.000229668 6.2839e-05 0)
(0.00017898 6.31853e-05 0)
(0.000128048 6.34464e-05 0)
(7.69419e-05 6.3621e-05 0)
(2.57327e-05 6.37082e-05 0)
(-2.55156e-05 6.37079e-05 0)
(-7.67249e-05 6.36203e-05 0)
(-0.000127831 6.34457e-05 0)
(-0.000178763 6.31854e-05 0)
(-0.000229451 6.284e-05 0)
(-0.000279826 6.24098e-05 0)
(-0.000329821 6.18958e-05 0)
(-0.000379367 6.12993e-05 0)
(-0.000428399 6.06214e-05 0)
(-0.000476853 5.98635e-05 0)
(-0.000524663 5.90274e-05 0)
(-0.000571769 5.81149e-05 0)
(-0.000618108 5.71282e-05 0)
(-0.000663623 5.60695e-05 0)
(-0.000708255 5.49406e-05 0)
(-0.00075195 5.37439e-05 0)
(-0.000794653 5.24824e-05 0)
(-0.000836315 5.11588e-05 0)
(-0.000876885 4.97756e-05 0)
(-0.000916317 4.83356e-05 0)
(-0.000954568 4.68422e-05 0)
(-0.000991596 4.52984e-05 0)
(-0.00102736 4.37071e-05 0)
(-0.00106182 4.20718e-05 0)
(-0.00109495 4.03957e-05 0)
(-0.00112671 3.86821e-05 0)
(-0.00115708 3.6934e-05 0)
(-0.00118602 3.51542e-05 0)
(-0.00121352 3.33459e-05 0)
(-0.00123955 3.15124e-05 0)
(-0.0012641 2.96563e-05 0)
(-0.00128714 2.77808e-05 0)
(-0.00130866 2.58895e-05 0)
(-0.00132866 2.39856e-05 0)
(-0.00134711 2.20715e-05 0)
(-0.00136402 2.01504e-05 0)
(-0.00137939 1.82252e-05 0)
(-0.0013932 1.62982e-05 0)
(-0.00140546 1.43722e-05 0)
(-0.00141617 1.24493e-05 0)
(-0.00142533 1.05316e-05 0)
(-0.00143296 8.62149e-06 0)
(-0.00143905 6.72112e-06 0)
(-0.00144363 4.83236e-06 0)
(-0.00144669 2.95711e-06 0)
(-0.00144826 1.09704e-06 0)
(-0.00144835 -7.4475e-07 0)
(-0.00144699 -2.56312e-06 0)
(-0.00144418 -4.35568e-06 0)
(-0.00143994 -6.12186e-06 0)
(-0.00143429 -7.86035e-06 0)
(-0.00142726 -9.57047e-06 0)
(-0.00141886 -1.12516e-05 0)
(-0.00140912 -1.29032e-05 0)
(-0.00139807 -1.45244e-05 0)
(-0.00138573 -1.61146e-05 0)
(-0.00137212 -1.76732e-05 0)
(-0.00135728 -1.91993e-05 0)
(-0.00134123 -2.06914e-05 0)
(-0.00132399 -2.21486e-05 0)
(-0.0013056 -2.35702e-05 0)
(-0.00128609 -2.49554e-05 0)
(-0.00126549 -2.63029e-05 0)
(-0.00124382 -2.76117e-05 0)
(-0.00122112 -2.88823e-05 0)
(-0.00119741 -3.01149e-05 0)
(-0.00117272 -3.131e-05 0)
(-0.0011471 -3.24678e-05 0)
(-0.00112055 -3.35888e-05 0)
(-0.00109313 -3.46729e-05 0)
(-0.00106485 -3.57208e-05 0)
(-0.00103575 -3.67319e-05 0)
(-0.00100586 -3.77054e-05 0)
(-0.000975215 -3.86377e-05 0)
(-0.000943838 -3.95294e-05 0)
(-0.000911759 -4.03805e-05 0)
(-0.000879005 -4.1194e-05 0)
(-0.000845608 -4.19729e-05 0)
(-0.000811599 -4.27191e-05 0)
(-0.000777011 -4.34324e-05 0)
(-0.000741875 -4.41114e-05 0)
(-0.000706217 -4.47544e-05 0)
(-0.000670066 -4.5358e-05 0)
(-0.000633446 -4.59216e-05 0)
(-0.000596388 -4.64463e-05 0)
(-0.000558919 -4.69332e-05 0)
(-0.000521067 -4.73856e-05 0)
(-0.000482862 -4.78069e-05 0)
(-0.000444332 -4.81972e-05 0)
(-0.000405505 -4.85566e-05 0)
(-0.000366409 -4.88833e-05 0)
(-0.00032707 -4.91743e-05 0)
(-0.000287512 -4.94278e-05 0)
(-0.000247765 -4.96448e-05 0)
(-0.000207859 -4.98257e-05 0)
(-0.000167816 -4.99661e-05 0)
(-0.00012763 -5.00391e-05 0)
(-8.73546e-05 -4.98684e-05 0)
(-4.80011e-05 -4.80532e-05 0)
(-1.11564e-05 -3.51559e-05 0)
(1.29625e-05 -6.93585e-05 0)
(5.25694e-05 -8.33085e-05 0)
(9.5159e-05 -8.56663e-05 0)
(0.000135836 -8.77345e-05 0)
(0.00017652 -8.91464e-05 0)
(0.000217189 -8.97336e-05 0)
(0.000257911 -8.9813e-05 0)
(0.000298624 -8.96051e-05 0)
(0.000339258 -8.92207e-05 0)
(0.000379751 -8.87235e-05 0)
(0.000420049 -8.81413e-05 0)
(0.000460107 -8.74865e-05 0)
(0.000499886 -8.67663e-05 0)
(0.00053935 -8.59836e-05 0)
(0.000578462 -8.51394e-05 0)
(0.000617192 -8.42334e-05 0)
(0.000655506 -8.32651e-05 0)
(0.000693375 -8.22341e-05 0)
(0.000730768 -8.11397e-05 0)
(0.000767653 -7.99813e-05 0)
(0.000804001 -7.87585e-05 0)
(0.00083978 -7.74704e-05 0)
(0.000874961 -7.61165e-05 0)
(0.000909513 -7.46961e-05 0)
(0.000943404 -7.32087e-05 0)
(0.000976606 -7.16542e-05 0)
(0.00100909 -7.00324e-05 0)
(0.00104081 -6.83433e-05 0)
(0.00107175 -6.65868e-05 0)
(0.00110188 -6.47626e-05 0)
(0.00113115 -6.28701e-05 0)
(0.00115955 -6.09092e-05 0)
(0.00118703 -5.88798e-05 0)
(0.00121358 -5.6782e-05 0)
(0.00123914 -5.46161e-05 0)
(0.0012637 -5.23821e-05 0)
(0.00128722 -5.00804e-05 0)
(0.00130968 -4.77111e-05 0)
(0.00133103 -4.52746e-05 0)
(0.00135125 -4.27715e-05 0)
(0.00137031 -4.02026e-05 0)
(0.00138818 -3.75686e-05 0)
(0.00140483 -3.48706e-05 0)
(0.00142022 -3.21097e-05 0)
(0.00143434 -2.92871e-05 0)
(0.00144715 -2.64045e-05 0)
(0.00145863 -2.34637e-05 0)
(0.00146875 -2.04668e-05 0)
(0.00147748 -1.74157e-05 0)
(0.00148481 -1.43128e-05 0)
(0.00149069 -1.11602e-05 0)
(0.00149513 -7.96056e-06 0)
(0.00149808 -4.71687e-06 0)
(0.00149954 -1.43246e-06 0)
(0.00149949 1.88971e-06 0)
(0.0014979 5.24674e-06 0)
(0.00149477 8.63515e-06 0)
(0.00149008 1.20513e-05 0)
(0.0014838 1.54914e-05 0)
(0.00147595 1.89515e-05 0)
(0.0014665 2.24276e-05 0)
(0.00145544 2.59154e-05 0)
(0.00144279 2.94105e-05 0)
(0.00142852 3.29083e-05 0)
(0.00141265 3.64036e-05 0)
(0.00139518 3.98912e-05 0)
(0.0013761 4.33656e-05 0)
(0.00135543 4.68215e-05 0)
(0.00133317 5.02537e-05 0)
(0.00130934 5.36566e-05 0)
(0.00128395 5.70249e-05 0)
(0.00125702 6.03527e-05 0)
(0.00122857 6.36343e-05 0)
(0.00119862 6.68642e-05 0)
(0.00116719 7.00369e-05 0)
(0.00113431 7.31468e-05 0)
(0.00110002 7.61881e-05 0)
(0.00106435 7.91551e-05 0)
(0.00102732 8.20422e-05 0)
(0.000988989 8.48436e-05 0)
(0.000949386 8.75538e-05 0)
(0.000908557 9.01671e-05 0)
(0.000866548 9.26778e-05 0)
(0.000823407 9.50806e-05 0)
(0.000779186 9.73702e-05 0)
(0.000733937 9.9542e-05 0)
(0.000687716 0.000101591 0)
(0.000640579 0.000103514 0)
(0.000592585 0.000105305 0)
(0.000543796 0.00010696 0)
(0.000494274 0.000108477 0)
(0.000444085 0.000109852 0)
(0.000393295 0.000111082 0)
(0.000341971 0.000112164 0)
(0.000290181 0.000113096 0)
(0.000237996 0.000113876 0)
(0.000185486 0.000114503 0)
(0.000132721 0.000114974 0)
(7.97754e-05 0.000115288 0)
(2.67227e-05 0.000115445 0)
(-2.63707e-05 0.000115445 0)
(-7.9423e-05 0.000115287 0)
(-0.000132368 0.000114973 0)
(-0.000185131 0.000114502 0)
(-0.000237642 0.000113876 0)
(-0.000289828 0.000113097 0)
(-0.000341619 0.000112164 0)
(-0.000392944 0.000111082 0)
(-0.000443736 0.000109852 0)
(-0.000493926 0.000108476 0)
(-0.000543449 0.000106959 0)
(-0.000592239 0.000105304 0)
(-0.000640234 0.000103514 0)
(-0.000687374 0.000101593 0)
(-0.000733598 9.95454e-05 0)
(-0.000778849 9.7375e-05 0)
(-0.000823072 9.50869e-05 0)
(-0.000866215 9.26862e-05 0)
(-0.000908226 9.01775e-05 0)
(-0.000949057 8.75659e-05 0)
(-0.000988663 8.48569e-05 0)
(-0.001027 8.20567e-05 0)
(-0.00106403 7.91704e-05 0)
(-0.00109971 7.62039e-05 0)
(-0.001134 7.31631e-05 0)
(-0.00116688 7.00537e-05 0)
(-0.00119831 6.68815e-05 0)
(-0.00122826 6.36517e-05 0)
(-0.00125672 6.03697e-05 0)
(-0.00128366 5.7042e-05 0)
(-0.00130905 5.36744e-05 0)
(-0.00133288 5.0272e-05 0)
(-0.00135514 4.68407e-05 0)
(-0.00137582 4.33864e-05 0)
(-0.0013949 3.99144e-05 0)
(-0.00141239 3.64295e-05 0)
(-0.00142826 3.2937e-05 0)
(-0.00144253 2.94416e-05 0)
(-0.00145519 2.59483e-05 0)
(-0.00146624 2.24618e-05 0)
(-0.0014757 1.89858e-05 0)
(-0.00148356 1.55248e-05 0)
(-0.00148983 1.20833e-05 0)
(-0.00149453 8.665e-06 0)
(-0.00149767 5.27389e-06 0)
(-0.00149926 1.91428e-06 0)
(-0.00149932 -1.40985e-06 0)
(-0.00149787 -4.69483e-06 0)
(-0.00149493 -7.93752e-06 0)
(-0.0014905 -1.1135e-05 0)
(-0.00148462 -1.4284e-05 0)
(-0.0014773 -1.73824e-05 0)
(-0.00146857 -2.04282e-05 0)
(-0.00145846 -2.34197e-05 0)
(-0.00144698 -2.63552e-05 0)
(-0.00143417 -2.92335e-05 0)
(-0.00142005 -3.20531e-05 0)
(-0.00140466 -3.48122e-05 0)
(-0.00138801 -3.75091e-05 0)
(-0.00137015 -4.0143e-05 0)
(-0.00135109 -4.27126e-05 0)
(-0.00133088 -4.52163e-05 0)
(-0.00130953 -4.76528e-05 0)
(-0.00128708 -5.00213e-05 0)
(-0.00126357 -5.23217e-05 0)
(-0.00123901 -5.45536e-05 0)
(-0.00121345 -5.67174e-05 0)
(-0.00118691 -5.8813e-05 0)
(-0.00115943 -6.08401e-05 0)
(-0.00113103 -6.27985e-05 0)
(-0.00110176 -6.46897e-05 0)
(-0.00107164 -6.65128e-05 0)
(-0.00104071 -6.82673e-05 0)
(-0.00100899 -6.99513e-05 0)
(-0.000976516 -7.15654e-05 0)
(-0.000943318 -7.31088e-05 0)
(-0.000909423 -7.45849e-05 0)
(-0.000874863 -7.59965e-05 0)
(-0.00083967 -7.73444e-05 0)
(-0.000803882 -7.8629e-05 0)
(-0.000767528 -7.98483e-05 0)
(-0.000730638 -8.10013e-05 0)
(-0.000693239 -8.20863e-05 0)
(-0.000655357 -8.31028e-05 0)
(-0.000617021 -8.40521e-05 0)
(-0.00057826 -8.49355e-05 0)
(-0.000539103 -8.57561e-05 0)
(-0.000499583 -8.6517e-05 0)
(-0.000459728 -8.72212e-05 0)
(-0.000419568 -8.78685e-05 0)
(-0.000379132 -8.84555e-05 0)
(-0.000338442 -8.8979e-05 0)
(-0.000297527 -8.94368e-05 0)
(-0.000256417 -8.98309e-05 0)
(-0.000215141 -9.01634e-05 0)
(-0.000173718 -9.04323e-05 0)
(-0.000132145 -9.06101e-05 0)
(-9.04941e-05 -9.0433e-05 0)
(-4.98845e-05 -8.74306e-05 0)
(-1.1509e-05 -6.40851e-05 0)
(1.15966e-05 -0.000101273 0)
(5.06154e-05 -0.000126511 0)
(9.37485e-05 -0.000128603 0)
(0.000135646 -0.000129691 0)
(0.000177117 -0.000130522 0)
(0.000218333 -0.00013085 0)
(0.000259433 -0.000130786 0)
(0.000300429 -0.000130456 0)
(0.000341297 -0.000129932 0)
(0.000381999 -0.000129257 0)
(0.000422495 -0.000128457 0)
(0.000462745 -0.000127544 0)
(0.000502714 -0.00012653 0)
(0.000542366 -0.000125417 0)
(0.000581669 -0.000124209 0)
(0.000620589 -0.000122906 0)
(0.000659094 -0.000121509 0)
(0.000697154 -0.000120018 0)
(0.000734738 -0.000118432 0)
(0.000771814 -0.000116752 0)
(0.000808353 -0.000114977 0)
(0.000844323 -0.000113105 0)
(0.000879694 -0.000111136 0)
(0.000914434 -0.000109071 0)
(0.000948514 -0.000106907 0)
(0.000981903 -0.000104645 0)
(0.00101457 -0.000102284 0)
(0.00104648 -9.98242e-05 0)
(0.0010776 -9.72654e-05 0)
(0.0011079 -9.46069e-05 0)
(0.00113736 -9.18482e-05 0)
(0.00116593 -8.89892e-05 0)
(0.00119359 -8.60299e-05 0)
(0.0012203 -8.29703e-05 0)
(0.00124603 -7.98106e-05 0)
(0.00127075 -7.65511e-05 0)
(0.00129444 -7.31921e-05 0)
(0.00131704 -6.97341e-05 0)
(0.00133855 -6.61778e-05 0)
(0.00135892 -6.25241e-05 0)
(0.00137812 -5.87742e-05 0)
(0.00139612 -5.49293e-05 0)
(0.0014129 -5.09907e-05 0)
(0.00142843 -4.69601e-05 0)
(0.00144267 -4.28395e-05 0)
(0.0014556 -3.86312e-05 0)
(0.00146718 -3.43377e-05 0)
(0.0014774 -2.99618e-05 0)
(0.00148623 -2.55065e-05 0)
(0.00149364 -2.09749e-05 0)
(0.00149961 -1.63706e-05 0)
(0.00150411 -1.16974e-05 0)
(0.00150713 -6.95959e-06 0)
(0.00150865 -2.16184e-06 0)
(0.00150864 2.69167e-06 0)
(0.00150708 7.59682e-06 0)
(0.00150397 1.25488e-05 0)
(0.00149929 1.7542e-05 0)
(0.00149302 2.25709e-05 0)
(0.00148515 2.76295e-05 0)
(0.00147568 3.27117e-05 0)
(0.0014646 3.78113e-05 0)
(0.0014519 4.29216e-05 0)
(0.00143759 4.80356e-05 0)
(0.00142165 5.31461e-05 0)
(0.0014041 5.82452e-05 0)
(0.00138493 6.33255e-05 0)
(0.00136416 6.83792e-05 0)
(0.0013418 7.33986e-05 0)
(0.00131784 7.83757e-05 0)
(0.00129232 8.33024e-05 0)
(0.00126525 8.81702e-05 0)
(0.00123663 9.29709e-05 0)
(0.00120651 9.76962e-05 0)
(0.0011749 0.000102338 0)
(0.00114184 0.000106888 0)
(0.00110734 0.000111338 0)
(0.00107145 0.000115679 0)
(0.0010342 0.000119903 0)
(0.000995627 0.000124002 0)
(0.000955776 0.000127967 0)
(0.000914688 0.00013179 0)
(0.000872411 0.000135463 0)
(0.000828992 0.000138978 0)
(0.000784483 0.000142329 0)
(0.000738938 0.000145507 0)
(0.000692412 0.000148506 0)
(0.000644961 0.000151319 0)
(0.000596647 0.00015394 0)
(0.00054753 0.000156363 0)
(0.000497674 0.000158584 0)
(0.000447145 0.000160597 0)
(0.00039601 0.000162397 0)
(0.000344335 0.000163981 0)
(0.000292192 0.000165346 0)
(0.000239648 0.000166488 0)
(0.000186777 0.000167404 0)
(0.00013365 0.000168094 0)
(8.03389e-05 0.000168554 0)
(2.69204e-05 0.000168784 0)
(-2.65385e-05 0.000168784 0)
(-7.9956e-05 0.000168555 0)
(-0.000133266 0.000168095 0)
(-0.000186392 0.000167406 0)
(-0.000239264 0.00016649 0)
(-0.000291808 0.000165348 0)
(-0.000343953 0.000163983 0)
(-0.000395629 0.000162398 0)
(-0.000446766 0.000160598 0)
(-0.000497296 0.000158585 0)
(-0.000547152 0.000156365 0)
(-0.000596269 0.000153942 0)
(-0.000644585 0.000151322 0)
(-0.000692037 0.00014851 0)
(-0.000738566 0.000145513 0)
(-0.000784113 0.000142337 0)
(-0.000828624 0.000138989 0)
(-0.000872044 0.000135475 0)
(-0.000914323 0.000131804 0)
(-0.000955413 0.000127983 0)
(-0.000995267 0.000124019 0)
(-0.00103384 0.000119922 0)
(-0.0010711 0.000115699 0)
(-0.00110699 0.000111359 0)
(-0.00114149 0.00010691 0)
(-0.00117456 0.000102361 0)
(-0.00120617 9.77186e-05 0)
(-0.00123629 9.29928e-05 0)
(-0.00126491 8.8191e-05 0)
(-0.00129199 8.33223e-05 0)
(-0.00131751 7.83958e-05 0)
(-0.00134147 7.34192e-05 0)
(-0.00136384 6.84005e-05 0)
(-0.00138462 6.3348e-05 0)
(-0.00140378 5.82696e-05 0)
(-0.00142134 5.31726e-05 0)
(-0.00143728 4.80644e-05 0)
(-0.0014516 4.29524e-05 0)
(-0.0014643 3.78438e-05 0)
(-0.00147538 3.27457e-05 0)
(-0.00148485 2.76643e-05 0)
(-0.00149272 2.26058e-05 0)
(-0.00149899 1.75764e-05 0)
(-0.00150368 1.2582e-05 0)
(-0.0015068 7.62851e-06 0)
(-0.00150836 2.7219e-06 0)
(-0.00150838 -2.13266e-06 0)
(-0.00150687 -6.9309e-06 0)
(-0.00150385 -1.16676e-05 0)
(-0.00149936 -1.63383e-05 0)
(-0.00149339 -2.09391e-05 0)
(-0.00148599 -2.54665e-05 0)
(-0.00147716 -2.99172e-05 0)
(-0.00146694 -3.42882e-05 0)
(-0.00145535 -3.8577e-05 0)
(-0.00144243 -4.27817e-05 0)
(-0.00142819 -4.69e-05 0)
(-0.00141266 -5.09291e-05 0)
(-0.00139588 -5.48671e-05 0)
(-0.00137788 -5.87125e-05 0)
(-0.00135868 -6.24634e-05 0)
(-0.00133831 -6.61179e-05 0)
(-0.00131681 -6.96748e-05 0)
(-0.00129421 -7.31327e-05 0)
(-0.00127053 -7.64911e-05 0)
(-0.00124581 -7.97497e-05 0)
(-0.00122008 -8.29087e-05 0)
(-0.00119336 -8.59675e-05 0)
(-0.0011657 -8.8925e-05 0)
(-0.00113713 -9.17819e-05 0)
(-0.00110768 -9.45389e-05 0)
(-0.00107737 -9.71958e-05 0)
(-0.00104625 -9.97524e-05 0)
(-0.00101434 -0.000102208 0)
(-0.000981681 -0.000104562 0)
(-0.00094829 -0.000106816 0)
(-0.000914201 -0.000108971 0)
(-0.000879446 -0.00011103 0)
(-0.000844057 -0.000112994 0)
(-0.00080807 -0.000114864 0)
(-0.000771515 -0.000116637 0)
(-0.000734423 -0.000118314 0)
(-0.000696819 -0.000119895 0)
(-0.000658732 -0.000121378 0)
(-0.00062019 -0.000122766 0)
(-0.000581224 -0.000124061 0)
(-0.000541863 -0.000125265 0)
(-0.00050214 -0.000126381 0)
(-0.000462084 -0.000127411 0)
(-0.000421719 -0.000128354 0)
(-0.000381073 -0.000129207 0)
(-0.000340171 -0.000129965 0)
(-0.000299043 -0.00013063 0)
(-0.000257722 -0.000131204 0)
(-0.000216238 -0.000131692 0)
(-0.000174606 -0.00013209 0)
(-0.000132824 -0.000132366 0)
(-9.09798e-05 -0.000132145 0)
(-5.0222e-05 -0.000127838 0)
(-1.15879e-05 -9.38504e-05 0)
(1.13795e-05 -0.00013066 0)
(4.97329e-05 -0.000168078 0)
(9.24971e-05 -0.000171204 0)
(0.000134868 -0.000171805 0)
(0.000176823 -0.000172206 0)
(0.000218452 -0.000172279 0)
(0.000259858 -0.000172039 0)
(0.000301086 -0.000171546 0)
(0.000342141 -0.000170844 0)
(0.000383003 -0.000169963 0)
(0.000423641 -0.000168925 0)
(0.000464023 -0.000167743 0)
(0.000504117 -0.000166425 0)
(0.000543891 -0.000164976 0)
(0.000583314 -0.0001634 0)
(0.000622352 -0.000161698 0)
(0.000660976 -0.000159871 0)
(0.000699155 -0.000157919 0)
(0.000736857 -0.000155842 0)
(0.000774054 -0.00015364 0)
(0.000810712 -0.000151312 0)
(0.000846803 -0.000148857 0)
(0.000882295 -0.000146274 0)
(0.000917158 -0.000143563 0)
(0.00095136 -0.000140723 0)
(0.000984871 -0.000137753 0)
(0.00101766 -0.000134653 0)
(0.00104969 -0.000131423 0)
(0.00108094 -0.000128061 0)
(0.00111137 -0.000124568 0)
(0.00114095 -0.000120943 0)
(0.00116964 -0.000117185 0)
(0.00119742 -0.000113296 0)
(0.00122426 -0.000109273 0)
(0.00125011 -0.000105119 0)
(0.00127496 -0.000100833 0)
(0.00129876 -9.64152e-05 0)
(0.00132149 -9.18672e-05 0)
(0.00134311 -8.71896e-05 0)
(0.0013636 -8.23837e-05 0)
(0.00138292 -7.74508e-05 0)
(0.00140104 -7.23927e-05 0)
(0.00141793 -6.72111e-05 0)
(0.00143356 -6.19083e-05 0)
(0.00144791 -5.64869e-05 0)
(0.00146094 -5.09498e-05 0)
(0.00147263 -4.53003e-05 0)
(0.00148295 -3.95419e-05 0)
(0.00149187 -3.36785e-05 0)
(0.00149937 -2.77143e-05 0)
(0.00150542 -2.16539e-05 0)
(0.00151 -1.55022e-05 0)
(0.00151309 -9.26477e-06 0)
(0.00151468 -2.94726e-06 0)
(0.00151473 3.44439e-06 0)
(0.00151323 9.90437e-06 0)
(0.00151017 1.64264e-05 0)
(0.00150552 2.30032e-05 0)
(0.00149929 2.96275e-05 0)
(0.00149145 3.62912e-05 0)
(0.001482 4.29865e-05 0)
(0.00147093 4.97049e-05 0)
(0.00145824 5.64377e-05 0)
(0.00144391 6.31755e-05 0)
(0.00142797 6.99088e-05 0)
(0.00141039 7.66276e-05 0)
(0.00139119 8.33222e-05 0)
(0.00137038 8.99825e-05 0)
(0.00134796 9.65984e-05 0)
(0.00132395 0.000103159 0)
(0.00129835 0.000109653 0)
(0.00127119 0.000116071 0)
(0.00124249 0.000122401 0)
(0.00121227 0.000128632 0)
(0.00118055 0.000134753 0)
(0.00114736 0.000140753 0)
(0.00111273 0.000146621 0)
(0.0010767 0.000152346 0)
(0.0010393 0.000157916 0)
(0.00100057 0.00016332 0)
(0.000960543 0.000168549 0)
(0.000919275 0.00017359 0)
(0.000876808 0.000178433 0)
(0.00083319 0.000183069 0)
(0.000788474 0.000187488 0)
(0.000742713 0.000191679 0)
(0.000695962 0.000195635 0)
(0.000648281 0.000199345 0)
(0.000599727 0.000202803 0)
(0.000550365 0.000206001 0)
(0.000500259 0.000208931 0)
(0.000449474 0.000211588 0)
(0.000398076 0.000213965 0)
(0.000346136 0.000216056 0)
(0.000293722 0.000217858 0)
(0.000240906 0.000219365 0)
(0.000187759 0.000220575 0)
(0.000134353 0.000221486 0)
(8.07627e-05 0.000222094 0)
(2.70636e-05 0.000222399 0)
(-2.6676e-05 0.0002224 0)
(-8.0374e-05 0.000222096 0)
(-0.000133964 0.000221489 0)
(-0.000187369 0.00022058 0)
(-0.000240517 0.00021937 0)
(-0.000293335 0.000217862 0)
(-0.00034575 0.000216061 0)
(-0.000397692 0.00021397 0)
(-0.00044909 0.000211594 0)
(-0.000499876 0.000208938 0)
(-0.000549983 0.000206008 0)
(-0.000599345 0.000202812 0)
(-0.000647899 0.000199354 0)
(-0.000695582 0.000195645 0)
(-0.000742334 0.000191691 0)
(-0.000788097 0.000187501 0)
(-0.000832815 0.000183084 0)
(-0.000876435 0.000178449 0)
(-0.000918904 0.000173607 0)
(-0.000960175 0.000168567 0)
(-0.0010002 0.00016334 0)
(-0.00103894 0.000157937 0)
(-0.00107634 0.000152369 0)
(-0.00111238 0.000146646 0)
(-0.00114701 0.000140779 0)
(-0.0011802 0.000134779 0)
(-0.00121192 0.000128658 0)
(-0.00124215 0.000122427 0)
(-0.00127085 0.000116097 0)
(-0.00129801 0.000109679 0)
(-0.00132361 0.000103185 0)
(-0.00134763 9.66249e-05 0)
(-0.00137005 9.00103e-05 0)
(-0.00139087 8.3351e-05 0)
(-0.00141007 7.66575e-05 0)
(-0.00142765 6.99398e-05 0)
(-0.0014436 6.32078e-05 0)
(-0.00145792 5.64717e-05 0)
(-0.00147062 4.97404e-05 0)
(-0.00148169 4.30235e-05 0)
(-0.00149114 3.63296e-05 0)
(-0.00149899 2.96667e-05 0)
(-0.00150522 2.30427e-05 0)
(-0.00150987 1.64654e-05 0)
(-0.00151294 9.94252e-06 0)
(-0.00151444 3.48168e-06 0)
(-0.0015144 -2.91031e-06 0)
(-0.00151282 -9.22772e-06 0)
(-0.00150973 -1.54638e-05 0)
(-0.00150515 -2.16128e-05 0)
(-0.0014991 -2.76701e-05 0)
(-0.00149161 -3.3631e-05 0)
(-0.00148269 -3.9491e-05 0)
(-0.00147237 -4.5246e-05 0)
(-0.00146069 -5.08923e-05 0)
(-0.00144766 -5.64271e-05 0)
(-0.00143331 -6.18473e-05 0)
(-0.00141768 -6.71497e-05 0)
(-0.00140078 -7.23319e-05 0)
(-0.00138267 -7.73909e-05 0)
(-0.00136335 -8.23248e-05 0)
(-0.00134287 -8.71316e-05 0)
(-0.00132124 -9.181e-05 0)
(-0.00129852 -9.63581e-05 0)
(-0.00127472 -0.000100775 0)
(-0.00124987 -0.00010506 0)
(-0.00122402 -0.000109214 0)
(-0.00119718 -0.000113235 0)
(-0.0011694 -0.000117123 0)
(-0.0011407 -0.000120879 0)
(-0.00111112 -0.000124502 0)
(-0.00108069 -0.000127993 0)
(-0.00104945 -0.000131354 0)
(-0.00101741 -0.000134582 0)
(-0.000984624 -0.000137676 0)
(-0.000951109 -0.000140639 0)
(-0.000916898 -0.000143472 0)
(-0.000882021 -0.000146178 0)
(-0.000846512 -0.000148758 0)
(-0.000810404 -0.000151212 0)
(-0.000773727 -0.00015354 0)
(-0.000736514 -0.000155743 0)
(-0.000698789 -0.00015782 0)
(-0.000660581 -0.000159773 0)
(-0.000621921 -0.000161603 0)
(-0.000582837 -0.00016331 0)
(-0.000543362 -0.000164898 0)
(-0.000503526 -0.000166368 0)
(-0.000463356 -0.00016772 0)
(-0.000422876 -0.000168955 0)
(-0.000382111 -0.000170069 0)
(-0.000341088 -0.000171061 0)
(-0.000299844 -0.000171933 0)
(-0.000258412 -0.00017269 0)
(-0.000216816 -0.000173337 0)
(-0.000175073 -0.000173867 0)
(-0.000133186 -0.000174238 0)
(-9.12436e-05 -0.000173957 0)
(-5.0398e-05 -0.000168325 0)
(-1.16416e-05 -0.000123734 0)
(1.13335e-05 -0.000159887 0)
(4.95962e-05 -0.000209303 0)
(9.19596e-05 -0.000213828 0)
(0.000134522 -0.00021414 0)
(0.000176749 -0.000214164 0)
(0.000218663 -0.000213966 0)
(0.000260332 -0.000213516 0)
(0.000301792 -0.000212825 0)
(0.00034305 -0.000211916 0)
(0.000384092 -0.000210809 0)
(0.000424896 -0.00020952 0)
(0.000465433 -0.000208059 0)
(0.000505676 -0.000206432 0)
(0.000545596 -0.000204645 0)
(0.000585161 -0.000202699 0)
(0.000624341 -0.000200598 0)
(0.000663106 -0.000198341 0)
(0.000701425 -0.000195929 0)
(0.000739269 -0.000193361 0)
(0.000776606 -0.000190638 0)
(0.000813408 -0.000187758 0)
(0.000849642 -0.00018472 0)
(0.000885278 -0.000181524 0)
(0.000920285 -0.000178169 0)
(0.000954633 -0.000174653 0)