/*--------------------------------*- C++ -*----------------------------------*\
| =========                 |                                                 |
| \\      /  F ield         | OpenFOAM: The Open Source CFD Toolbox           |
|  \\    /   O peration     | Version:  2412                                  |
|   \\  /    A nd           | Website:  www.openfoam.com                      |
|    \\/     M anipulation  |                                                 |
\*---------------------------------------------------------------------------*/
FoamFile
{
    version     2.0;
    format      ascii;
    arch        "LSB;label=32;scalar=64";
    class       volScalarField;
    location    "1.24";
    object      p;
}
// * * * * * * * * * * * * * * * * * * * * * * * * * * * * * * * * * * * * * //

dimensions      [1 -1 -2 0 0 0 0];

internalField   nonuniform List<scalar> 
40000
(
0
8.79776e-05
0.000139357
0.000155597
0.000136826
8.01004e-05
-1.56616e-05
-0.000148825
-0.000317671
-0.000521894
-0.000761881
-0.0010376
-0.0013484
-0.00169343
-0.002072
-0.00248357
-0.00292759
-0.0034034
-0.0039102
-0.00444715
-0.00501339
-0.00560805
-0.00623022
-0.00687897
-0.00755331
-0.00825223
-0.00897471
-0.00971969
-0.0104861
-0.0112727
-0.0120784
-0.012902
-0.0137422
-0.014598
-0.0154682
-0.0163513
-0.0172463
-0.0181518
-0.0190666
-0.0199893
-0.0209187
-0.0218537
-0.0227929
-0.023735
-0.0246787
-0.0256228
-0.0265662
-0.0275076
-0.028446
-0.0293801
-0.0303089
-0.0312312
-0.0321459
-0.033052
-0.0339485
-0.0348343
-0.0357086
-0.0365704
-0.0374188
-0.038253
-0.0390722
-0.0398758
-0.040663
-0.0414331
-0.0421855
-0.0429196
-0.043635
-0.0443312
-0.0450077
-0.0456642
-0.0463003
-0.0469159
-0.0475106
-0.0480842
-0.0486365
-0.0491674
-0.0496767
-0.0501643
-0.0506301
-0.0510742
-0.0514965
-0.0518972
-0.0522764
-0.0526339
-0.05297
-0.0532846
-0.0535779
-0.0538499
-0.0541008
-0.0543307
-0.0545397
-0.0547279
-0.0548954
-0.0550424
-0.0551689
-0.0552749
-0.0553606
-0.0554259
-0.0554709
-0.0554957
-0.0555004
-0.0554848
-0.0554491
-0.0553931
-0.0553169
-0.0552203
-0.0551033
-0.0549657
-0.0548074
-0.0546285
-0.0544287
-0.0542081
-0.0539665
-0.0537038
-0.0534199
-0.0531146
-0.0527878
-0.0524394
-0.0520693
-0.0516776
-0.051264
-0.0508288
-0.0503717
-0.0498929
-0.0493924
-0.0488703
-0.0483265
-0.0477614
-0.047175
-0.0465677
-0.0459396
-0.0452912
-0.0446226
-0.0439344
-0.0432269
-0.0425006
-0.041756
-0.0409937
-0.0402142
-0.0394184
-0.0386067
-0.0377798
-0.0369387
-0.0360842
-0.0352169
-0.034338
-0.0334484
-0.0325491
-0.0316412
-0.0307254
-0.0298031
-0.0288752
-0.0279429
-0.0270074
-0.0260697
-0.0251313
-0.0241933
-0.0232569
-0.0223232
-0.0213936
-0.0204693
-0.0195516
-0.0186418
-0.0177412
-0.0168509
-0.0159724
-0.0151067
-0.0142551
-0.0134189
-0.0125993
-0.0117975
-0.0110146
-0.0102518
-0.00951033
-0.00879117
-0.00809548
-0.00742424
-0.00677844
-0.00615906
-0.00556704
-0.00500332
-0.00446877
-0.00396432
-0.00349056
-0.00304833
-0.00263827
-0.00226123
-0.00191773
-0.00160822
-0.00133338
-0.00109351
-0.000889201
-0.000720756
-0.000588491
-0.000492691
-0.000433505
-0.000411136
-0.000425585
-0.000476383
-0.000564012
-3.92409
-3.924
-3.92394
-3.92393
-3.92395
-3.924
-3.9241
-3.92423
-3.9244
-3.9246
-3.92484
-3.92512
-3.92543
-3.92577
-3.92615
-3.92656
-3.92701
-3.92748
-3.92799
-3.92852
-3.92909
-3.92968
-3.9303
-3.93095
-3.93162
-3.93232
-3.93304
-3.93379
-3.93455
-3.93534
-3.93614
-3.93696
-3.9378
-3.93866
-3.93952
-3.94041
-3.9413
-3.9422
-3.94312
-3.94404
-3.94496
-3.9459
-3.94683
-3.94777
-3.94871
-3.94966
-3.9506
-3.95153
-3.95247
-3.9534
-3.95433
-3.95525
-3.95616
-3.95706
-3.95795
-3.95884
-3.95971
-3.96057
-3.96141
-3.96224
-3.96306
-3.96386
-3.96464
-3.96541
-3.96616
-3.96689
-3.9676
-3.96829
-3.96896
-3.96962
-3.97025
-3.97086
-3.97145
-3.97202
-3.97257
-3.9731
-3.9736
-3.97409
-3.97455
-3.97499
-3.97541
-3.97581
-3.97619
-3.97654
-3.97687
-3.97719
-3.97748
-3.97775
-3.97799
-3.97822
-3.97843
-3.97862
-3.97878
-3.97893
-3.97905
-3.97916
-3.97924
-3.97931
-3.97935
-3.97938
-3.97938
-3.97937
-3.97933
-3.97928
-3.9792
-3.97911
-3.97899
-3.97885
-3.9787
-3.97852
-3.97832
-3.9781
-3.97786
-3.9776
-3.97732
-3.97702
-3.97669
-3.97635
-3.97598
-3.97559
-3.97518
-3.97475
-3.9743
-3.97382
-3.97332
-3.9728
-3.97226
-3.9717
-3.97112
-3.97052
-3.96989
-3.96925
-3.96858
-3.9679
-3.96719
-3.96647
-3.96573
-3.96497
-3.9642
-3.9634
-3.9626
-3.96177
-3.96093
-3.96008
-3.95922
-3.95834
-3.95746
-3.95656
-3.95566
-3.95474
-3.95382
-3.9529
-3.95197
-3.95104
-3.9501
-3.94917
-3.94823
-3.9473
-3.94637
-3.94544
-3.94452
-3.9436
-3.94269
-3.94179
-3.94091
-3.94003
-3.93916
-3.93831
-3.93748
-3.93666
-3.93586
-3.93508
-3.93432
-3.93358
-3.93286
-3.93217
-3.9315
-3.93085
-3.93023
-3.92964
-3.92908
-3.92855
-3.92804
-3.92757
-3.92713
-3.92672
-3.92634
-3.926
-3.92569
-3.92541
-3.92518
-3.92497
-3.9248
-3.92467
-3.92458
-3.92452
-3.92449
-3.92451
-3.92456
-3.92465
-7.84814
-7.84805
-7.84799
-7.84798
-7.848
-7.84806
-7.84816
-7.84829
-7.84846
-7.84866
-7.8489
-7.84918
-7.84949
-7.84983
-7.85021
-7.85062
-7.85106
-7.85154
-7.85204
-7.85258
-7.85314
-7.85374
-7.85436
-7.855
-7.85568
-7.85637
-7.8571
-7.85784
-7.8586
-7.85939
-7.86019
-7.86101
-7.86185
-7.8627
-7.86357
-7.86445
-7.86535
-7.86625
-7.86716
-7.86808
-7.869
-7.86994
-7.87087
-7.87181
-7.87275
-7.87369
-7.87463
-7.87557
-7.8765
-7.87743
-7.87835
-7.87927
-7.88018
-7.88108
-7.88197
-7.88285
-7.88372
-7.88458
-7.88542
-7.88625
-7.88706
-7.88786
-7.88864
-7.8894
-7.89015
-7.89087
-7.89158
-7.89227
-7.89294
-7.89359
-7.89422
-7.89483
-7.89542
-7.89599
-7.89653
-7.89706
-7.89756
-7.89804
-7.8985
-7.89894
-7.89935
-7.89975
-7.90012
-7.90047
-7.90081
-7.90112
-7.9014
-7.90167
-7.90192
-7.90214
-7.90235
-7.90254
-7.9027
-7.90284
-7.90297
-7.90307
-7.90316
-7.90322
-7.90327
-7.90329
-7.90329
-7.90328
-7.90324
-7.90319
-7.90311
-7.90302
-7.90291
-7.90277
-7.90261
-7.90244
-7.90224
-7.90203
-7.90179
-7.90153
-7.90125
-7.90095
-7.90063
-7.90029
-7.89992
-7.89953
-7.89913
-7.8987
-7.89825
-7.89777
-7.89728
-7.89677
-7.89623
-7.89567
-7.89509
-7.89449
-7.89387
-7.89323
-7.89256
-7.89188
-7.89118
-7.89046
-7.88973
-7.88897
-7.8882
-7.88741
-7.8866
-7.88578
-7.88495
-7.8841
-7.88324
-7.88236
-7.88148
-7.88058
-7.87968
-7.87877
-7.87785
-7.87693
-7.876
-7.87507
-7.87414
-7.8732
-7.87227
-7.87134
-7.87041
-7.86948
-7.86856
-7.86764
-7.86674
-7.86584
-7.86495
-7.86408
-7.86321
-7.86236
-7.86153
-7.86071
-7.85991
-7.85913
-7.85837
-7.85763
-7.85691
-7.85622
-7.85555
-7.85491
-7.85429
-7.8537
-7.85313
-7.8526
-7.8521
-7.85162
-7.85118
-7.85077
-7.8504
-7.85005
-7.84975
-7.84947
-7.84923
-7.84903
-7.84886
-7.84873
-7.84863
-7.84857
-7.84855
-7.84857
-7.84862
-7.84871
-11.7722
-11.7721
-11.772
-11.772
-11.772
-11.7721
-11.7722
-11.7723
-11.7725
-11.7727
-11.7729
-11.7732
-11.7735
-11.7739
-11.7742
-11.7746
-11.7751
-11.7756
-11.7761
-11.7766
-11.7772
-11.7778
-11.7784
-11.779
-11.7797
-11.7804
-11.7811
-11.7819
-11.7826
-11.7834
-11.7842
-11.785
-11.7859
-11.7867
-11.7876
-11.7885
-11.7894
-11.7903
-11.7912
-11.7921
-11.793
-11.794
-11.7949
-11.7958
-11.7968
-11.7977
-11.7987
-11.7996
-11.8005
-11.8015
-11.8024
-11.8033
-11.8042
-11.8051
-11.806
-11.8069
-11.8077
-11.8086
-11.8094
-11.8103
-11.8111
-11.8119
-11.8127
-11.8134
-11.8142
-11.8149
-11.8156
-11.8163
-11.8169
-11.8176
-11.8182
-11.8188
-11.8194
-11.82
-11.8205
-11.821
-11.8215
-11.822
-11.8225
-11.8229
-11.8233
-11.8237
-11.8241
-11.8244
-11.8248
-11.8251
-11.8254
-11.8256
-11.8259
-11.8261
-11.8263
-11.8265
-11.8267
-11.8268
-11.8269
-11.827
-11.8271
-11.8272
-11.8272
-11.8272
-11.8272
-11.8272
-11.8272
-11.8271
-11.8271
-11.827
-11.8269
-11.8267
-11.8266
-11.8264
-11.8262
-11.826
-11.8257
-11.8255
-11.8252
-11.8249
-11.8246
-11.8243
-11.8239
-11.8235
-11.8231
-11.8227
-11.8222
-11.8218
-11.8213
-11.8208
-11.8202
-11.8197
-11.8191
-11.8185
-11.8179
-11.8172
-11.8166
-11.8159
-11.8152
-11.8145
-11.8137
-11.813
-11.8122
-11.8114
-11.8106
-11.8098
-11.809
-11.8081
-11.8073
-11.8064
-11.8055
-11.8046
-11.8037
-11.8028
-11.8019
-11.801
-11.8
-11.7991
-11.7982
-11.7972
-11.7963
-11.7954
-11.7944
-11.7935
-11.7926
-11.7917
-11.7908
-11.7899
-11.789
-11.7881
-11.7873
-11.7864
-11.7856
-11.7847
-11.7839
-11.7832
-11.7824
-11.7817
-11.7809
-11.7803
-11.7796
-11.7789
-11.7783
-11.7777
-11.7772
-11.7766
-11.7761
-11.7757
-11.7752
-11.7748
-11.7744
-11.7741
-11.7738
-11.7735
-11.7733
-11.7731
-11.7729
-11.7728
-11.7727
-11.7726
-11.7726
-11.7726
-11.7726
-11.7727
-15.6962
-15.6961
-15.696
-15.696
-15.696
-15.6961
-15.6962
-15.6963
-15.6965
-15.6967
-15.6969
-15.6972
-15.6975
-15.6979
-15.6982
-15.6986
-15.6991
-15.6996
-15.7001
-15.7006
-15.7012
-15.7018
-15.7024
-15.703
-15.7037
-15.7044
-15.7051
-15.7059
-15.7067
-15.7074
-15.7082
-15.7091
-15.7099
-15.7108
-15.7116
-15.7125
-15.7134
-15.7143
-15.7152
-15.7161
-15.7171
-15.718
-15.7189
-15.7199
-15.7208
-15.7218
-15.7227
-15.7236
-15.7246
-15.7255
-15.7264
-15.7273
-15.7283
-15.7292
-15.73
-15.7309
-15.7318
-15.7326
-15.7335
-15.7343
-15.7351
-15.7359
-15.7367
-15.7375
-15.7382
-15.7389
-15.7396
-15.7403
-15.741
-15.7416
-15.7422
-15.7429
-15.7434
-15.744
-15.7445
-15.7451
-15.7456
-15.746
-15.7465
-15.7469
-15.7473
-15.7477
-15.7481
-15.7484
-15.7488
-15.7491
-15.7494
-15.7496
-15.7499
-15.7501
-15.7503
-15.7505
-15.7506
-15.7508
-15.7509
-15.751
-15.7511
-15.7512
-15.7512
-15.7512
-15.7512
-15.7512
-15.7512
-15.7511
-15.7511
-15.751
-15.7508
-15.7507
-15.7506
-15.7504
-15.7502
-15.75
-15.7497
-15.7495
-15.7492
-15.7489
-15.7486
-15.7483
-15.7479
-15.7475
-15.7471
-15.7467
-15.7462
-15.7458
-15.7453
-15.7448
-15.7442
-15.7437
-15.7431
-15.7425
-15.7419
-15.7413
-15.7406
-15.7399
-15.7392
-15.7385
-15.7378
-15.737
-15.7363
-15.7355
-15.7347
-15.7338
-15.733
-15.7322
-15.7313
-15.7304
-15.7296
-15.7287
-15.7278
-15.7268
-15.7259
-15.725
-15.7241
-15.7231
-15.7222
-15.7213
-15.7203
-15.7194
-15.7185
-15.7176
-15.7166
-15.7157
-15.7148
-15.7139
-15.713
-15.7121
-15.7113
-15.7104
-15.7096
-15.7088
-15.708
-15.7072
-15.7064
-15.7057
-15.705
-15.7043
-15.7036
-15.7029
-15.7023
-15.7017
-15.7012
-15.7006
-15.7001
-15.6997
-15.6992
-15.6988
-15.6984
-15.6981
-15.6978
-15.6975
-15.6973
-15.6971
-15.6969
-15.6968
-15.6967
-15.6966
-15.6966
-15.6966
-15.6966
-15.6967
-19.6201
-19.62
-19.62
-19.62
-19.62
-19.6201
-19.6201
-19.6203
-19.6205
-19.6207
-19.6209
-19.6212
-19.6215
-19.6218
-19.6222
-19.6226
-19.6231
-19.6236
-19.6241
-19.6246
-19.6252
-19.6258
-19.6264
-19.627
-19.6277
-19.6284
-19.6291
-19.6299
-19.6307
-19.6315
-19.6323
-19.6331
-19.6339
-19.6348
-19.6357
-19.6365
-19.6374
-19.6383
-19.6393
-19.6402
-19.6411
-19.642
-19.643
-19.6439
-19.6449
-19.6458
-19.6467
-19.6477
-19.6486
-19.6496
-19.6505
-19.6514
-19.6523
-19.6532
-19.6541
-19.655
-19.6558
-19.6567
-19.6575
-19.6584
-19.6592
-19.66
-19.6607
-19.6615
-19.6622
-19.663
-19.6637
-19.6644
-19.665
-19.6657
-19.6663
-19.6669
-19.6675
-19.668
-19.6686
-19.6691
-19.6696
-19.6701
-19.6705
-19.671
-19.6714
-19.6718
-19.6721
-19.6725
-19.6728
-19.6731
-19.6734
-19.6737
-19.6739
-19.6741
-19.6743
-19.6745
-19.6747
-19.6748
-19.6749
-19.675
-19.6751
-19.6752
-19.6752
-19.6752
-19.6752
-19.6752
-19.6752
-19.6751
-19.6751
-19.675
-19.6749
-19.6747
-19.6746
-19.6744
-19.6742
-19.674
-19.6738
-19.6735
-19.6732
-19.6729
-19.6726
-19.6723
-19.6719
-19.6716
-19.6712
-19.6707
-19.6703
-19.6698
-19.6693
-19.6688
-19.6683
-19.6677
-19.6672
-19.6666
-19.6659
-19.6653
-19.6647
-19.664
-19.6633
-19.6626
-19.6618
-19.6611
-19.6603
-19.6595
-19.6587
-19.6579
-19.6571
-19.6562
-19.6554
-19.6545
-19.6536
-19.6527
-19.6518
-19.6509
-19.65
-19.6491
-19.6481
-19.6472
-19.6463
-19.6453
-19.6444
-19.6434
-19.6425
-19.6416
-19.6407
-19.6397
-19.6388
-19.6379
-19.637
-19.6362
-19.6353
-19.6344
-19.6336
-19.6328
-19.632
-19.6312
-19.6304
-19.6297
-19.629
-19.6283
-19.6276
-19.6269
-19.6263
-19.6257
-19.6252
-19.6246
-19.6241
-19.6236
-19.6232
-19.6228
-19.6224
-19.6221
-19.6217
-19.6215
-19.6212
-19.621
-19.6209
-19.6207
-19.6206
-19.6206
-19.6205
-19.6206
-19.6206
-19.6207
-23.5441
-23.544
-23.5439
-23.5439
-23.5439
-23.544
-23.5441
-23.5442
-23.5444
-23.5446
-23.5448
-23.5451
-23.5454
-23.5458
-23.5462
-23.5466
-23.547
-23.5475
-23.548
-23.5486
-23.5491
-23.5497
-23.5504
-23.551
-23.5517
-23.5524
-23.5531
-23.5539
-23.5547
-23.5554
-23.5563
-23.5571
-23.5579
-23.5588
-23.5597
-23.5606
-23.5614
-23.5624
-23.5633
-23.5642
-23.5651
-23.5661
-23.567
-23.568
-23.5689
-23.5698
-23.5708
-23.5717
-23.5727
-23.5736
-23.5745
-23.5755
-23.5764
-23.5773
-23.5782
-23.579
-23.5799
-23.5808
-23.5816
-23.5824
-23.5832
-23.584
-23.5848
-23.5856
-23.5863
-23.587
-23.5877
-23.5884
-23.5891
-23.5897
-23.5904
-23.591
-23.5916
-23.5921
-23.5927
-23.5932
-23.5937
-23.5941
-23.5946
-23.595
-23.5954
-23.5958
-23.5962
-23.5965
-23.5969
-23.5972
-23.5975
-23.5977
-23.598
-23.5982
-23.5984
-23.5986
-23.5987
-23.5989
-23.599
-23.5991
-23.5992
-23.5992
-23.5993
-23.5993
-23.5993
-23.5993
-23.5993
-23.5992
-23.5991
-23.599
-23.5989
-23.5988
-23.5986
-23.5985
-23.5983
-23.5981
-23.5978
-23.5976
-23.5973
-23.597
-23.5967
-23.5964
-23.596
-23.5956
-23.5952
-23.5948
-23.5944
-23.5939
-23.5934
-23.5929
-23.5924
-23.5918
-23.5912
-23.5906
-23.59
-23.5894
-23.5887
-23.5881
-23.5874
-23.5866
-23.5859
-23.5852
-23.5844
-23.5836
-23.5828
-23.582
-23.5811
-23.5803
-23.5794
-23.5785
-23.5777
-23.5768
-23.5759
-23.5749
-23.574
-23.5731
-23.5722
-23.5712
-23.5703
-23.5694
-23.5684
-23.5675
-23.5665
-23.5656
-23.5647
-23.5638
-23.5629
-23.5619
-23.5611
-23.5602
-23.5593
-23.5584
-23.5576
-23.5568
-23.556
-23.5552
-23.5544
-23.5537
-23.5529
-23.5522
-23.5516
-23.5509
-23.5503
-23.5497
-23.5491
-23.5486
-23.5481
-23.5476
-23.5472
-23.5467
-23.5464
-23.546
-23.5457
-23.5454
-23.5452
-23.545
-23.5448
-23.5447
-23.5446
-23.5445
-23.5445
-23.5445
-23.5446
-23.5447
-27.468
-27.4679
-27.4678
-27.4678
-27.4679
-27.4679
-27.468
-27.4681
-27.4683
-27.4685
-27.4688
-27.469
-27.4694
-27.4697
-27.4701
-27.4705
-27.471
-27.4714
-27.472
-27.4725
-27.4731
-27.4737
-27.4743
-27.475
-27.4757
-27.4764
-27.4771
-27.4778
-27.4786
-27.4794
-27.4802
-27.4811
-27.4819
-27.4828
-27.4837
-27.4846
-27.4855
-27.4864
-27.4873
-27.4882
-27.4892
-27.4901
-27.491
-27.492
-27.4929
-27.4939
-27.4948
-27.4958
-27.4967
-27.4977
-27.4986
-27.4995
-27.5004
-27.5013
-27.5022
-27.5031
-27.504
-27.5048
-27.5057
-27.5065
-27.5073
-27.5081
-27.5089
-27.5097
-27.5104
-27.5111
-27.5118
-27.5125
-27.5132
-27.5138
-27.5145
-27.5151
-27.5157
-27.5162
-27.5168
-27.5173
-27.5178
-27.5182
-27.5187
-27.5191
-27.5195
-27.5199
-27.5203
-27.5206
-27.521
-27.5213
-27.5215
-27.5218
-27.522
-27.5223
-27.5225
-27.5226
-27.5228
-27.5229
-27.5231
-27.5232
-27.5233
-27.5233
-27.5234
-27.5234
-27.5234
-27.5234
-27.5233
-27.5233
-27.5232
-27.5231
-27.523
-27.5229
-27.5227
-27.5226
-27.5224
-27.5222
-27.5219
-27.5217
-27.5214
-27.5211
-27.5208
-27.5205
-27.5201
-27.5197
-27.5193
-27.5189
-27.5185
-27.518
-27.5175
-27.517
-27.5165
-27.5159
-27.5153
-27.5147
-27.5141
-27.5135
-27.5128
-27.5121
-27.5115
-27.5107
-27.51
-27.5092
-27.5085
-27.5077
-27.5069
-27.5061
-27.5052
-27.5044
-27.5035
-27.5026
-27.5017
-27.5008
-27.4999
-27.499
-27.4981
-27.4972
-27.4962
-27.4953
-27.4943
-27.4934
-27.4925
-27.4915
-27.4906
-27.4896
-27.4887
-27.4878
-27.4869
-27.486
-27.4851
-27.4842
-27.4833
-27.4824
-27.4816
-27.4808
-27.4799
-27.4792
-27.4784
-27.4776
-27.4769
-27.4762
-27.4755
-27.4749
-27.4742
-27.4736
-27.4731
-27.4725
-27.472
-27.4715
-27.4711
-27.4707
-27.4703
-27.4699
-27.4696
-27.4693
-27.4691
-27.4689
-27.4687
-27.4686
-27.4685
-27.4684
-27.4684
-27.4684
-27.4685
-27.4686
-31.3919
-31.3918
-31.3917
-31.3917
-31.3917
-31.3918
-31.3919
-31.392
-31.3922
-31.3924
-31.3927
-31.3929
-31.3933
-31.3936
-31.394
-31.3944
-31.3949
-31.3954
-31.3959
-31.3964
-31.397
-31.3976
-31.3982
-31.3989
-31.3996
-31.4003
-31.401
-31.4018
-31.4026
-31.4034
-31.4042
-31.405
-31.4059
-31.4068
-31.4077
-31.4085
-31.4095
-31.4104
-31.4113
-31.4122
-31.4132
-31.4141
-31.4151
-31.416
-31.417
-31.4179
-31.4189
-31.4198
-31.4208
-31.4217
-31.4227
-31.4236
-31.4245
-31.4254
-31.4263
-31.4272
-31.4281
-31.4289
-31.4298
-31.4306
-31.4314
-31.4322
-31.433
-31.4338
-31.4345
-31.4353
-31.436
-31.4367
-31.4373
-31.438
-31.4386
-31.4392
-31.4398
-31.4403
-31.4409
-31.4414
-31.4419
-31.4424
-31.4428
-31.4433
-31.4437
-31.444
-31.4444
-31.4448
-31.4451
-31.4454
-31.4457
-31.4459
-31.4462
-31.4464
-31.4466
-31.4468
-31.4469
-31.4471
-31.4472
-31.4473
-31.4474
-31.4474
-31.4475
-31.4475
-31.4475
-31.4475
-31.4475
-31.4474
-31.4473
-31.4472
-31.4471
-31.447
-31.4468
-31.4467
-31.4465
-31.4463
-31.446
-31.4458
-31.4455
-31.4452
-31.4449
-31.4446
-31.4442
-31.4438
-31.4434
-31.443
-31.4426
-31.4421
-31.4416
-31.4411
-31.4406
-31.44
-31.4395
-31.4389
-31.4382
-31.4376
-31.4369
-31.4363
-31.4356
-31.4348
-31.4341
-31.4334
-31.4326
-31.4318
-31.431
-31.4302
-31.4293
-31.4285
-31.4276
-31.4267
-31.4258
-31.4249
-31.424
-31.4231
-31.4222
-31.4212
-31.4203
-31.4193
-31.4184
-31.4174
-31.4165
-31.4155
-31.4146
-31.4137
-31.4127
-31.4118
-31.4109
-31.41
-31.4091
-31.4082
-31.4073
-31.4064
-31.4056
-31.4047
-31.4039
-31.4031
-31.4023
-31.4016
-31.4009
-31.4001
-31.3995
-31.3988
-31.3982
-31.3976
-31.397
-31.3964
-31.3959
-31.3954
-31.395
-31.3946
-31.3942
-31.3938
-31.3935
-31.3932
-31.393
-31.3928
-31.3926
-31.3925
-31.3924
-31.3923
-31.3923
-31.3923
-31.3924
-31.3925
-35.3157
-35.3156
-35.3156
-35.3156
-35.3156
-35.3157
-35.3158
-35.3159
-35.3161
-35.3163
-35.3165
-35.3168
-35.3171
-35.3175
-35.3179
-35.3183
-35.3188
-35.3193
-35.3198
-35.3203
-35.3209
-35.3215
-35.3222
-35.3228
-35.3235
-35.3242
-35.325
-35.3257
-35.3265
-35.3273
-35.3282
-35.329
-35.3299
-35.3307
-35.3316
-35.3325
-35.3335
-35.3344
-35.3353
-35.3363
-35.3372
-35.3382
-35.3391
-35.3401
-35.341
-35.342
-35.3429
-35.3439
-35.3449
-35.3458
-35.3467
-35.3477
-35.3486
-35.3495
-35.3504
-35.3513
-35.3522
-35.3531
-35.3539
-35.3547
-35.3556
-35.3564
-35.3572
-35.3579
-35.3587
-35.3594
-35.3601
-35.3608
-35.3615
-35.3621
-35.3627
-35.3633
-35.3639
-35.3645
-35.365
-35.3656
-35.3661
-35.3665
-35.367
-35.3674
-35.3678
-35.3682
-35.3686
-35.3689
-35.3692
-35.3695
-35.3698
-35.3701
-35.3703
-35.3705
-35.3707
-35.3709
-35.3711
-35.3712
-35.3713
-35.3714
-35.3715
-35.3716
-35.3716
-35.3717
-35.3717
-35.3716
-35.3716
-35.3716
-35.3715
-35.3714
-35.3713
-35.3712
-35.371
-35.3708
-35.3706
-35.3704
-35.3702
-35.37
-35.3697
-35.3694
-35.3691
-35.3687
-35.3684
-35.368
-35.3676
-35.3672
-35.3667
-35.3663
-35.3658
-35.3653
-35.3647
-35.3642
-35.3636
-35.363
-35.3624
-35.3618
-35.3611
-35.3604
-35.3597
-35.359
-35.3582
-35.3575
-35.3567
-35.3559
-35.3551
-35.3543
-35.3534
-35.3526
-35.3517
-35.3508
-35.3499
-35.349
-35.3481
-35.3472
-35.3462
-35.3453
-35.3443
-35.3434
-35.3424
-35.3415
-35.3405
-35.3396
-35.3386
-35.3377
-35.3367
-35.3358
-35.3349
-35.334
-35.333
-35.3321
-35.3313
-35.3304
-35.3295
-35.3287
-35.3279
-35.3271
-35.3263
-35.3255
-35.3248
-35.3241
-35.3234
-35.3227
-35.3221
-35.3215
-35.3209
-35.3203
-35.3198
-35.3193
-35.3189
-35.3185
-35.3181
-35.3177
-35.3174
-35.3171
-35.3169
-35.3167
-35.3165
-35.3163
-35.3162
-35.3162
-35.3162
-35.3162
-35.3162
-35.3163
-39.2396
-39.2395
-39.2394
-39.2394
-39.2394
-39.2395
-39.2396
-39.2397
-39.2399
-39.2401
-39.2404
-39.2407
-39.241
-39.2413
-39.2417
-39.2422
-39.2426
-39.2431
-39.2436
-39.2442
-39.2448
-39.2454
-39.2461
-39.2467
-39.2474
-39.2481
-39.2489
-39.2497
-39.2505
-39.2513
-39.2521
-39.253
-39.2538
-39.2547
-39.2556
-39.2565
-39.2574
-39.2584
-39.2593
-39.2603
-39.2612
-39.2622
-39.2631
-39.2641
-39.2651
-39.266
-39.267
-39.268
-39.2689
-39.2699
-39.2708
-39.2718
-39.2727
-39.2736
-39.2745
-39.2754
-39.2763
-39.2772
-39.278
-39.2789
-39.2797
-39.2805
-39.2813
-39.2821
-39.2828
-39.2836
-39.2843
-39.285
-39.2856
-39.2863
-39.2869
-39.2875
-39.2881
-39.2887
-39.2892
-39.2897
-39.2902
-39.2907
-39.2912
-39.2916
-39.292
-39.2924
-39.2928
-39.2931
-39.2934
-39.2937
-39.294
-39.2943
-39.2945
-39.2947
-39.2949
-39.2951
-39.2953
-39.2954
-39.2955
-39.2956
-39.2957
-39.2958
-39.2958
-39.2958
-39.2959
-39.2958
-39.2958
-39.2958
-39.2957
-39.2956
-39.2955
-39.2953
-39.2952
-39.295
-39.2948
-39.2946
-39.2944
-39.2941
-39.2939
-39.2936
-39.2933
-39.2929
-39.2926
-39.2922
-39.2918
-39.2914
-39.2909
-39.2905
-39.29
-39.2895
-39.2889
-39.2884
-39.2878
-39.2872
-39.2866
-39.2859
-39.2853
-39.2846
-39.2839
-39.2831
-39.2824
-39.2816
-39.2809
-39.2801
-39.2792
-39.2784
-39.2776
-39.2767
-39.2758
-39.2749
-39.274
-39.2731
-39.2722
-39.2713
-39.2703
-39.2694
-39.2684
-39.2675
-39.2665
-39.2655
-39.2646
-39.2636
-39.2627
-39.2617
-39.2608
-39.2598
-39.2589
-39.2579
-39.257
-39.2561
-39.2552
-39.2543
-39.2535
-39.2526
-39.2518
-39.251
-39.2502
-39.2494
-39.2487
-39.248
-39.2473
-39.2466
-39.246
-39.2453
-39.2448
-39.2442
-39.2437
-39.2432
-39.2427
-39.2423
-39.2419
-39.2416
-39.2412
-39.241
-39.2407
-39.2405
-39.2403
-39.2402
-39.2401
-39.24
-39.24
-39.24
-39.2401
-39.2402
-43.1634
-43.1633
-43.1632
-43.1632
-43.1632
-43.1633
-43.1634
-43.1635
-43.1637
-43.1639
-43.1642
-43.1645
-43.1648
-43.1652
-43.1656
-43.166
-43.1665
-43.167
-43.1675
-43.1681
-43.1686
-43.1693
-43.1699
-43.1706
-43.1713
-43.172
-43.1728
-43.1736
-43.1744
-43.1752
-43.176
-43.1769
-43.1778
-43.1787
-43.1796
-43.1805
-43.1814
-43.1824
-43.1833
-43.1843
-43.1852
-43.1862
-43.1872
-43.1882
-43.1891
-43.1901
-43.1911
-43.192
-43.193
-43.194
-43.1949
-43.1959
-43.1968
-43.1977
-43.1987
-43.1996
-43.2005
-43.2013
-43.2022
-43.203
-43.2039
-43.2047
-43.2055
-43.2063
-43.207
-43.2077
-43.2085
-43.2092
-43.2098
-43.2105
-43.2111
-43.2117
-43.2123
-43.2129
-43.2134
-43.214
-43.2145
-43.2149
-43.2154
-43.2158
-43.2162
-43.2166
-43.217
-43.2173
-43.2177
-43.218
-43.2182
-43.2185
-43.2187
-43.219
-43.2192
-43.2193
-43.2195
-43.2196
-43.2198
-43.2199
-43.2199
-43.22
-43.2201
-43.2201
-43.2201
-43.2201
-43.22
-43.22
-43.2199
-43.2198
-43.2197
-43.2196
-43.2194
-43.2193
-43.2191
-43.2189
-43.2186
-43.2184
-43.2181
-43.2178
-43.2175
-43.2172
-43.2168
-43.2164
-43.216
-43.2156
-43.2151
-43.2147
-43.2142
-43.2137
-43.2131
-43.2126
-43.212
-43.2114
-43.2108
-43.2101
-43.2095
-43.2088
-43.2081
-43.2073
-43.2066
-43.2058
-43.205
-43.2042
-43.2034
-43.2026
-43.2017
-43.2008
-43.1999
-43.1991
-43.1981
-43.1972
-43.1963
-43.1954
-43.1944
-43.1934
-43.1925
-43.1915
-43.1906
-43.1896
-43.1886
-43.1876
-43.1867
-43.1857
-43.1848
-43.1838
-43.1829
-43.1819
-43.181
-43.1801
-43.1792
-43.1783
-43.1774
-43.1766
-43.1757
-43.1749
-43.1741
-43.1733
-43.1726
-43.1719
-43.1712
-43.1705
-43.1698
-43.1692
-43.1686
-43.1681
-43.1675
-43.167
-43.1666
-43.1661
-43.1657
-43.1654
-43.1651
-43.1648
-43.1645
-43.1643
-43.1641
-43.164
-43.1639
-43.1638
-43.1638
-43.1638
-43.1639
-43.164
-47.0871
-47.0871
-47.087
-47.087
-47.087
-47.0871
-47.0872
-47.0873
-47.0875
-47.0877
-47.088
-47.0883
-47.0886
-47.089
-47.0894
-47.0898
-47.0903
-47.0908
-47.0913
-47.0919
-47.0925
-47.0931
-47.0938
-47.0945
-47.0952
-47.0959
-47.0967
-47.0975
-47.0983
-47.0991
-47.1
-47.1008
-47.1017
-47.1026
-47.1035
-47.1045
-47.1054
-47.1063
-47.1073
-47.1083
-47.1092
-47.1102
-47.1112
-47.1122
-47.1132
-47.1142
-47.1151
-47.1161
-47.1171
-47.1181
-47.119
-47.12
-47.1209
-47.1219
-47.1228
-47.1237
-47.1246
-47.1255
-47.1264
-47.1272
-47.128
-47.1289
-47.1297
-47.1304
-47.1312
-47.132
-47.1327
-47.1334
-47.1341
-47.1347
-47.1354
-47.136
-47.1366
-47.1371
-47.1377
-47.1382
-47.1387
-47.1392
-47.1396
-47.1401
-47.1405
-47.1409
-47.1412
-47.1416
-47.1419
-47.1422
-47.1425
-47.1428
-47.143
-47.1432
-47.1434
-47.1436
-47.1438
-47.1439
-47.144
-47.1441
-47.1442
-47.1443
-47.1443
-47.1443
-47.1443
-47.1443
-47.1443
-47.1442
-47.1442
-47.1441
-47.144
-47.1438
-47.1437
-47.1435
-47.1433
-47.1431
-47.1429
-47.1426
-47.1424
-47.1421
-47.1417
-47.1414
-47.141
-47.1407
-47.1403
-47.1398
-47.1394
-47.1389
-47.1384
-47.1379
-47.1374
-47.1368
-47.1362
-47.1356
-47.135
-47.1343
-47.1337
-47.133
-47.1323
-47.1315
-47.1308
-47.13
-47.1292
-47.1284
-47.1276
-47.1267
-47.1259
-47.125
-47.1241
-47.1232
-47.1223
-47.1213
-47.1204
-47.1195
-47.1185
-47.1175
-47.1166
-47.1156
-47.1146
-47.1136
-47.1127
-47.1117
-47.1107
-47.1097
-47.1088
-47.1078
-47.1068
-47.1059
-47.105
-47.104
-47.1031
-47.1022
-47.1014
-47.1005
-47.0996
-47.0988
-47.098
-47.0972
-47.0965
-47.0957
-47.095
-47.0943
-47.0937
-47.0931
-47.0925
-47.0919
-47.0914
-47.0908
-47.0904
-47.0899
-47.0895
-47.0892
-47.0888
-47.0886
-47.0883
-47.0881
-47.0879
-47.0878
-47.0877
-47.0876
-47.0876
-47.0876
-47.0876
-47.0877
-51.0109
-51.0108
-51.0107
-51.0107
-51.0108
-51.0108
-51.0109
-51.0111
-51.0113
-51.0115
-51.0117
-51.012
-51.0124
-51.0127
-51.0131
-51.0136
-51.0141
-51.0146
-51.0151
-51.0157
-51.0163
-51.0169
-51.0176
-51.0183
-51.019
-51.0198
-51.0205
-51.0213
-51.0222
-51.023
-51.0239
-51.0247
-51.0256
-51.0265
-51.0275
-51.0284
-51.0294
-51.0303
-51.0313
-51.0323
-51.0333
-51.0342
-51.0352
-51.0362
-51.0372
-51.0382
-51.0392
-51.0402
-51.0412
-51.0422
-51.0431
-51.0441
-51.0451
-51.046
-51.0469
-51.0479
-51.0488
-51.0497
-51.0505
-51.0514
-51.0522
-51.0531
-51.0539
-51.0547
-51.0554
-51.0562
-51.0569
-51.0576
-51.0583
-51.059
-51.0596
-51.0602
-51.0608
-51.0614
-51.0619
-51.0625
-51.063
-51.0635
-51.0639
-51.0644
-51.0648
-51.0652
-51.0655
-51.0659
-51.0662
-51.0665
-51.0668
-51.0671
-51.0673
-51.0675
-51.0677
-51.0679
-51.0681
-51.0682
-51.0683
-51.0684
-51.0685
-51.0686
-51.0686
-51.0686
-51.0686
-51.0686
-51.0686
-51.0685
-51.0685
-51.0684
-51.0683
-51.0681
-51.068
-51.0678
-51.0676
-51.0674
-51.0672
-51.0669
-51.0667
-51.0664
-51.066
-51.0657
-51.0653
-51.065
-51.0646
-51.0641
-51.0637
-51.0632
-51.0627
-51.0622
-51.0616
-51.0611
-51.0605
-51.0599
-51.0593
-51.0586
-51.0579
-51.0572
-51.0565
-51.0558
-51.055
-51.0542
-51.0534
-51.0526
-51.0518
-51.0509
-51.05
-51.0492
-51.0483
-51.0473
-51.0464
-51.0455
-51.0445
-51.0436
-51.0426
-51.0416
-51.0407
-51.0397
-51.0387
-51.0377
-51.0367
-51.0357
-51.0347
-51.0337
-51.0328
-51.0318
-51.0308
-51.0299
-51.0289
-51.028
-51.0271
-51.0262
-51.0253
-51.0244
-51.0235
-51.0227
-51.0219
-51.0211
-51.0203
-51.0196
-51.0189
-51.0182
-51.0175
-51.0169
-51.0163
-51.0157
-51.0151
-51.0146
-51.0142
-51.0137
-51.0133
-51.0129
-51.0126
-51.0123
-51.0121
-51.0118
-51.0117
-51.0115
-51.0114
-51.0113
-51.0113
-51.0113
-51.0114
-51.0115
-54.9346
-54.9345
-54.9345
-54.9344
-54.9345
-54.9345
-54.9346
-54.9348
-54.935
-54.9352
-54.9355
-54.9358
-54.9361
-54.9365
-54.9369
-54.9373
-54.9378
-54.9383
-54.9389
-54.9395
-54.9401
-54.9407
-54.9414
-54.9421
-54.9429
-54.9436
-54.9444
-54.9452
-54.946
-54.9469
-54.9478
-54.9486
-54.9496
-54.9505
-54.9514
-54.9524
-54.9533
-54.9543
-54.9553
-54.9563
-54.9573
-54.9583
-54.9593
-54.9603
-54.9613
-54.9623
-54.9633
-54.9643
-54.9653
-54.9663
-54.9673
-54.9682
-54.9692
-54.9702
-54.9711
-54.972
-54.973
-54.9739
-54.9747
-54.9756
-54.9765
-54.9773
-54.9781
-54.9789
-54.9797
-54.9804
-54.9812
-54.9819
-54.9826
-54.9832
-54.9839
-54.9845
-54.9851
-54.9857
-54.9862
-54.9868
-54.9873
-54.9878
-54.9882
-54.9887
-54.9891
-54.9895
-54.9899
-54.9902
-54.9905
-54.9908
-54.9911
-54.9914
-54.9916
-54.9919
-54.9921
-54.9922
-54.9924
-54.9925
-54.9927
-54.9928
-54.9928
-54.9929
-54.9929
-54.993
-54.993
-54.993
-54.9929
-54.9929
-54.9928
-54.9927
-54.9926
-54.9925
-54.9923
-54.9921
-54.992
-54.9917
-54.9915
-54.9913
-54.991
-54.9907
-54.9904
-54.99
-54.9897
-54.9893
-54.9889
-54.9884
-54.988
-54.9875
-54.987
-54.9865
-54.9859
-54.9854
-54.9848
-54.9842
-54.9835
-54.9829
-54.9822
-54.9815
-54.9808
-54.98
-54.9792
-54.9785
-54.9777
-54.9768
-54.976
-54.9751
-54.9742
-54.9733
-54.9724
-54.9715
-54.9706
-54.9696
-54.9687
-54.9677
-54.9667
-54.9657
-54.9647
-54.9638
-54.9628
-54.9618
-54.9608
-54.9598
-54.9588
-54.9578
-54.9568
-54.9558
-54.9548
-54.9538
-54.9529
-54.9519
-54.951
-54.9501
-54.9492
-54.9483
-54.9474
-54.9466
-54.9457
-54.9449
-54.9442
-54.9434
-54.9427
-54.942
-54.9413
-54.9407
-54.9401
-54.9395
-54.9389
-54.9384
-54.9379
-54.9375
-54.9371
-54.9367
-54.9364
-54.9361
-54.9358
-54.9356
-54.9354
-54.9352
-54.9351
-54.9351
-54.935
-54.9351
-54.9351
-54.9352
-58.8583
-58.8582
-58.8581
-58.8581
-58.8582
-58.8582
-58.8583
-58.8585
-58.8587
-58.8589
-58.8592
-58.8595
-58.8598
-58.8602
-58.8606
-58.8611
-58.8616
-58.8621
-58.8627
-58.8632
-58.8639
-58.8645
-58.8652
-58.8659
-58.8667
-58.8674
-58.8682
-58.869
-58.8699
-58.8708
-58.8716
-58.8725
-58.8735
-58.8744
-58.8753
-58.8763
-58.8773
-58.8783
-58.8793
-58.8803
-58.8813
-58.8823
-58.8833
-58.8843
-58.8854
-58.8864
-58.8874
-58.8884
-58.8894
-58.8904
-58.8914
-58.8924
-58.8934
-58.8943
-58.8953
-58.8962
-58.8972
-58.8981
-58.899
-58.8999
-58.9007
-58.9016
-58.9024
-58.9032
-58.904
-58.9047
-58.9055
-58.9062
-58.9069
-58.9076
-58.9082
-58.9088
-58.9094
-58.91
-58.9106
-58.9111
-58.9116
-58.9121
-58.9126
-58.913
-58.9134
-58.9138
-58.9142
-58.9146
-58.9149
-58.9152
-58.9155
-58.9158
-58.916
-58.9162
-58.9164
-58.9166
-58.9168
-58.9169
-58.917
-58.9171
-58.9172
-58.9173
-58.9173
-58.9173
-58.9173
-58.9173
-58.9173
-58.9172
-58.9172
-58.9171
-58.917
-58.9168
-58.9167
-58.9165
-58.9163
-58.9161
-58.9159
-58.9156
-58.9153
-58.915
-58.9147
-58.9144
-58.914
-58.9136
-58.9132
-58.9128
-58.9123
-58.9119
-58.9114
-58.9108
-58.9103
-58.9097
-58.9091
-58.9085
-58.9078
-58.9072
-58.9065
-58.9058
-58.905
-58.9043
-58.9035
-58.9027
-58.9019
-58.9011
-58.9002
-58.8993
-58.8985
-58.8976
-58.8966
-58.8957
-58.8948
-58.8938
-58.8928
-58.8918
-58.8909
-58.8899
-58.8889
-58.8878
-58.8868
-58.8858
-58.8848
-58.8838
-58.8828
-58.8818
-58.8808
-58.8798
-58.8788
-58.8778
-58.8768
-58.8759
-58.8749
-58.874
-58.8731
-58.8722
-58.8713
-58.8704
-58.8696
-58.8688
-58.868
-58.8672
-58.8665
-58.8658
-58.8651
-58.8644
-58.8638
-58.8632
-58.8627
-58.8621
-58.8617
-58.8612
-58.8608
-58.8604
-58.8601
-58.8598
-58.8595
-58.8593
-58.8591
-58.8589
-58.8588
-58.8588
-58.8587
-58.8587
-58.8588
-58.8589
-62.782
-62.7819
-62.7818
-62.7818
-62.7818
-62.7819
-62.782
-62.7822
-62.7823
-62.7826
-62.7829
-62.7832
-62.7835
-62.7839
-62.7843
-62.7848
-62.7853
-62.7858
-62.7864
-62.787
-62.7876
-62.7883