/*--------------------------------*- C++ -*----------------------------------*\
| =========                 |                                                 |
| \\      /  F ield         | OpenFOAM: The Open Source CFD Toolbox           |
|  \\    /   O peration     | Version:  2412                                  |
|   \\  /    A nd           | Website:  www.openfoam.com                      |
|    \\/     M anipulation  |                                                 |
\*---------------------------------------------------------------------------*/
FoamFile
{
    version     2.0;
    format      ascii;
    arch        "LSB;label=32;scalar=64";
    class       volScalarField;
    location    "1.24";
    object      p_rgh;
}
// * * * * * * * * * * * * * * * * * * * * * * * * * * * * * * * * * * * * * //

dimensions      [1 -1 -2 0 0 0 0];

internalField   nonuniform List<scalar> 
40000
(
1.962
1.96209
1.96214
1.96216
1.96214
1.96208
1.96198
1.96185
1.96168
1.96148
1.96124
1.96096
1.96065
1.96031
1.95993
1.95952
1.95907
1.9586
1.95809
1.95755
1.95699
1.95639
1.95577
1.95512
1.95445
1.95375
1.95303
1.95228
1.95151
1.95073
1.94992
1.9491
1.94826
1.9474
1.94653
1.94565
1.94475
1.94385
1.94293
1.94201
1.94108
1.94015
1.93921
1.93827
1.93732
1.93638
1.93543
1.93449
1.93355
1.93262
1.93169
1.93077
1.92985
1.92895
1.92805
1.92717
1.92629
1.92543
1.92458
1.92375
1.92293
1.92212
1.92134
1.92057
1.91981
1.91908
1.91836
1.91767
1.91699
1.91634
1.9157
1.91508
1.91449
1.91392
1.91336
1.91283
1.91232
1.91184
1.91137
1.91093
1.9105
1.9101
1.90972
1.90937
1.90903
1.90872
1.90842
1.90815
1.9079
1.90767
1.90746
1.90727
1.9071
1.90696
1.90683
1.90673
1.90664
1.90657
1.90653
1.9065
1.9065
1.90652
1.90655
1.90661
1.90668
1.90678
1.9069
1.90703
1.90719
1.90737
1.90757
1.90779
1.90803
1.9083
1.90858
1.90889
1.90921
1.90956
1.90993
1.91032
1.91074
1.91117
1.91163
1.91211
1.91261
1.91313
1.91367
1.91424
1.91482
1.91543
1.91606
1.91671
1.91738
1.91807
1.91877
1.9195
1.92024
1.92101
1.92179
1.92258
1.92339
1.92422
1.92506
1.92592
1.92678
1.92766
1.92855
1.92945
1.93036
1.93127
1.9322
1.93312
1.93406
1.93499
1.93593
1.93687
1.93781
1.93874
1.93968
1.94061
1.94153
1.94245
1.94336
1.94426
1.94515
1.94603
1.94689
1.94774
1.94858
1.9494
1.9502
1.95099
1.95175
1.95249
1.95321
1.9539
1.95458
1.95522
1.95584
1.95643
1.957
1.95753
1.95804
1.95851
1.95895
1.95936
1.95974
1.96008
1.96039
1.96067
1.96091
1.96111
1.96128
1.96141
1.96151
1.96157
1.96159
1.96157
1.96152
1.96144
1.96191
1.962
1.96206
1.96207
1.96205
1.962
1.9619
1.96177
1.9616
1.9614
1.96116
1.96088
1.96057
1.96023
1.95985
1.95944
1.95899
1.95852
1.95801
1.95748
1.95691
1.95632
1.9557
1.95505
1.95438
1.95368
1.95296
1.95221
1.95145
1.95066
1.94986
1.94904
1.9482
1.94734
1.94648
1.94559
1.9447
1.9438
1.94288
1.94196
1.94104
1.9401
1.93917
1.93823
1.93729
1.93634
1.9354
1.93447
1.93353
1.9326
1.93167
1.93075
1.92984
1.92894
1.92805
1.92716
1.92629
1.92543
1.92459
1.92376
1.92294
1.92214
1.92136
1.92059
1.91984
1.91911
1.9184
1.91771
1.91704
1.91638
1.91575
1.91514
1.91455
1.91398
1.91343
1.9129
1.9124
1.91191
1.91145
1.91101
1.91059
1.91019
1.90981
1.90946
1.90913
1.90881
1.90852
1.90825
1.90801
1.90778
1.90757
1.90738
1.90722
1.90707
1.90695
1.90684
1.90676
1.90669
1.90665
1.90662
1.90662
1.90663
1.90667
1.90672
1.9068
1.90689
1.90701
1.90715
1.9073
1.90748
1.90768
1.9079
1.90814
1.9084
1.90868
1.90898
1.90931
1.90965
1.91002
1.91041
1.91082
1.91125
1.9117
1.91218
1.91268
1.9132
1.91374
1.9143
1.91488
1.91548
1.91611
1.91675
1.91742
1.9181
1.91881
1.91953
1.92027
1.92103
1.9218
1.9226
1.9234
1.92423
1.92507
1.92592
1.92678
1.92766
1.92854
1.92944
1.93034
1.93126
1.93218
1.9331
1.93403
1.93496
1.9359
1.93683
1.93777
1.9387
1.93963
1.94056
1.94148
1.9424
1.94331
1.94421
1.94509
1.94597
1.94684
1.94769
1.94852
1.94934
1.95014
1.95092
1.95168
1.95242
1.95314
1.95383
1.9545
1.95515
1.95577
1.95636
1.95692
1.95745
1.95796
1.95843
1.95887
1.95928
1.95966
1.96
1.96031
1.96059
1.96082
1.96103
1.9612
1.96133
1.96142
1.96148
1.96151
1.96149
1.96144
1.96135
1.96186
1.96195
1.96201
1.96202
1.962
1.96194
1.96184
1.96171
1.96154
1.96134
1.9611
1.96082
1.96051
1.96017
1.95979
1.95938
1.95894
1.95846
1.95796
1.95742
1.95686
1.95626
1.95564
1.955
1.95432
1.95363
1.9529
1.95216
1.9514
1.95061
1.94981
1.94899
1.94815
1.9473
1.94643
1.94555
1.94465
1.94375
1.94284
1.94192
1.941
1.94006
1.93913
1.93819
1.93725
1.93631
1.93537
1.93443
1.9335
1.93257
1.93165
1.93073
1.92982
1.92892
1.92803
1.92715
1.92628
1.92542
1.92458
1.92375
1.92294
1.92214
1.92136
1.9206
1.91985
1.91913
1.91842
1.91773
1.91706
1.91641
1.91578
1.91517
1.91458
1.91401
1.91347
1.91294
1.91244
1.91196
1.9115
1.91106
1.91065
1.91025
1.90988
1.90953
1.90919
1.90888
1.9086
1.90833
1.90808
1.90786
1.90765
1.90746
1.9073
1.90716
1.90703
1.90693
1.90684
1.90678
1.90673
1.90671
1.90671
1.90672
1.90676
1.90681
1.90689
1.90698
1.90709
1.90723
1.90739
1.90756
1.90776
1.90797
1.90821
1.90847
1.90875
1.90905
1.90937
1.90971
1.91008
1.91047
1.91087
1.9113
1.91175
1.91223
1.91272
1.91323
1.91377
1.91433
1.91491
1.91551
1.91613
1.91677
1.91744
1.91812
1.91882
1.91954
1.92027
1.92103
1.9218
1.92259
1.9234
1.92422
1.92505
1.9259
1.92676
1.92764
1.92852
1.92942
1.93032
1.93123
1.93215
1.93307
1.934
1.93493
1.93586
1.9368
1.93773
1.93866
1.93959
1.94052
1.94144
1.94236
1.94326
1.94416
1.94505
1.94592
1.94679
1.94764
1.94847
1.94929
1.95009
1.95087
1.95163
1.95237
1.95309
1.95378
1.95445
1.95509
1.95571
1.9563
1.95687
1.9574
1.9579
1.95838
1.95882
1.95923
1.9596
1.95995
1.96025
1.96053
1.96077
1.96097
1.96114
1.96127
1.96137
1.96143
1.96145
1.96143
1.96138
1.96129
1.96184
1.96192
1.96198
1.962
1.96197
1.96191
1.96182
1.96169
1.96152
1.96131
1.96107
1.9608
1.96049
1.96014
1.95977
1.95935
1.95891
1.95843
1.95793
1.95739
1.95683
1.95623
1.95561
1.95496
1.95429
1.95359
1.95287
1.95213
1.95136
1.95058
1.94977
1.94895
1.94811
1.94726
1.94639
1.94551
1.94462
1.94372
1.9428
1.94188
1.94096
1.94003
1.93909
1.93815
1.93721
1.93627
1.93533
1.9344
1.93346
1.93254
1.93161
1.9307
1.92979
1.92889
1.928
1.92712
1.92625
1.9254
1.92456
1.92373
1.92292
1.92212
1.92135
1.92058
1.91984
1.91911
1.91841
1.91772
1.91705
1.91641
1.91578
1.91517
1.91459
1.91402
1.91348
1.91296
1.91246
1.91198
1.91152
1.91108
1.91067
1.91028
1.90991
1.90956
1.90923
1.90892
1.90863
1.90837
1.90812
1.9079
1.90769
1.90751
1.90735
1.9072
1.90708
1.90698
1.90689
1.90683
1.90678
1.90676
1.90676
1.90677
1.90681
1.90686
1.90693
1.90703
1.90714
1.90728
1.90743
1.9076
1.9078
1.90801
1.90825
1.90851
1.90878
1.90908
1.9094
1.90974
1.91011
1.91049
1.91089
1.91132
1.91177
1.91224
1.91273
1.91324
1.91378
1.91434
1.91491
1.91551
1.91613
1.91677
1.91743
1.91811
1.91881
1.91952
1.92026
1.92101
1.92178
1.92257
1.92338
1.9242
1.92503
1.92588
1.92674
1.92761
1.92849
1.92938
1.93029
1.9312
1.93211
1.93304
1.93396
1.93489
1.93583
1.93676
1.93769
1.93863
1.93956
1.94048
1.9414
1.94232
1.94322
1.94412
1.94501
1.94589
1.94675
1.9476
1.94843
1.94925
1.95005
1.95083
1.95159
1.95233
1.95305
1.95375
1.95442
1.95506
1.95568
1.95627
1.95684
1.95737
1.95787
1.95835
1.95879
1.9592
1.95957
1.95992
1.96023
1.9605
1.96074
1.96095
1.96111
1.96125
1.96134
1.9614
1.96142
1.96141
1.96135
1.96127
1.96184
1.96193
1.96198
1.962
1.96198
1.96192
1.96182
1.96169
1.96152
1.96131
1.96107
1.9608
1.96049
1.96014
1.95976
1.95935
1.95891
1.95843
1.95792
1.95738
1.95682
1.95622
1.9556
1.95495
1.95428
1.95358
1.95285
1.95211
1.95134
1.95056
1.94975
1.94893
1.94809
1.94723
1.94636
1.94548
1.94459
1.94368
1.94277
1.94185
1.94092
1.93999
1.93905
1.93812
1.93718
1.93624
1.9353
1.93436
1.93342
1.9325
1.93157
1.93066
1.92975
1.92885
1.92796
1.92708
1.92621
1.92536
1.92452
1.92369
1.92288
1.92209
1.92131
1.92055
1.91981
1.91908
1.91838
1.91769
1.91702
1.91638
1.91575
1.91515
1.91457
1.914
1.91346
1.91294
1.91244
1.91197
1.91151
1.91108
1.91066
1.91027
1.9099
1.90956
1.90923
1.90892
1.90864
1.90837
1.90813
1.90791
1.9077
1.90752
1.90736
1.90722
1.90709
1.90699
1.90691
1.90684
1.9068
1.90678
1.90677
1.90679
1.90682
1.90687
1.90695
1.90704
1.90715
1.90729
1.90744
1.90761
1.90781
1.90802
1.90826
1.90851
1.90879
1.90908
1.9094
1.90974
1.9101
1.91048
1.91089
1.91131
1.91176
1.91223
1.91272
1.91323
1.91376
1.91431
1.91489
1.91549
1.9161
1.91674
1.9174
1.91808
1.91877
1.91949
1.92022
1.92098
1.92175
1.92253
1.92334
1.92416
1.92499
1.92584
1.9267
1.92757
1.92845
1.92934
1.93024
1.93115
1.93207
1.93299
1.93392
1.93485
1.93579
1.93672
1.93766
1.93859
1.93952
1.94045
1.94137
1.94228
1.94319
1.94409
1.94498
1.94586
1.94672
1.94757
1.94841
1.94923
1.95003
1.95081
1.95158
1.95232
1.95304
1.95373
1.9544
1.95505
1.95567
1.95626
1.95683
1.95736
1.95787
1.95834
1.95878
1.9592
1.95957
1.95992
1.96023
1.9605
1.96074
1.96095
1.96111
1.96125
1.96134
1.9614
1.96142
1.96141
1.96136
1.96127
1.96187
1.96196
1.96201
1.96203
1.96201
1.96195
1.96185
1.96172
1.96155
1.96134
1.9611
1.96082
1.96051
1.96016
1.95978
1.95937
1.95892
1.95845
1.95794
1.9574
1.95683
1.95623
1.95561
1.95496
1.95428
1.95358
1.95285
1.95211
1.95134
1.95055
1.94974
1.94892
1.94807
1.94722
1.94635
1.94546
1.94457
1.94366
1.94274
1.94182
1.94089
1.93996
1.93902
1.93808
1.93714
1.93619
1.93525
1.93431
1.93338
1.93245
1.93152
1.93061
1.9297
1.9288
1.92791
1.92703
1.92616
1.9253
1.92446
1.92364
1.92283
1.92203
1.92126
1.9205
1.91975
1.91903
1.91832
1.91764
1.91697
1.91633
1.9157
1.9151
1.91452
1.91396
1.91342
1.9129
1.9124
1.91193
1.91147
1.91104
1.91063
1.91024
1.90987
1.90952
1.9092
1.90889
1.90861
1.90835
1.9081
1.90788
1.90768
1.9075
1.90734
1.9072
1.90707
1.90697
1.90689
1.90683
1.90678
1.90676
1.90675
1.90677
1.9068
1.90686
1.90693
1.90702
1.90713
1.90727
1.90742
1.90759
1.90778
1.908
1.90823
1.90848
1.90876
1.90905
1.90937
1.90971
1.91007
1.91045
1.91085
1.91127
1.91172
1.91218
1.91267
1.91318
1.91371
1.91427
1.91484
1.91544
1.91605
1.91669
1.91735
1.91802
1.91872
1.91944
1.92017
1.92092
1.92169
1.92248
1.92328
1.9241
1.92494
1.92578
1.92664
1.92751
1.9284
1.92929
1.9302
1.93111
1.93202
1.93295
1.93388
1.93481
1.93575
1.93668
1.93762
1.93855
1.93949
1.94042
1.94134
1.94226
1.94317
1.94407
1.94496
1.94584
1.94671
1.94756
1.9484
1.94922
1.95002
1.95081
1.95157
1.95232
1.95304
1.95374
1.95441
1.95506
1.95568
1.95628
1.95684
1.95738
1.95788
1.95836
1.9588
1.95922
1.9596
1.95994
1.96025
1.96053
1.96077
1.96097
1.96114
1.96128
1.96137
1.96143
1.96145
1.96144
1.96138
1.96129
1.96193
1.96202
1.96207
1.96209
1.96206
1.962
1.96191
1.96177
1.9616
1.9614
1.96115
1.96087
1.96056
1.96021
1.95983
1.95942
1.95897
1.95849
1.95798
1.95744
1.95686
1.95626
1.95564
1.95498
1.9543
1.9536
1.95287
1.95212
1.95135
1.95056
1.94975
1.94892
1.94807
1.94721
1.94634
1.94545
1.94455
1.94364
1.94272
1.9418
1.94086
1.93993
1.93899
1.93804
1.9371
1.93615
1.93521
1.93427
1.93333
1.9324
1.93147
1.93055
1.92964
1.92873
1.92784
1.92696
1.92609
1.92524
1.9244
1.92357
1.92276
1.92196
1.92118
1.92042
1.91968
1.91896
1.91825
1.91757
1.9169
1.91626
1.91563
1.91503
1.91445
1.91388
1.91335
1.91283
1.91233
1.91186
1.9114
1.91097
1.91056
1.91017
1.90981
1.90946
1.90914
1.90883
1.90855
1.90829
1.90805
1.90782
1.90762
1.90744
1.90728
1.90714
1.90702
1.90692
1.90684
1.90677
1.90673
1.90671
1.9067
1.90672
1.90675
1.9068
1.90688
1.90697
1.90708
1.90721
1.90736
1.90753
1.90773
1.90794
1.90817
1.90842
1.9087
1.90899
1.90931
1.90964
1.91
1.91038
1.91078
1.9112
1.91165
1.91211
1.9126
1.91311
1.91364
1.91419
1.91477
1.91536
1.91598
1.91661
1.91727
1.91795
1.91865
1.91936
1.9201
1.92085
1.92162
1.92241
1.92321
1.92403
1.92487
1.92572
1.92658
1.92745
1.92834
1.92923
1.93014
1.93105
1.93197
1.9329
1.93383
1.93476
1.9357
1.93664
1.93758
1.93852
1.93946
1.94039
1.94131
1.94224
1.94315
1.94405
1.94495
1.94583
1.9467
1.94756
1.9484
1.94922
1.95003
1.95082
1.95159
1.95233
1.95306
1.95376
1.95444
1.95509
1.95571
1.95631
1.95688
1.95742
1.95792
1.9584
1.95885
1.95926
1.95964
1.95999
1.9603
1.96058
1.96082
1.96103
1.9612
1.96133
1.96143
1.96149
1.96151
1.96149
1.96144
1.96135
1.96201
1.9621
1.96216
1.96217
1.96215
1.96209
1.96199
1.96186
1.96168
1.96148
1.96123
1.96095
1.96064
1.96029
1.9599
1.95948
1.95903
1.95855
1.95804
1.95749
1.95692
1.95632
1.95569
1.95503
1.95434
1.95364
1.9529
1.95215
1.95137
1.95058
1.94976
1.94893
1.94808
1.94722
1.94634
1.94545
1.94454
1.94363
1.94271
1.94178
1.94084
1.9399
1.93895
1.938
1.93706
1.93611
1.93516
1.93421
1.93327
1.93234
1.93141
1.93048
1.92957
1.92866
1.92777
1.92688
1.92601
1.92515
1.92431
1.92348
1.92267
1.92187
1.92109
1.92033
1.91958
1.91886
1.91815
1.91747
1.9168
1.91616
1.91553
1.91493
1.91435
1.91379
1.91325
1.91273
1.91223
1.91176
1.91131
1.91087
1.91047
1.91008
1.90971
1.90937
1.90904
1.90874
1.90846
1.9082
1.90796
1.90773
1.90753
1.90735
1.90719
1.90705
1.90693
1.90683
1.90675
1.90669
1.90664
1.90662
1.90661
1.90663
1.90666
1.90672
1.90679
1.90688
1.90699
1.90712
1.90727
1.90744
1.90764
1.90785
1.90808
1.90833
1.9086
1.9089
1.90921
1.90955
1.9099
1.91028
1.91068
1.91111
1.91155
1.91202
1.9125
1.91301
1.91354
1.91409
1.91467
1.91526
1.91588
1.91652
1.91717
1.91785
1.91855
1.91927
1.92
1.92076
1.92153
1.92232
1.92313
1.92395
1.92478
1.92563
1.9265
1.92738
1.92826
1.92916
1.93007
1.93099
1.93191
1.93284
1.93378
1.93472
1.93566
1.9366
1.93754
1.93849
1.93943
1.94036
1.94129
1.94222
1.94314
1.94404
1.94494
1.94583
1.94671
1.94757
1.94841
1.94924
1.95005
1.95084
1.95162
1.95237
1.95309
1.9538
1.95448
1.95513
1.95576
1.95636
1.95693
1.95748
1.95799
1.95847
1.95892
1.95933
1.95971
1.96006
1.96038
1.96066
1.9609
1.96111
1.96128
1.96141
1.96151
1.96157
1.96159
1.96158
1.96152
1.96143
1.96212
1.96221
1.96227
1.96228
1.96226
1.9622
1.9621
1.96197
1.96179
1.96158
1.96134
1.96105
1.96074
1.96038
1.96
1.95958
1.95912
1.95864
1.95812
1.95757
1.95699
1.95639
1.95575
1.95509
1.9544
1.95369
1.95295
1.9522
1.95142
1.95061
1.94979
1.94896
1.9481
1.94723
1.94635
1.94545
1.94454
1.94362
1.94269
1.94176
1.94082
1.93987
1.93892
1.93797
1.93701
1.93606
1.93511
1.93416
1.93321
1.93227
1.93134
1.93041
1.92949
1.92858
1.92768
1.92679
1.92592
1.92506
1.92421
1.92338
1.92256
1.92176
1.92098
1.92022
1.91947
1.91874
1.91803
1.91735
1.91668
1.91603
1.91541
1.9148
1.91422
1.91366
1.91312
1.9126
1.91211
1.91163
1.91118
1.91075
1.91034
1.90995
1.90958
1.90924
1.90892
1.90861
1.90833
1.90807
1.90783
1.90761
1.90741
1.90723
1.90707
1.90693
1.90681
1.90671
1.90663
1.90657
1.90652
1.9065
1.90649
1.90651
1.90654
1.90659
1.90667
1.90676
1.90687
1.907
1.90715
1.90732
1.90751
1.90772
1.90795
1.90821
1.90848
1.90877
1.90909
1.90942
1.90978
1.91016
1.91056
1.91098
1.91142
1.91189
1.91238
1.91288
1.91342
1.91397
1.91454
1.91514
1.91576
1.91639
1.91705
1.91773
1.91843
1.91915
1.91989
1.92065
1.92142
1.92221
1.92302
1.92385
1.92469
1.92554
1.92641
1.92729
1.92818
1.92908
1.92999
1.93092
1.93184
1.93278
1.93372
1.93466
1.93561
1.93656
1.9375
1.93845
1.9394
1.94034
1.94128
1.94221
1.94313
1.94404
1.94495
1.94584
1.94672
1.94758
1.94844
1.94927
1.95009
1.95088
1.95166
1.95241
1.95315
1.95386
1.95454
1.9552
1.95583
1.95644
1.95701
1.95756
1.95807
1.95856
1.95901
1.95943
1.95981
1.96016
1.96048
1.96076
1.96101
1.96121
1.96139
1.96152
1.96162
1.96168
1.9617
1.96169
1.96163
1.96154
1.96226
1.96235
1.96241
1.96243
1.9624
1.96234
1.96224
1.9621
1.96193
1.96172
1.96147
1.96118
1.96086
1.96051
1.96012
1.95969
1.95924
1.95875
1.95823
1.95767
1.95709
1.95648
1.95584
1.95517
1.95448
1.95376
1.95302
1.95226
1.95147
1.95066
1.94984
1.94899
1.94813
1.94726
1.94637
1.94546
1.94455
1.94362
1.94269
1.94175
1.9408
1.93984
1.93889
1.93793
1.93697
1.93601
1.93505
1.93409
1.93314
1.9322
1.93126
1.93032
1.9294
1.92849
1.92758
1.92669
1.92581
1.92494
1.92409
1.92326
1.92244
1.92163
1.92085
1.92008
1.91933
1.9186
1.91789
1.9172
1.91653
1.91589
1.91526
1.91465
1.91407
1.91351
1.91296
1.91245
1.91195
1.91147
1.91102
1.91059
1.91018
1.90979
1.90943
1.90908
1.90876
1.90846
1.90817
1.90791
1.90767
1.90745
1.90725
1.90707
1.90691
1.90677
1.90665
1.90655
1.90647
1.90641
1.90637
1.90634
1.90634
1.90635
1.90639
1.90644
1.90651
1.9066
1.90671
1.90684
1.90699
1.90716
1.90735
1.90756
1.9078
1.90805
1.90832
1.90861
1.90893
1.90926
1.90962
1.91
1.9104
1.91082
1.91126
1.91173
1.91222
1.91273
1.91326
1.91381
1.91439
1.91499
1.91561
1.91625
1.91691
1.91759
1.91829
1.91901
1.91975
1.92051
1.92129
1.92209
1.9229
1.92373
1.92457
1.92543
1.9263
1.92719
1.92808
1.92899
1.92991
1.93084
1.93177
1.93271
1.93365
1.9346
1.93556
1.93651
1.93747
1.93842
1.93937
1.94032
1.94126
1.9422
1.94313
1.94405
1.94496
1.94586
1.94674
1.94761
1.94847
1.94931
1.95013
1.95094
1.95172
1.95248
1.95322
1.95393
1.95462
1.95529
1.95592
1.95653
1.95711
1.95766
1.95818
1.95867
1.95912
1.95955
1.95994
1.96029
1.96061
1.96089
1.96114
1.96135
1.96152
1.96166
1.96176
1.96182
1.96184
1.96183
1.96177
1.96168
1.96243
1.96252
1.96258
1.96259
1.96257
1.96251
1.96241
1.96227
1.96209
1.96188
1.96163
1.96134
1.96102
1.96066
1.96026
1.95984
1.95938
1.95888
1.95836
1.9578
1.95721
1.95659
1.95595
1.95528
1.95458
1.95385
1.9531
1.95233
1.95154
1.95073
1.94989
1.94904
1.94817
1.94729
1.94639
1.94548
1.94456
1.94363
1.94269
1.94174
1.94078
1.93982
1.93886
1.93789
1.93692
1.93596
1.93499
1.93403
1.93307
1.93212
1.93117
1.93023
1.9293
1.92838
1.92747
1.92657
1.92569
1.92482
1.92396
1.92312
1.92229
1.92149
1.9207
1.91993
1.91917
1.91844
1.91773
1.91703
1.91636
1.91571
1.91508
1.91447
1.91389
1.91332
1.91278
1.91226
1.91176
1.91129
1.91083
1.9104
1.90999
1.9096
1.90924
1.90889
1.90857
1.90826
1.90798
1.90772
1.90748
1.90726
1.90706
1.90688
1.90672
1.90658
1.90646
1.90636
1.90628
1.90622
1.90618
1.90615
1.90615
1.90616
1.90619
1.90625
1.90632
1.90641
1.90652
1.90665
1.9068
1.90697
1.90716
1.90737
1.9076
1.90786
1.90813
1.90842
1.90874
1.90907
1.90943
1.90981
1.91021
1.91063
1.91108
1.91154
1.91203
1.91254
1.91308
1.91363
1.91421
1.91481
1.91543
1.91608
1.91674
1.91742
1.91813
1.91885
1.9196
1.92036
1.92114
1.92194
1.92276
1.92359
1.92444
1.92531
1.92618
1.92707
1.92798
1.92889
1.92981
1.93075
1.93169
1.93263
1.93359
1.93454
1.9355
1.93646
1.93742
1.93839
1.93934
1.9403
1.94125
1.94219
1.94313
1.94406
1.94498
1.94588
1.94678
1.94766
1.94852
1.94937
1.9502
1.95101
1.95179
1.95256
1.95331
1.95403
1.95472
1.95539
1.95604
1.95665
1.95724
1.95779
1.95831
1.95881
1.95927
1.95969
1.96008
1.96044
1.96076
1.96105
1.9613
1.96151
1.96169
1.96182
1.96192
1.96199
1.96201
1.96199
1.96194
1.96185
1.96263
1.96272
1.96278
1.96279
1.96277
1.9627
1.9626
1.96246
1.96228
1.96207
1.96181
1.96152
1.9612
1.96083
1.96044
1.96
1.95954
1.95904
1.95851
1.95794
1.95735
1.95673
1.95608
1.9554
1.95469
1.95396
1.9532
1.95243
1.95162
1.9508
1.94996
1.9491
1.94823
1.94734
1.94643
1.94551
1.94458
1.94364
1.94269
1.94173
1.94077
1.9398
1.93882
1.93785
1.93687
1.9359
1.93492
1.93395
1.93299
1.93203
1.93107
1.93013
1.92919
1.92826
1.92735
1.92644
1.92555
1.92467
1.92381
1.92296
1.92213
1.92132
1.92053
1.91975
1.91899
1.91826
1.91754
1.91684
1.91617
1.91551
1.91488
1.91427
1.91368
1.91311
1.91257
1.91205
1.91155
1.91107
1.91061
1.91018
1.90977
1.90938
1.90901
1.90867
1.90834
1.90804
1.90776
1.9075
1.90726
1.90704
1.90684
1.90666
1.9065
1.90636
1.90624
1.90614
1.90606
1.90599
1.90595
1.90593
1.90592
1.90594
1.90597
1.90602
1.90609
1.90619
1.9063
1.90643
1.90658
1.90675
1.90694
1.90715
1.90738
1.90763
1.9079
1.9082
1.90851
1.90885
1.90921
1.90959
1.90999
1.91041
1.91086
1.91133
1.91182
1.91233
1.91287
1.91342
1.91401
1.91461
1.91523
1.91588
1.91654
1.91723
1.91794
1.91867
1.91942
1.92019
1.92098
1.92178
1.9226
1.92344
1.9243
1.92517
1.92605
1.92695
1.92786
1.92878
1.92971
1.93065
1.9316
1.93255
1.93351
1.93448
1.93544
1.93641
1.93738
1.93835
1.93932
1.94028
1.94124
1.94219
1.94314
1.94408
1.945
1.94592
1.94682
1.94771
1.94858
1.94943
1.95027
1.95109
1.95189
1.95266
1.95341
1.95414
1.95484
1.95552
1.95617
1.95679
1.95738
1.95794
1.95847
1.95897
1.95943
1.95986
1.96026
1.96062
1.96094
1.96123
1.96148
1.9617
1.96188
1.96202
1.96212
1.96218
1.9622
1.96219
1.96213
1.96204
1.96285
1.96294
1.963
1.96302
1.96299
1.96293
1.96282
1.96268
1.9625
1.96228
1.96203
1.96173
1.9614
1.96103
1.96063
1.96019
1.95972
1.95922
1.95868
1.95811
1.95751
1.95688
1.95622
1.95554
1.95482
1.95408
1.95332
1.95253
1.95172
1.95089
1.95004
1.94918
1.94829
1.94739
1.94647
1.94554
1.9446
1.94365
1.94269
1.94173
1.94075
1.93977
1.93879
1.93781
1.93682
1.93584
1.93485
1.93388
1.9329
1.93193
1.93097
1.93001
1.92907
1.92813
1.92721
1.92629
1.9254
1.92451
1.92364
1.92279
1.92195
1.92113
1.92033
1.91955
1.91879
1.91805
1.91732
1.91662
1.91594
1.91529
1.91465
1.91403
1.91344
1.91287
1.91233
1.9118
1.9113
1.91082
1.91036
1.90993
1.90952
1.90913
1.90876
1.90841
1.90809
1.90778
1.9075
1.90724
1.907
1.90678
1.90658
1.9064
1.90624
1.9061
1.90598
1.90588
1.90579
1.90573
1.90569
1.90566
1.90566
1.90567
1.90571
1.90576
1.90583
1.90592
1.90603
1.90617
1.90632
1.90649
1.90668
1.90689
1.90712
1.90737
1.90764
1.90794
1.90825
1.90859
1.90895
1.90933
1.90973
1.91016
1.91061
1.91108
1.91157
1.91209
1.91263
1.91319
1.91377
1.91438
1.915
1.91565
1.91633
1.91702
1.91773
1.91847
1.91922
1.92
1.92079
1.9216
1.92243
1.92327
1.92414
1.92501
1.9259
1.92681
1.92773
1.92866
1.92959
1.93054
1.9315
1.93246
1.93343
1.9344
1.93538
1.93636
1.93734
1.93832
1.9393
1.94027
1.94124
1.9422
1.94315
1.9441
1.94504
1.94596
1.94687
1.94777
1.94865
1.94951
1.95036
1.95119
1.95199
1.95278
1.95354
1.95427
1.95498
1.95567
1.95632
1.95695
1.95755
1.95811
1.95865
1.95915
1.95962
1.96006
1.96046
1.96082
1.96115
1.96144
1.9617
1.96192
1.96209
1.96224
1.96234
1.9624
1.96243
1.96241
1.96236
1.96226
1.96311
1.9632
1.96326
1.96327
1.96324
1.96318
1.96307
1.96293
1.96275
1.96252
1.96226
1.96197
1.96163
1.96126
1.96085
1.96041
1.95993
1.95942
1.95888
1.9583
1.95769
1.95706
1.95639
1.9557
1.95497
1.95423
1.95345
1.95266
1.95184
1.951
1.95014
1.94926
1.94836
1.94745
1.94653
1.94559
1.94464
1.94367
1.9427
1.94173
1.94074
1.93975
1.93876
1.93776
1.93677
1.93577
1.93478
1.93379
1.9328
1.93182
1.93085
1.92989
1.92893
1.92799
1.92705
1.92613
1.92523
1.92433
1.92346
1.9226
1.92175
1.92093
1.92012
1.91933
1.91856
1.91781
1.91709
1.91638
1.91569
1.91503
1.91439
1.91377
1.91318
1.9126
1.91205
1.91153
1.91102
1.91054
1.91008
1.90964
1.90923
1.90884
1.90847
1.90812
1.90779
1.90749
1.90721
1.90694
1.9067
1.90648
1.90628
1.9061
1.90594
1.9058
1.90568
1.90558
1.9055
1.90543
1.90539
1.90537
1.90536
1.90538
1.90541
1.90546
1.90553
1.90563
1.90574
1.90587
1.90602
1.90619
1.90638
1.90659
1.90682
1.90708
1.90735
1.90765
1.90796
1.9083
1.90866
1.90904
1.90945
1.90988
1.91033
1.9108
1.9113
1.91182
1.91236
1.91292
1.91351
1.91412
1.91475
1.9154
1.91608
1.91678
1.9175
1.91824
1.919
1.91978
1.92058
1.9214
1.92223
1.92309
1.92396
1.92484
1.92574
1.92666
1.92758
1.92852
1.92947
1.93043
1.93139
1.93237
1.93334
1.93433
1.93532
1.9363
1.93729
1.93828
1.93927
1.94026
1.94123
1.94221
1.94317
1.94413
1.94508
1.94601
1.94693
1.94784
1.94873
1.94961
1.95046
1.9513
1.95211
1.95291
1.95368
1.95442
1.95514
1.95583
1.9565
1.95713
1.95774
1.95831
1.95885
1.95936
1.95983
1.96028
1.96068
1.96105
1.96138
1.96168
1.96194
1.96216
1.96234
1.96248
1.96259
1.96265
1.96268
1.96266
1.96261
1.96251
1.96339
1.96348
1.96354
1.96355
1.96353
1.96346
1.96335
1.96321
1.96302
1.9628
1.96253
1.96223
1.96189
1.96151
1.9611
1.96065
1.96017
1.95965
1.9591
1.95852
1.9579
1.95725
1.95658
1.95587
1.95514
1.95439
1.9536
1.9528
1.95197
1.95112
1.95025
1.94936
1.94845
1.94753
1.94659
1.94564
1.94467
1.9437
1.94272
1.94173
1.94073
1.93973
1.93872
1.93772
1.93671
1.9357
1.9347
1.9337
1.9327
1.93171
1.93073
1.92975
1.92879
1.92783
1.92689
1.92596
1.92504
1.92414
1.92325
1.92238
1.92153
1.9207
1.91988
1.91909
1.91831
1.91756
1.91682
1.91611
1.91542
1.91475
1.9141
1.91348
1.91288
1.9123
1.91175
1.91122
1.91071
1.91023
1.90976
1.90933
1.90891
1.90852
1.90814
1.90779
1.90747
1.90716
1.90688
1.90661
1.90637
1.90615
1.90595
1.90577
1.90561
1.90547
1.90535
1.90524
1.90516
1.9051
1.90506
1.90503
1.90503
1.90504
1.90508
1.90513
1.9052
1.90529
1.9054
1.90553
1.90569
1.90586
1.90605
1.90626
1.90649
1.90675
1.90702
1.90732
1.90764
1.90798
1.90834
1.90872
1.90913
1.90956
1.91001
1.91049
1.91099
1.91151
1.91206
1.91262
1.91322
1.91383
1.91447
1.91513
1.91581
1.91651
1.91724
1.91799
1.91875
1.91954
1.92035
1.92117
1.92202
1.92288
1.92376
1.92465
1.92556
1.92649
1.92742
1.92837
1.92933
1.9303
1.93128
1.93226
1.93325
1.93425
1.93524
1.93625
1.93725
1.93825
1.93925
1.94024
1.94123
1.94222
1.9432
1.94417
1.94512
1.94607
1.947
1.94792
1.94883
1.94971
1.95058
1.95143
1.95225
1.95305
1.95383
1.95459
1.95532
1.95602
1.95669
1.95733
1.95795
1.95853
1.95908
1.95959
1.96007
1.96052
1.96093
1.96131
1.96165
1.96195
1.96221
1.96243
1.96262
1.96276
1.96287
1.96293
1.96296
1.96295
1.96289
1.96279
1.9637
1.96379
1.96385
1.96386
1.96384
1.96377
1.96366
1.96351
1.96332
1.96309
1.96283
1.96252
1.96218
1.96179
1.96137
1.96092
1.96043
1.9599
1.95934
1.95875
1.95813
1.95747
1.95679
1.95607
1.95533
1.95456
1.95377
1.95295
1.95211
1.95125
1.95036
1.94946
1.94854
1.94761
1.94666
1.94569
1.94472
1.94373
1.94273
1.94173
1.94072
1.93971
1.93869
1.93767
1.93665
1.93563
1.93461
1.9336
1.93259
1.93159
1.93059
1.9296
1.92862
1.92766
1.9267
1.92576
1.92484
1.92392
1.92303
1.92215
1.92129
1.92044
1.91962
1.91882
1.91803
1.91727
1.91653
1.91581
1.91511
1.91444
1.91379
1.91316
1.91256
1.91197
1.91142
1.91088
1.91037
1.90988
1.90942
1.90897
1.90855
1.90816
1.90778
1.90743
1.9071
1.9068
1.90651
1.90625
1.906
1.90578
1.90558
1.9054
1.90524
1.9051
1.90497
1.90487
1.90479
1.90473
1.90468
1.90466
1.90466
1.90467
1.9047
1.90476
1.90483
1.90492
1.90503
1.90516
1.90532
1.90549
1.90568
1.90589
1.90613
1.90638
1.90666
1.90696
1.90728
1.90762
1.90798
1.90837
1.90878
1.90921
1.90967
1.91015
1.91065
1.91118
1.91172
1.9123
1.91289
1.91351
1.91416
1.91482
1.91551
1.91622
1.91695
1.91771
1.91848
1.91928
1.92009
1.92093
1.92178
1.92266
1.92354
1.92445
1.92537
1.9263
1.92725
1.92821
1.92918
1.93016
1.93115
1.93215
1.93315
1.93416
1.93517
1.93618
1.9372
1.93821
1.93922
1.94023
1.94124
1.94224
1.94323
1.94421
1.94518
1.94614
1.94708
1.94802
1.94893
1.94983
1.95071
1.95157
1.9524
1.95322
1.95401
1.95477
1.95551
1.95622
1.95691
1.95756
1.95818
1.95877
1.95933
1.95985
1.96034
1.96079
1.96121
1.96159
1.96193
1.96224
1.9625
1.96273
1.96292
1.96307
1.96318
1.96324
1.96327
1.96326
1.9632
1.9631
1.96404
1.96413
1.96419
1.96421
1.96418
1.96411
1.964
1.96385
1.96365
1.96342
1.96315
1.96284
1.96249
1.9621
1.96167
1.96121
1.96071
1.96018
1.95961
1.95901
1.95838
1.95771
1.95701
1.95629
1.95554
1.95476
1.95395
1.95312
1.95227
1.95139
1.9505
1.94958
1.94865
1.9477
1.94673
1.94576
1.94477
1.94376
1.94275
1.94174
1.94071
1.93968
1.93865
1.93762
1.93658
1.93555
1.93452
1.93349
1.93247
1.93145
1.93044
1.92944
1.92845
1.92747
1.92651
1.92555
1.92461
1.92369
1.92278
1.92189
1.92102
1.92017
1.91934
1.91852
1.91773
1.91696
1.91621
1.91549
1.91478
1.9141
1.91344
1.91281
1.9122
1.91161
1.91105
1.91051
1.90999
1.9095
1.90903
1.90859
1.90817
1.90777
1.90739
1.90704
1.90671
1.9064
1.90611
1.90584
1.9056
1.90538
1.90517
1.90499
1.90483
1.90469
1.90457
1.90446
1.90438
1.90432
1.90427
1.90425
1.90425
1.90426
1.90429
1.90435
1.90442
1.90451
1.90462
1.90476
1.90491
1.90508
1.90527
1.90549
1.90572
1.90598
1.90626
1.90656
1.90688
1.90722
1.90759
1.90798
1.90839
1.90883
1.90929
1.90977
1.91028
1.91081
1.91136
1.91194
1.91254
1.91317
1.91382
1.91449
1.91518
1.9159
1.91664
1.9174
1.91819
1.91899
1.91982
1.92066
1.92153
1.92241
1.92331
1.92422
1.92516
1.9261
1.92706
1.92803
1.92902
1.93001
1.93101
1.93202
1.93304
1.93406
1.93509
1.93611
1.93714
1.93817
1.9392
1.94022
1.94124
1.94225
1.94326
1.94425
1.94524
1.94621
1.94717
1.94812
1.94905
1.94996
1.95085
1.95172
1.95257
1.9534
1.9542
1.95498
1.95573
1.95645
1.95714
1.9578
1.95844
1.95904
1.9596
1.96013
1.96063
1.96109
1.96151
1.9619
1.96225
1.96256
1.96283
1.96306
1.96325
1.9634
1.96351
1.96358
1.96361
1.9636
1.96354
1.96344
1.96441
1.96451
1.96457
1.96458
1.96455
1.96448
1.96436
1.96421
1.96401
1.96378
1.9635
1.96318
1.96283
1.96243
1.962
1.96153
1.96102
1.96048
1.9599
1.95929
1.95865
1.95797
1.95726
1.95653
1.95576
1.95497
1.95415
1.95331
1.95244
1.95155
1.95064
1.94971
1.94876
1.9478
1.94682
1.94583
1.94482
1.9438
1.94278
1.94174
1.9407
1.93966
1.93861
1.93756
1.93651
1.93546
1.93442
1.93337
1.93234
1.9313
1.93028
1.92927
1.92826
1.92727
1.92629
1.92532
1.92437
1.92344
1.92252
1.92162
1.92073
1.91987
1.91903
1.9182
1.9174
1.91662
1.91587
1.91513
1.91442
1.91373
1.91307
1.91243
1.91181
1.91122
1.91065
1.9101
1.90958
1.90909
1.90861
1.90816
1.90774
1.90734
1.90696
1.9066
1.90627
1.90596
1.90567
1.9054
1.90516
1.90493
1.90473
1.90455
1.90438
1.90424
1.90412
1.90402
1.90393
1.90387
1.90383
1.9038
1.9038
1.90381
1.90385
1.9039
1.90397
1.90406
1.90418
1.90431
1.90446
1.90464
1.90483
1.90504
1.90528
1.90554
1.90582
1.90612
1.90644
1.90679
1.90716
1.90755
1.90797
1.90841
1.90887
1.90936
1.90987
1.9104
1.91096
1.91155
1.91216
1.91279
1.91344
1.91412
1.91483
1.91555
1.9163
1.91707
1.91787
1.91868
1.91952
1.92037
1.92125
1.92214
1.92305
1.92398
1.92493
1.92588
1.92686
1.92784
1.92884
1.92985
1.93086
1.93189
1.93292
1.93396
1.935
1.93604
1.93709
1.93813
1.93917
1.94021
1.94125
1.94227
1.94329
1.94431
1.94531
1.9463
1.94727
1.94823
1.94917
1.9501
1.95101
1.95189
1.95276
1.9536
1.95441
1.9552
1.95596
1.9567
1.9574
1.95807
1.95872
1.95932
1.9599
1.96044
1.96094
1.96141
1.96184
1.96224
1.96259
1.96291
1.96318
1.96342
1.96361
1.96377
1.96388
1.96395
1.96398
1.96397
1.96391
1.96381
1.96481
1.96491
1.96497
1.96498
1.96495
1.96488
1.96476
1.9646
1.9644
1.96416
1.96388
1.96356
1.9632
1.96279
1.96235
1.96187
1.96136
1.9608
1.96022
1.95959
1.95894
1.95825
1.95753
1.95678
1.956
1.9552
1.95437
1.95351
1.95263
1.95172
1.9508
1.94985
1.94889
1.94791
1.94691
1.9459
1.94488
1.94385
1.9428
1.94175
1.9407
1.93964
1.93857
1.9375
1.93644
1.93537
1.93431
1.93325
1.93219
1.93115
1.93011
1.92908
1.92806
1.92705
1.92606
1.92508
1.92411
1.92316
1.92223
1.92132
1.92042
1.91955
1.91869
1.91786
1.91705
1.91626
1.91549
1.91475
1.91403
1.91333
1.91266
1.91201
1.91139
1.91079
1.91021
1.90966
1.90914
1.90864
1.90816
1.90771
1.90728
1.90687
1.90649
1.90613
1.9058
1.90548
1.90519
1.90492
1.90468