/*--------------------------------*- C++ -*----------------------------------*\
| =========                 |                                                 |
| \\      /  F ield         | OpenFOAM: The Open Source CFD Toolbox           |
|  \\    /   O peration     | Version:  2412                                  |
|   \\  /    A nd           | Website:  www.openfoam.com                      |
|    \\/     M anipulation  |                                                 |
\*---------------------------------------------------------------------------*/
FoamFile
{
    version     2.0;
    format      ascii;
    arch        "LSB;label=32;scalar=64";
    class       surfaceScalarField;
    location    "1.24";
    object      phi;
}
// * * * * * * * * * * * * * * * * * * * * * * * * * * * * * * * * * * * * * //

dimensions      [0 3 -1 0 0 0 0];

oriented        oriented;

internalField   nonuniform List<scalar> 
79600
(
1.3414e-11
-1.34634e-11
4.24111e-11
-2.89978e-11
7.68382e-11
-3.44373e-11
1.12936e-10
-3.61022e-11
1.49585e-10
-3.66361e-11
1.86366e-10
-3.67675e-11
2.23067e-10
-3.67022e-11
2.59591e-10
-3.6533e-11
2.95892e-10
-3.63061e-11
3.3194e-10
-3.60461e-11
3.67708e-10
-3.57626e-11
4.03167e-10
-3.5456e-11
4.3829e-10
-3.5124e-11
4.73054e-10
-3.4765e-11
5.07432e-10
-3.43786e-11
5.41397e-10
-3.39649e-11
5.74922e-10
-3.35237e-11
6.07977e-10
-3.30549e-11
6.40535e-10
-3.25582e-11
6.72566e-10
-3.20333e-11
7.04045e-10
-3.14801e-11
7.34941e-10
-3.08985e-11
7.65228e-10
-3.02884e-11
7.94878e-10
-2.96499e-11
8.23861e-10
-2.89831e-11
8.52149e-10
-2.82882e-11
8.79714e-10
-2.75656e-11
9.0653e-10
-2.68154e-11
9.32567e-10
-2.6038e-11
9.57801e-10
-2.52334e-11
9.82203e-10
-2.44019e-11
1.00575e-09
-2.35438e-11
1.02841e-09
-2.26595e-11
1.05016e-09
-2.17493e-11
1.07097e-09
-2.08137e-11
1.09082e-09
-1.98531e-11
1.10969e-09
-1.8868e-11
1.12755e-09
-1.78586e-11
1.14437e-09
-1.68254e-11
1.16014e-09
-1.57691e-11
1.17483e-09
-1.46904e-11
1.18842e-09
-1.35901e-11
1.20089e-09
-1.2469e-11
1.21222e-09
-1.1328e-11
1.22239e-09
-1.01676e-11
1.23138e-09
-8.98884e-12
1.23917e-09
-7.79251e-12
1.24575e-09
-6.57974e-12
1.2511e-09
-5.35164e-12
1.25521e-09
-4.10917e-12
1.25806e-09
-2.853e-12
1.25965e-09
-1.58329e-12
1.25995e-09
-3.01925e-13
1.25894e-09
1.00602e-12
1.25664e-09
2.30614e-12
1.25302e-09
3.6146e-12
1.2481e-09
4.92355e-12
1.24186e-09
6.23316e-12
1.23432e-09
7.54339e-12
1.22547e-09
8.8534e-12
1.21531e-09
1.01618e-11
1.20384e-09
1.14671e-11
1.19107e-09
1.27675e-11
1.17701e-09
1.40616e-11
1.16166e-09
1.53477e-11
1.14504e-09
1.66241e-11
1.12715e-09
1.78888e-11
1.10801e-09
1.91402e-11
1.08763e-09
2.03762e-11
1.06603e-09
2.15954e-11
1.04324e-09
2.27961e-11
1.01926e-09
2.39766e-11
9.94127e-10
2.51351e-11
9.67858e-10
2.62697e-11
9.40479e-10
2.73786e-11
9.12018e-10
2.84604e-11
8.82505e-10
2.95135e-11
8.51968e-10
3.05365e-11
8.20441e-10
3.15276e-11
7.87957e-10
3.24851e-11
7.5455e-10
3.34073e-11
7.20256e-10
3.42929e-11
6.85115e-10
3.51406e-11
6.49166e-10
3.59492e-11
6.1245e-10
3.67174e-11
5.75007e-10
3.74438e-11
5.3688e-10
3.81272e-11
4.98115e-10
3.87663e-11
4.58755e-10
3.93601e-11
4.18847e-10
3.99077e-11
3.78437e-10
4.04082e-11
3.37575e-10
4.08609e-11
2.96308e-10
4.12652e-11
2.54686e-10
4.16204e-11
2.1276e-10
4.19262e-11
1.70578e-10
4.2182e-11
1.28192e-10
4.23872e-11
8.56509e-11
4.25412e-11
4.30073e-11
4.26433e-11
3.13232e-13
4.26929e-11
-4.23809e-11
4.26927e-11
-8.5025e-11
4.26428e-11
-1.27567e-10
4.25409e-11
-1.69954e-10
4.23878e-11
-2.12138e-10
4.21836e-11
-2.54065e-10
4.19287e-11
-2.95688e-10
4.16235e-11
-3.36955e-10
4.12684e-11
-3.77819e-10
4.0864e-11
-4.1823e-10
4.0411e-11
-4.5814e-10
3.99101e-11
-4.97503e-10
3.93626e-11
-5.36272e-10
3.87693e-11
-5.74402e-10
3.8131e-11
-6.11849e-10
3.74486e-11
-6.4857e-10
3.67231e-11
-6.84525e-10
3.59554e-11
-7.19671e-10
3.51469e-11
-7.5397e-10
3.4299e-11
-7.87384e-10
3.34132e-11
-8.19875e-10
3.24908e-11
-8.5141e-10
3.15337e-11
-8.81954e-10
3.05434e-11
-9.11475e-10
2.95215e-11
-9.39943e-10
2.8469e-11
-9.67329e-10
2.73874e-11
-9.93608e-10
2.62786e-11
-1.01875e-09
2.51443e-11
-1.04274e-09
2.39861e-11
-1.06554e-09
2.28058e-11
-1.08715e-09
2.16052e-11
-1.10754e-09
2.03864e-11
-1.12669e-09
1.91511e-11
-1.14459e-09
1.79005e-11
-1.16122e-09
1.66366e-11
-1.17658e-09
1.53613e-11
-1.19066e-09
1.4076e-11
-1.20344e-09
1.27821e-11
-1.21492e-09
1.14816e-11
-1.2251e-09
1.01765e-11
-1.23397e-09
8.86781e-12
-1.24153e-09
7.55736e-12
-1.24777e-09
6.24684e-12
-1.25271e-09
4.93668e-12
-1.25634e-09
3.62688e-12
-1.25865e-09
2.31796e-12
-1.25967e-09
1.0181e-12
-1.25938e-09
-2.89548e-13
-1.25781e-09
-1.57071e-12
-1.25497e-09
-2.84012e-12
-1.25087e-09
-4.09521e-12
-1.24554e-09
-5.33638e-12
-1.23897e-09
-6.56367e-12
-1.2312e-09
-7.77526e-12
-1.22223e-09
-8.97001e-12
-1.21208e-09
-1.01478e-11
-1.20077e-09
-1.13082e-11
-1.18832e-09
-1.24499e-11
-1.17475e-09
-1.35714e-11
-1.16008e-09
-1.4672e-11
-1.14433e-09
-1.57514e-11
-1.12752e-09
-1.68081e-11
-1.10968e-09
-1.78407e-11
-1.09083e-09
-1.88494e-11
-1.07099e-09
-1.98341e-11
-1.0502e-09
-2.07942e-11
-1.02847e-09
-2.17292e-11
-1.00583e-09
-2.26392e-11
-9.82306e-10
-2.35233e-11
-9.57924e-10
-2.43808e-11
-9.32711e-10
-2.52119e-11
-9.06694e-10
-2.60164e-11
-8.799e-10
-2.67927e-11
-8.52357e-10
-2.75406e-11
-8.24096e-10
-2.82603e-11
-7.95143e-10
-2.89517e-11
-7.65527e-10
-2.9615e-11
-7.35276e-10
-3.02506e-11
-7.04418e-10
-3.08596e-11
-6.72978e-10
-3.14406e-11
-6.40985e-10
-3.19926e-11
-6.08469e-10
-3.25155e-11
-5.75459e-10
-3.30094e-11
-5.41985e-10
-3.34739e-11
-5.08077e-10
-3.39083e-11
-4.73762e-10
-3.43144e-11
-4.39071e-10
-3.46921e-11
-4.0403e-10
-3.50402e-11
-3.68669e-10
-3.53608e-11
-3.33016e-10
-3.56539e-11
-2.97098e-10
-3.59171e-11
-2.60948e-10
-3.615e-11
-2.24594e-10
-3.63526e-11
-1.88072e-10
-3.65233e-11
-1.51418e-10
-3.66548e-11
-1.14706e-10
-3.67127e-11
-7.81956e-11
-3.65119e-11
-4.30176e-11
-3.51784e-11
-1.33925e-11
-2.96269e-11
-1.33949e-11
2.97935e-11
-4.32579e-11
8.62167e-11
-8.54076e-11
1.50198e-10
-9.84142e-11
2.15922e-10
-1.01847e-10
2.82089e-10
-1.02821e-10
3.48339e-10
-1.03014e-10
4.14478e-10
-1.02828e-10
4.80376e-10
-1.02423e-10
5.45945e-10
-1.01876e-10
6.11119e-10
-1.01224e-10
6.75841e-10
-1.00486e-10
7.40057e-10
-9.96699e-11
8.03713e-10
-9.87781e-11
8.6676e-10
-9.78106e-11
9.29147e-10
-9.67664e-11
9.90827e-10
-9.56448e-11
1.05175e-09
-9.44456e-11
1.11186e-09
-9.31688e-11
1.17111e-09
-9.18141e-11
1.22946e-09
-9.03812e-11
1.28685e-09
-8.88697e-11
1.34323e-09
-8.72794e-11
1.39855e-09
-8.561e-11
1.45276e-09
-8.38619e-11
1.50581e-09
-8.20352e-11
1.55765e-09
-8.01304e-11
1.60824e-09
-7.81477e-11
1.65751e-09
-7.60877e-11
1.70542e-09
-7.39505e-11
1.75192e-09
-7.17367e-11
1.79697e-09
-6.94469e-11
1.84051e-09
-6.70816e-11
1.88249e-09
-6.46415e-11
1.92286e-09
-6.21275e-11
1.96159e-09
-5.95402e-11
1.99862e-09
-5.68806e-11
2.0339e-09
-5.41496e-11
2.06739e-09
-5.13484e-11
2.09904e-09
-4.84783e-11
2.12881e-09
-4.55411e-11
2.15666e-09
-4.25382e-11
2.18254e-09
-3.94715e-11
2.20642e-09
-3.63427e-11
2.22824e-09
-3.31536e-11
2.24798e-09
-2.99062e-11
2.26559e-09
-2.66029e-11
2.28105e-09
-2.32463e-11
2.29431e-09
-1.98392e-11
2.30534e-09
-1.63844e-11
2.31411e-09
-1.28845e-11
2.3206e-09
-9.34191e-12
2.32478e-09
-5.7589e-12
2.32662e-09
-2.13666e-12
2.3261e-09
1.52551e-12
2.32319e-09
5.21453e-12
2.31788e-09
8.92098e-12
2.31016e-09
1.26421e-11
2.30002e-09
1.63761e-11
2.28744e-09
2.01202e-11
2.27242e-09
2.38706e-11
2.25496e-09
2.76231e-11
2.23506e-09
3.13732e-11
2.21271e-09
3.51161e-11
2.18792e-09
3.88471e-11
2.16071e-09
4.25614e-11
2.13108e-09
4.62537e-11
2.09905e-09
4.99189e-11
2.06463e-09
5.35516e-11
2.02786e-09
5.71466e-11
1.98876e-09
6.06986e-11
1.94735e-09
6.42024e-11
1.90368e-09
6.76525e-11
1.85777e-09
7.10437e-11
1.80967e-09
7.43705e-11
1.75942e-09
7.7628e-11
1.70707e-09
8.08108e-11
1.65267e-09
8.39141e-11
1.59628e-09
8.69324e-11
1.53794e-09
8.98606e-11
1.47773e-09
9.26935e-11
1.41572e-09
9.54264e-11
1.35195e-09
9.80548e-11
1.28652e-09
1.00574e-10
1.21949e-09
1.0298e-10
1.15094e-09
1.05268e-10
1.08095e-09
1.07434e-10
1.00961e-09
1.09473e-10
9.3699e-10
1.11382e-10
8.6319e-10
1.13158e-10
7.88298e-10
1.14798e-10
7.12406e-10
1.16298e-10
6.35607e-10
1.17657e-10
5.58e-10
1.18871e-10
4.7968e-10
1.19939e-10
4.00749e-10
1.20858e-10
3.21306e-10
1.21626e-10
2.41451e-10
1.22243e-10
1.61286e-10
1.22705e-10
8.09148e-11
1.23013e-10
4.40205e-13
1.23165e-10
-8.00343e-11
1.23165e-10
-1.60406e-10
1.23014e-10
-2.40571e-10
1.22707e-10
-3.20428e-10
1.22245e-10
-3.99873e-10
1.2163e-10
-4.78806e-10
1.20863e-10
-5.57127e-10
1.19945e-10
-6.34737e-10
1.18878e-10
-7.11537e-10
1.17664e-10
-7.87433e-10
1.16306e-10
-8.62329e-10
1.14806e-10
-9.36132e-10
1.13167e-10
-1.00875e-09
1.11392e-10
-1.0801e-09
1.09484e-10
-1.1501e-09
1.07445e-10
-1.21865e-09
1.0528e-10
-1.28569e-09
1.02993e-10
-1.35113e-09
1.00587e-10
-1.4149e-09
9.80683e-11
-1.47693e-09
9.54402e-11
-1.53715e-09
9.27079e-11
-1.59549e-09
8.98762e-11
-1.65189e-09
8.69497e-11
-1.7063e-09
8.3933e-11
-1.75867e-09
8.08309e-11
-1.80893e-09
7.76484e-11
-1.85704e-09
7.43911e-11
-1.90296e-09
7.10644e-11
-1.94665e-09
6.76737e-11
-1.98807e-09
6.42244e-11
-2.02718e-09
6.07217e-11
-2.06397e-09
5.71713e-11
-2.09839e-09
5.35782e-11
-2.13044e-09
4.99472e-11
-2.16008e-09
4.62832e-11
-2.18731e-09
4.25922e-11
-2.21212e-09
3.88793e-11
-2.23448e-09
3.51487e-11
-2.25441e-09
3.14055e-11
-2.27189e-09
2.76556e-11
-2.28693e-09
2.39035e-11
-2.29952e-09
2.01527e-11
-2.30968e-09
1.64076e-11
-2.31742e-09
1.26727e-11
-2.32274e-09
8.95084e-12
-2.32566e-09
5.24366e-12
-2.3262e-09
1.5541e-12
-2.32438e-09
-2.10824e-12
-2.32022e-09
-5.7295e-12
-2.31375e-09
-9.31107e-12
-2.30499e-09
-1.28522e-11
-2.29398e-09
-1.635e-11
-2.28074e-09
-1.98022e-11
-2.26531e-09
-2.32065e-11
-2.24772e-09
-2.65607e-11
-2.228e-09
-2.9863e-11
-2.2062e-09
-3.31102e-11
-2.18235e-09
-3.63e-11
-2.15649e-09
-3.94302e-11
-2.12866e-09
-4.2498e-11
-2.09892e-09
-4.55013e-11
-2.06728e-09
-4.84382e-11
-2.03382e-09
-5.13073e-11
-1.99856e-09
-5.41072e-11
-1.96155e-09
-5.6837e-11
-1.92285e-09
-5.94958e-11
-1.8825e-09
-6.20824e-11
-1.84054e-09
-6.45958e-11
-1.79703e-09
-6.7035e-11
-1.75201e-09
-6.93993e-11
-1.70553e-09
-7.16884e-11
-1.65764e-09
-7.3901e-11
-1.6084e-09
-7.60358e-11
-1.55784e-09
-7.80923e-11
-1.50603e-09
-8.00702e-11
-1.45301e-09
-8.19687e-11
-1.39884e-09
-8.37892e-11
-1.34356e-09
-8.55326e-11
-1.28722e-09
-8.71989e-11
-1.22988e-09
-8.87866e-11
-1.17157e-09
-9.02949e-11
-1.11236e-09
-9.1725e-11
-1.0523e-09
-9.30748e-11
-9.91426e-10
-9.43435e-11
-9.29803e-10
-9.55331e-11
-8.67475e-10
-9.66431e-11
-8.04492e-10
-9.76738e-11
-7.40905e-10
-9.86264e-11
-6.76764e-10
-9.95029e-11
-6.12117e-10
-1.00301e-10
-5.47014e-10
-1.01019e-10
-4.81506e-10
-1.01659e-10
-4.1564e-10
-1.02217e-10
-3.4947e-10
-1.02695e-10
-2.83047e-10
-1.03081e-10
-2.16457e-10
-1.03303e-10
-1.50038e-10
-1.02929e-10
-8.5406e-11
-9.98087e-11
-2.9058e-11
-8.59729e-11
-4.24528e-11
3.49885e-11
-7.82566e-11
9.99372e-11
-1.50353e-10
1.72906e-10
-1.7136e-10
2.47327e-10
-1.7626e-10
3.21858e-10
-1.77361e-10
3.96288e-10
-1.77453e-10
4.70544e-10
-1.77086e-10
5.44545e-10
-1.76419e-10
6.18208e-10
-1.75534e-10
6.91458e-10
-1.74472e-10
7.64228e-10
-1.73256e-10
8.36453e-10
-1.71897e-10
9.08075e-10
-1.704e-10
9.79033e-10
-1.68768e-10
1.04927e-09
-1.67003e-10
1.11873e-09
-1.65103e-10
1.18735e-09
-1.6307e-10
1.25508e-09
-1.60902e-10
1.32187e-09
-1.58599e-10
1.38765e-09
-1.56162e-10
1.45237e-09
-1.53591e-10
1.51597e-09
-1.50884e-10
1.5784e-09
-1.48041e-10
1.63961e-09
-1.45064e-10
1.69952e-09
-1.41951e-10
1.7581e-09
-1.38704e-10
1.81527e-09
-1.35323e-10
1.87099e-09
-1.31808e-10
1.9252e-09
-1.2816e-10
1.97784e-09
-1.2438e-10
2.02886e-09
-1.20467e-10
2.0782e-09
-1.16424e-10
2.12581e-09
-1.12251e-10
2.17163e-09
-1.0795e-10
2.21561e-09
-1.0352e-10
2.25769e-09
-9.89648e-11
2.29783e-09
-9.42846e-11
2.33596e-09
-8.94817e-11
2.37204e-09
-8.45584e-11
2.40602e-09
-7.95172e-11
2.43784e-09
-7.43605e-11
2.46746e-09
-6.90912e-11
2.49483e-09
-6.37119e-11
2.5199e-09
-5.82257e-11
2.54263e-09
-5.26363e-11
2.56297e-09
-4.69476e-11
2.58089e-09
-4.11638e-11
2.59634e-09
-3.52895e-11
2.60929e-09
-2.9329e-11
2.61969e-09
-2.32871e-11
2.62752e-09
-1.71686e-11
2.63274e-09
-1.09788e-11
2.63533e-09
-4.72323e-12
2.63526e-09
1.59116e-12
2.63252e-09
7.95997e-12
2.62706e-09
1.43718e-11
2.61888e-09
2.08217e-11
2.60795e-09
2.73029e-11
2.59427e-09
3.38086e-11
2.5778e-09
4.03311e-11
2.55856e-09
4.68627e-11
2.53654e-09
5.33953e-11
2.51174e-09
5.99208e-11
2.48415e-09
6.64307e-11
2.4538e-09
7.29163e-11
2.42068e-09
7.93687e-11
2.38483e-09
8.57786e-11
2.34624e-09
9.21368e-11
2.30495e-09
9.8434e-11
2.26099e-09
1.04661e-10
2.21439e-09
1.10808e-10
2.16517e-09
1.16866e-10
2.11339e-09
1.22825e-10
2.05909e-09
1.28675e-10
2.00231e-09
1.34408e-10
1.9431e-09
1.40013e-10
1.88154e-09
1.45482e-10
1.81767e-09
1.50804e-10
1.75155e-09
1.55971e-10
1.68327e-09
1.60974e-10
1.6129e-09
1.65803e-10
1.5405e-09
1.7045e-10
1.46617e-09
1.74908e-10
1.38998e-09
1.79166e-10
1.31203e-09
1.83218e-10
1.23241e-09
1.87055e-10
1.15121e-09
1.90671e-10
1.06854e-09
1.94058e-10
9.84484e-10
1.9721e-10
8.99159e-10
2.00122e-10
8.12669e-10
2.02788e-10
7.25123e-10
2.05202e-10
6.36633e-10
2.07361e-10
5.47314e-10
2.09259e-10
4.57279e-10
2.10893e-10
3.66647e-10
2.1226e-10
2.75534e-10
2.13355e-10
1.84059e-10
2.14178e-10
9.23424e-11
2.14728e-10
5.04025e-13
2.15002e-10
-9.13342e-11
2.15003e-10
-1.83051e-10
2.1473e-10
-2.74526e-10
2.14182e-10
-3.6564e-10
2.1336e-10
-4.56275e-10
2.12265e-10
-5.46312e-10
2.109e-10
-6.35634e-10
2.09267e-10
-7.24126e-10
2.0737e-10
-8.11674e-10
2.05213e-10
-8.98168e-10
2.02799e-10
-9.83496e-10
2.00135e-10
-1.06755e-09
1.97225e-10
-1.15023e-09
1.94074e-10
-1.23144e-09
1.90688e-10
-1.31106e-09
1.87073e-10
-1.38902e-09
1.83236e-10
-1.46521e-09
1.79185e-10
-1.53955e-09
1.74928e-10
-1.61196e-09
1.70472e-10
-1.68234e-09
1.65826e-10
-1.75063e-09
1.60998e-10
-1.81675e-09
1.55997e-10
-1.88063e-09
1.50832e-10
-1.94221e-09
1.45511e-10
-2.00142e-09
1.40043e-10
-2.05821e-09
1.34439e-10
-2.11253e-09
1.28707e-10
-2.16432e-09
1.22857e-10
-2.21355e-09
1.16899e-10
-2.26016e-09
1.10843e-10
-2.30414e-09
1.04698e-10
-2.34544e-09
9.84728e-11
-2.38404e-09
9.21772e-11
-2.41991e-09
8.58207e-11
-2.45304e-09
7.94122e-11
-2.48341e-09
7.29611e-11
-2.511e-09
6.64769e-11
-2.53582e-09
5.99681e-11
-2.55786e-09
5.3443e-11
-2.57712e-09
4.69106e-11
-2.59359e-09
4.03796e-11
-2.6073e-09
3.38571e-11
-2.61824e-09
2.73504e-11
-2.62644e-09
2.08681e-11
-2.6319e-09
1.44177e-11
-2.63466e-09
8.00523e-12
-2.63475e-09
1.63551e-12
-2.63217e-09
-4.67895e-12
-2.62697e-09
-1.09333e-11
-2.61916e-09
-1.71213e-11
-2.60877e-09
-2.32383e-11
-2.59584e-09
-2.92783e-11
-2.58041e-09
-3.52359e-11
-2.56251e-09
-4.11076e-11
-2.54218e-09
-4.68894e-11
-2.51947e-09
-5.25772e-11
-2.49441e-09
-5.8166e-11
-2.46706e-09
-6.3652e-11
-2.43746e-09
-6.90324e-11
-2.40565e-09
-7.43026e-11
-2.3717e-09
-7.94591e-11
-2.33563e-09
-8.44997e-11
-2.29752e-09
-8.94221e-11
-2.2574e-09
-9.42238e-11
-2.21534e-09
-9.89026e-11
-2.17138e-09
-1.03457e-10
-2.12557e-09
-1.07886e-10
-2.07798e-09
-1.12187e-10
-2.02865e-09
-1.16359e-10
-1.97765e-09
-1.20401e-10
-1.92503e-09
-1.24312e-10
-1.87083e-09
-1.28091e-10
-1.81513e-09
-1.31737e-10
-1.75798e-09
-1.35248e-10
-1.69942e-09
-1.38625e-10
-1.63952e-09
-1.41866e-10
-1.57834e-09
-1.44972e-10
-1.51593e-09
-1.47945e-10
-1.45235e-09
-1.50784e-10
-1.38764e-09
-1.53487e-10
-1.32188e-09
-1.56057e-10
-1.25512e-09
-1.58491e-10
-1.1874e-09
-1.60788e-10
-1.1188e-09
-1.6295e-10
-1.04936e-09
-1.64977e-10
-9.7913e-10
-1.66866e-10
-9.08179e-10
-1.68623e-10
-8.36561e-10
-1.70246e-10
-7.64327e-10
-1.71737e-10
-6.91533e-10
-1.73094e-10
-6.18236e-10
-1.74317e-10
-5.44489e-10
-1.75406e-10
-4.70346e-10
-1.7636e-10
-3.95864e-10
-1.77179e-10
-3.21099e-10
-1.77847e-10
-2.4615e-10
-1.78253e-10
-1.7138e-10
-1.77701e-10
-9.84681e-11
-1.72721e-10
-3.42513e-11
-1.5019e-10
-7.6702e-11
3.58925e-11
-1.14152e-10
1.0259e-10
-2.17071e-10
1.77834e-10
-2.46597e-10
2.54565e-10
-2.52977e-10
3.31248e-10
-2.54039e-10
4.07682e-10
-2.53892e-10
4.83851e-10
-2.53259e-10
5.59719e-10
-2.52287e-10
6.3523e-10
-2.51042e-10
7.10319e-10
-2.49558e-10
7.84919e-10
-2.47856e-10
8.58969e-10
-2.45947e-10
9.32408e-10
-2.43839e-10
1.00517e-09
-2.41536e-10
1.07721e-09
-2.39039e-10
1.14846e-09
-2.3635e-10
1.21886e-09
-2.33468e-10
1.28835e-09
-2.30394e-10
1.35688e-09
-2.27128e-10
1.42438e-09
-2.23669e-10
1.49081e-09
-2.20018e-10
1.5561e-09
-2.16174e-10
1.6202e-09
-2.12137e-10
1.68304e-09
-2.07907e-10
1.74458e-09
-2.03484e-10
1.80474e-09
-1.98869e-10
1.86348e-09
-1.94062e-10
1.92073e-09
-1.89063e-10
1.97645e-09
-1.83874e-10
2.03056e-09
-1.78495e-10
2.08302e-09
-1.72927e-10
2.13377e-09
-1.67171e-10
2.18274e-09
-1.61229e-10
2.22989e-09
-1.55101e-10
2.27516e-09
-1.4879e-10
2.31849e-09
-1.42297e-10
2.35983e-09
-1.35624e-10
2.39912e-09
-1.28775e-10
2.43631e-09
-1.21752e-10
2.47135e-09
-1.14558e-10
2.50419e-09
-1.07198e-10
2.53477e-09
-9.96736e-11
2.56305e-09
-9.19903e-11
2.58898e-09
-8.4152e-11
2.6125e-09
-7.61639e-11
2.63359e-09
-6.80314e-11
2.65218e-09
-5.97603e-11
2.66825e-09
-5.13567e-11
2.68175e-09
-4.28269e-11
2.69264e-09
-3.41776e-11
2.70089e-09
-2.54162e-11
2.70646e-09
-1.65506e-11
2.70933e-09
-7.58974e-12
2.70946e-09
1.45658e-12
2.70684e-09
1.05814e-11
2.70144e-09
1.97767e-11
2.69322e-09
2.90332e-11
2.68218e-09
3.83403e-11
2.6683e-09
4.76872e-11
2.65157e-09
5.70626e-11
2.63198e-09
6.64552e-11
2.60952e-09
7.58533e-11
2.5842e-09
8.52452e-11
2.55601e-09
9.46185e-11
2.52497e-09
1.03961e-10
2.49108e-09
1.13259e-10
2.45436e-09
1.22499e-10
2.41483e-09
1.31669e-10
2.37251e-09
1.40755e-10
2.32742e-09
1.49743e-10
2.27961e-09
1.5862e-10
2.22911e-09
1.67372e-10
2.17595e-09
1.75984e-10
2.12018e-09
1.84443e-10
2.06185e-09
1.92735e-10
2.00102e-09
2.00846e-10
1.93774e-09
2.08761e-10
1.87208e-09
2.16468e-10
1.80409e-09
2.23952e-10
1.73387e-09
2.31201e-10
1.66147e-09
2.38201e-10
1.58698e-09
2.4494e-10
1.51048e-09
2.51405e-10
1.43207e-09
2.57583e-10
1.35182e-09
2.63463e-10
1.26984e-09
2.69033e-10
1.18623e-09
2.74283e-10
1.10108e-09
2.79203e-10
1.01451e-09
2.83784e-10
9.26615e-10
2.88016e-10
8.37511e-10
2.91892e-10
7.47312e-10
2.95402e-10
6.56132e-10
2.98541e-10
5.64091e-10
3.01301e-10
4.71308e-10
3.03677e-10
3.77903e-10
3.05664e-10
2.83999e-10
3.07258e-10
1.8972e-10
3.08457e-10
9.519e-11
3.09257e-10
5.34817e-13
3.09657e-10
-9.41203e-11
3.09658e-10
-1.8865e-10
3.09259e-10
-2.8293e-10
3.08461e-10
-3.76835e-10
3.07264e-10
-4.70242e-10
3.0567e-10
-5.63028e-10
3.03684e-10
-6.55072e-10
3.0131e-10
-7.46254e-10
2.98551e-10
-8.36456e-10
2.95415e-10
-9.25562e-10
2.91907e-10
-1.01346e-09
2.88034e-10
-1.10004e-09
2.83804e-10
-1.18519e-09
2.79225e-10
-1.26881e-09
2.74306e-10
-1.35079e-09
2.69057e-10
-1.43104e-09
2.63487e-10
-1.50947e-09
2.57609e-10
-1.58597e-09
2.51432e-10
-1.66047e-09
2.4497e-10
-1.73287e-09
2.38233e-10
-1.80311e-09
2.31235e-10
-1.8711e-09
2.23988e-10
-1.93677e-09
2.16505e-10
-2.00006e-09
2.08799e-10
-2.0609e-09
2.00885e-10
-2.11924e-09
1.92776e-10
-2.17502e-09
1.84486e-10
-2.22819e-09
1.76028e-10
-2.2787e-09
1.67418e-10
-2.32653e-09
1.58668e-10
-2.37162e-09
1.49793e-10
-2.41395e-09
1.40807e-10
-2.4535e-09
1.31722e-10
-2.49023e-09
1.22553e-10
-2.52413e-09
1.13314e-10
-2.55519e-09
1.04017e-10
-2.58339e-09
9.46765e-11
-2.60873e-09
8.53046e-11
-2.6312e-09
7.5914e-11
-2.6508e-09
6.65165e-11
-2.66755e-09
5.71243e-11
-2.68144e-09
4.77491e-11
-2.69249e-09
3.84019e-11
-2.70072e-09
2.90945e-11
-2.70614e-09
1.98377e-11
-2.70877e-09
1.0642e-11
-2.70866e-09
1.51658e-12
-2.7058e-09
-7.52964e-12
-2.70025e-09
-1.64897e-11
-2.69201e-09
-2.53541e-11
-2.68114e-09
-3.41142e-11
-2.66765e-09
-4.2762e-11
-2.6516e-09
-5.12897e-11
-2.63302e-09
-5.96916e-11
-2.61195e-09
-6.79613e-11
-2.58843e-09
-7.60926e-11
-2.56252e-09
-8.40798e-11
-2.53425e-09
-9.19175e-11
-2.50368e-09
-9.96008e-11
-2.47086e-09
-1.07125e-10
-2.43583e-09
-1.14485e-10
-2.39866e-09
-1.21678e-10
-2.35938e-09
-1.287e-10
-2.31805e-09
-1.35549e-10
-2.27474e-09
-1.4222e-10
-2.22948e-09
-1.48712e-10
-2.18235e-09
-1.55023e-10
-2.13338e-09
-1.6115e-10
-2.08265e-09
-1.67092e-10
-2.0302e-09
-1.72847e-10
-1.9761e-09
-1.78415e-10
-1.92039e-09
-1.83792e-10
-1.86315e-09
-1.8898e-10
-1.80442e-09
-1.93975e-10
-1.74427e-09
-1.98778e-10
-1.68275e-09
-2.03389e-10
-1.61991e-09
-2.07808e-10
-1.55582e-09
-2.12034e-10
-1.49054e-09
-2.16068e-10
-1.42412e-09
-2.1991e-10
-1.35661e-09
-2.2356e-10
-1.28809e-09
-2.27017e-10
-1.2186e-09
-2.30281e-10
-1.1482e-09
-2.33352e-10
-1.07694e-09
-2.36231e-10
-1.00489e-09
-2.38917e-10
-9.32098e-10
-2.41413e-10
-8.58625e-10
-2.43719e-10
-7.84527e-10
-2.45836e-10
-7.09858e-10
-2.47763e-10
-6.34677e-10
-2.49499e-10
-5.59036e-10
-2.51046e-10
-4.82994e-10
-2.52403e-10
-4.06604e-10
-2.53569e-10
-3.29926e-10
-2.54523e-10
-2.53064e-10
-2.55115e-10
-1.76378e-10
-2.54386e-10
-1.0156e-10
-2.47542e-10
-3.55357e-11
-2.16214e-10
-1.12238e-10
3.59167e-11
-1.50053e-10
1.02764e-10
-2.83933e-10
1.78511e-10
-3.22354e-10
2.55939e-10
-3.304e-10
3.33336e-10
-3.3143e-10
4.10428e-10
-3.30982e-10
4.87193e-10
-3.30025e-10
5.63613e-10
-3.28709e-10
6.39649e-10
-3.27076e-10
7.15245e-10
-3.25153e-10
7.90344e-10
-3.22954e-10
8.64887e-10
-3.2049e-10
9.38814e-10
-3.17767e-10
1.01207e-09
-3.1479e-10
1.08459e-09
-3.1156e-10
1.15632e-09
-3.08079e-10
1.2272e-09
-3.04347e-10
1.29717e-09
-3.00365e-10
1.36618e-09
-2.96133e-10
1.43416e-09
-2.91651e-10
1.50106e-09
-2.86918e-10
1.56682e-09
-2.81933e-10
1.63138e-09
-2.76698e-10
1.69469e-09
-2.71212e-10
1.75668e-09
-2.65475e-10
1.8173e-09
-2.59488e-10
1.87649e-09
-2.5325e-10
1.93418e-09
-2.46763e-10
1.99034e-09
-2.40028e-10
2.04488e-09
-2.33044e-10
2.09777e-09
-2.25814e-10
2.14893e-09
-2.18339e-10
2.19832e-09
-2.10619e-10
2.24588e-09
-2.02657e-10
2.29154e-09
-1.94455e-10
2.33526e-09
-1.86016e-10
2.37698e-09
-1.77342e-10
2.41664e-09
-1.68436e-10
2.45419e-09
-1.59303e-10
2.48958e-09
-1.49946e-10
2.52275e-09
-1.4037e-10
2.55365e-09
-1.30579e-10
2.58224e-09
-1.20578e-10
2.60846e-09
-1.10375e-10
2.63227e-09
-9.99739e-11
2.65362e-09
-8.93828e-11
2.67247e-09
-7.86087e-11
2.68877e-09
-6.76593e-11
2.70249e-09
-5.6543e-11
2.71358e-09
-4.52684e-11
2.72201e-09
-3.38452e-11
2.72774e-09
-2.22836e-11
2.73075e-09
-1.05948e-11
2.731e-09
1.20943e-12
2.72846e-09
1.3119e-11
2.72311e-09
2.51239e-11
2.71493e-09
3.72117e-11
2.7039e-09
4.93688e-11
2.69001e-09
6.15811e-11
2.67324e-09
7.38339e-11
2.65358e-09
8.61124e-11
2.63103e-09
9.84015e-11
2.60559e-09
1.10686e-10
2.57726e-09
1.22948e-10
2.54605e-09
1.35173e-10
2.51197e-09
1.47343e-10
2.47502e-09
1.59442e-10
2.43524e-09
1.7145e-10
2.39264e-09
1.83353e-10
2.34725e-09
1.9513e-10
2.29911e-09
2.06765e-10
2.24824e-09
2.18238e-10
2.1947e-09
2.29532e-10
2.13851e-09
2.40627e-10
2.07974e-09
2.51504e-10
2.01844e-09
2.62147e-10
1.95467e-09
2.72536e-10
1.88848e-09
2.82653e-10
1.81995e-09
2.92481e-10
1.74915e-09
3.02001e-10
1.67616e-09
3.11197e-10
1.60105e-09
3.2005e-10
1.52391e-09
3.28545e-10
1.44483e-09
3.36665e-10
1.36389e-09
3.44394e-10
1.28121e-09
3.51718e-10
1.19687e-09
3.58622e-10
1.11098e-09
3.65094e-10
1.02364e-09
3.7112e-10
9.34971e-10
3.76689e-10
8.45075e-10
3.81788e-10
7.54071e-10
3.86407e-10
6.62074e-10
3.90537e-10
5.69206e-10
3.94169e-10
4.75585e-10
3.97297e-10
3.81336e-10
3.99913e-10
2.86581e-10
4.02012e-10
1.91447e-10
4.0359e-10
9.606e-11
4.04643e-10
5.46097e-13
4.05171e-10
-9.49681e-11
4.05172e-10
-1.90356e-10
4.04646e-10
-2.85491e-10
4.03594e-10
-3.80247e-10
4.02018e-10
-4.74498e-10
3.99921e-10
-5.68121e-10
3.97306e-10
-6.60992e-10
3.94181e-10
-7.5299e-10
3.90551e-10
-8.43997e-10
3.86423e-10
-9.33895e-10
3.81806e-10
-1.02257e-09
3.7671e-10
-1.10991e-09
3.71145e-10
-1.19581e-09
3.65121e-10
-1.28015e-09
3.58651e-10
-1.36284e-09
3.51748e-10
-1.44378e-09
3.44426e-10
-1.52287e-09
3.36699e-10
-1.60002e-09
3.28581e-10
-1.67513e-09
3.20088e-10
-1.74813e-09
3.11237e-10
-1.81894e-09
3.02043e-10
-1.88748e-09
2.92525e-10
-1.95368e-09
2.82699e-10
-2.01746e-09
2.72583e-10
-2.07877e-09
2.62196e-10
-2.13755e-09
2.51555e-10
-2.19374e-09
2.4068e-10
-2.2473e-09
2.29587e-10
-2.29818e-09
2.18296e-10
-2.34633e-09
2.06825e-10
-2.39173e-09
1.95193e-10
-2.43434e-09
1.83417e-10
-2.47414e-09
1.71515e-10
-2.51109e-09
1.59507e-10
-2.54519e-09
1.4741e-10
-2.57641e-09
1.35241e-10
-2.60475e-09
1.23018e-10
-2.63021e-09
1.10756e-10
-2.65277e-09
9.8474e-11
-2.67243e-09
8.61861e-11
-2.68922e-09
7.39079e-11
-2.70313e-09
6.16554e-11
-2.71417e-09
4.94437e-11
-2.72236e-09
3.72871e-11
-2.72772e-09
2.51994e-11
-2.73027e-09
1.31944e-11
-2.73004e-09
1.28487e-12
-2.72705e-09
-1.05191e-11
-2.72133e-09
-2.22075e-11
-2.71292e-09
-3.37687e-11
-2.70184e-09
-4.51908e-11
-2.68814e-09
-5.64642e-11
-2.67185e-09
-6.75794e-11
-2.65302e-09
-7.85278e-11
-2.63168e-09
-8.9301e-11
-2.60788e-09
-9.98908e-11
-2.58167e-09
-1.10291e-10
-2.55309e-09
-1.20494e-10
-2.5222e-09
-1.30493e-10
-2.48904e-09
-1.40283e-10
-2.45366e-09
-1.49859e-10
-2.41613e-09
-1.59216e-10
-2.37648e-09
-1.68349e-10
-2.33478e-09
-1.77253e-10
-2.29107e-09
-1.85926e-10
-2.24542e-09
-1.94365e-10
-2.19787e-09
-2.02565e-10
-2.14849e-09
-2.10527e-10
-2.09734e-09
-2.18246e-10
-2.04446e-09
-2.25722e-10
-1.98992e-09
-2.32952e-10
-1.93378e-09
-2.39934e-10
-1.87609e-09
-2.46669e-10
-1.81691e-09
-2.53155e-10
-1.7563e-09
-2.59389e-10
-1.69431e-09
-2.65374e-10
-1.63101e-09
-2.71109e-10
-1.56645e-09
-2.76592e-10
-1.5007e-09
-2.81826e-10
-1.4338e-09
-2.8681e-10
-1.36581e-09
-2.91544e-10
-1.29681e-09
-2.96026e-10
-1.22683e-09
-3.00259e-10
-1.15594e-09
-3.04242e-10
-1.08419e-09
-3.07974e-10
-1.01165e-09
-3.1146e-10
-9.38367e-10
-3.14698e-10
-8.64399e-10
-3.17687e-10
-7.89804e-10
-3.20431e-10
-7.14636e-10
-3.22929e-10
-6.38955e-10
-3.25181e-10
-5.62814e-10
-3.27188e-10
-4.86269e-10
-3.28949e-10
-4.09376e-10
-3.30462e-10
-3.32196e-10
-3.31704e-10
-2.54831e-10
-3.32481e-10
-1.77646e-10
-3.31573e-10
-1.02333e-10
-3.22854e-10
-3.5866e-11
-2.82682e-10
-1.48106e-10
3.59121e-11
-1.85951e-10
1.02779e-10
-3.50795e-10
1.78704e-10
-3.98288e-10
2.56456e-10
-4.08158e-10
3.34247e-10
-4.0922e-10
4.1174e-10
-4.08473e-10
4.88886e-10
-4.07169e-10
5.65661e-10
-4.05483e-10
6.4203e-10
-4.03444e-10
7.17945e-10
-4.01067e-10
7.93353e-10
-3.98361e-10
8.68198e-10
-3.95336e-10
9.42425e-10
-3.91994e-10
1.01597e-09
-3.8834e-10
1.08879e-09
-3.84376e-10
1.16082e-09
-3.80102e-10
1.23199e-09
-3.7552e-10
1.30225e-09
-3.7063e-10
1.37155e-09
-3.65432e-10
1.43983e-09
-3.59925e-10
1.50702e-09
-3.5411e-10
1.57307e-09
-3.47986e-10
1.63793e-09
-3.41552e-10
1.70153e-09
-3.34809e-10
1.76381e-09
-3.27757e-10
1.82472e-09
-3.20397e-10
1.8842e-09
-3.12728e-10
1.94218e-09
-3.04751e-10
1.99862e-09
-2.96467e-10
2.05345e-09
-2.87878e-10
2.10662e-09
-2.78983e-10
2.15807e-09
-2.69785e-10
2.20773e-09
-2.60286e-10
2.25556e-09
-2.50487e-10
2.3015e-09
-2.40391e-10
2.34548e-09
-2.30002e-10
2.38746e-09
-2.19322e-10
2.42738e-09
-2.08356e-10
2.46519e-09
-1.97108e-10
2.50082e-09
-1.85582e-10
2.53424e-09
-1.73784e-10
2.56538e-09
-1.6172e-10
2.5942e-09
-1.49396e-10
2.62064e-09
-1.3682e-10
2.64466e-09
-1.23998e-10
2.66622e-09
-1.1094e-10
2.68526e-09
-9.76538e-11
2.70175e-09
-8.41488e-11
2.71564e-09
-7.04353e-11
2.7269e-09
-5.65242e-11
2.73548e-09
-4.24272e-11
2.74135e-09
-2.81566e-11
2.74448e-09
-1.37257e-11
2.74484e-09
8.52e-13
2.7424e-09
1.55628e-11
2.73713e-09
3.03936e-11
2.72901e-09
4.53287e-11
2.71803e-09
6.03519e-11
2.70416e-09
7.54458e-11
2.6874e-09
9.05926e-11
2.66774e-09
1.05774e-10
2.64517e-09
1.20972e-10
2.61969e-09
1.36166e-10
2.5913e-09
1.51336e-10
2.56001e-09
1.66463e-10
2.52583e-09
1.81524e-10
2.48877e-09
1.965e-10
2.44885e-09
2.11368e-10
2.4061e-09
2.26106e-10
2.36054e-09
2.40694e-10
2.3122e-09
2.55107e-10
2.26111e-09
2.69322e-10
2.20733e-09
2.83316e-10
2.15089e-09
2.97067e-10
2.09184e-09
3.10551e-10
2.03024e-09
3.23746e-10
1.96615e-09
3.36628e-10
1.89963e-09
3.49176e-10
1.83074e-09
3.61366e-10
1.75957e-09
3.73177e-10
1.68618e-09
3.84586e-10
1.61066e-09
3.95572e-10
1.53309e-09
4.06114e-10
1.45356e-09
4.16192e-10
1.37217e-09
4.25787e-10
1.289e-09
4.3488e-10
1.20417e-09
4.43454e-10
1.11778e-09
4.51491e-10
1.02992e-09
4.58976e-10
9.4072e-10
4.65891e-10
8.50282e-10
4.72225e-10
7.58726e-10
4.77963e-10
6.66168e-10
4.83093e-10
5.7273e-10
4.87607e-10
4.78533e-10
4.91493e-10
3.83701e-10
4.94743e-10
2.88361e-10
4.97352e-10
1.92637e-10
4.99313e-10
9.66572e-11
5.00622e-10
5.49717e-13
5.01278e-10
-9.55581e-11
5.01279e-10
-1.91538e-10
5.00625e-10
-2.87263e-10
4.99318e-10
-3.82606e-10
4.97359e-10
-4.77439e-10
4.94754e-10
-5.71637e-10
4.91506e-10
-6.65078e-10
4.87622e-10
-7.57637e-10
4.83112e-10
-8.49196e-10
4.77983e-10
-9.39636e-10
4.72248e-10
-1.02884e-09
4.65917e-10
-1.1167e-09
4.59005e-10
-1.2031e-09
4.51524e-10
-1.28794e-09
4.43489e-10
-1.37111e-09
4.34918e-10
-1.45251e-09
4.25827e-10
-1.53204e-09
4.16234e-10
-1.60962e-09
4.06158e-10
-1.68515e-09
3.95617e-10
-1.75854e-09
3.84633e-10
-1.82973e-09
3.73227e-10
-1.89862e-09
3.61418e-10
-1.96515e-09
3.4923e-10
-2.02925e-09
3.36685e-10
-2.09086e-09
3.23804e-10
-2.14992e-09
3.10612e-10
-2.20637e-09
2.9713e-10
-2.26016e-09
2.83382e-10
-2.31126e-09
2.6939e-10
-2.35961e-09
2.55178e-10
-2.40518e-09
2.40768e-10
-2.44795e-09
2.26182e-10
-2.48788e-09
2.11445e-10
-2.52495e-09
1.96578e-10
-2.55914e-09
1.81603e-10
-2.59045e-09
1.66542e-10
-2.61885e-09
1.51417e-10
-2.64434e-09
1.36248e-10
-2.66692e-09
1.21056e-10
-2.68659e-09
1.0586e-10
-2.70337e-09
9.0679e-11
-2.71724e-09
7.55327e-11
-2.72824e-09
6.04398e-11
-2.73637e-09
4.54175e-11
-2.74165e-09
3.04827e-11
-2.74411e-09
1.56524e-11
-2.74377e-09
9.42303e-13
-2.74065e-09
-1.3635e-11
-2.73479e-09
-2.80655e-11
-2.72623e-09
-4.23357e-11
-2.71498e-09
-5.64319e-11
-2.70111e-09
-7.0342e-11
-2.68463e-09
-8.4055e-11
-2.6656e-09
-9.75594e-11
-2.64406e-09
-1.10845e-10
-2.62004e-09
-1.23902e-10
-2.59361e-09
-1.36723e-10
-2.56481e-09
-1.49298e-10
-2.53368e-09
-1.61621e-10
-2.50027e-09
-1.73685e-10
-2.46465e-09
-1.85482e-10
-2.42686e-09
-1.97008e-10
-2.38695e-09
-2.08256e-10
-2.34498e-09
-2.19221e-10
-2.30101e-09
-2.299e-10
-2.25509e-09
-2.40288e-10
-2.20727e-09
-2.50383e-10
-2.15761e-09
-2.60181e-10
-2.10617e-09
-2.69681e-10
-2.05301e-09
-2.78879e-10
-1.99819e-09
-2.87774e-10
-1.94176e-09
-2.96364e-10
-1.88378e-09
-3.04647e-10
-1.82431e-09
-3.12623e-10
-1.76341e-09
-3.20291e-10