/*--------------------------------*- C++ -*----------------------------------*\
| =========                 |                                                 |
| \\      /  F ield         | OpenFOAM: The Open Source CFD Toolbox           |
|  \\    /   O peration     | Version:  2412                                  |
|   \\  /    A nd           | Website:  www.openfoam.com                      |
|    \\/     M anipulation  |                                                 |
\*---------------------------------------------------------------------------*/
FoamFile
{
    version     2.0;
    format      ascii;
    arch        "LSB;label=32;scalar=64";
    class       volVectorField;
    location    "1.24";
    object      U;
}
// * * * * * * * * * * * * * * * * * * * * * * * * * * * * * * * * * * * * * //

dimensions      [0 1 -1 0 0 0 0];

internalField   nonuniform List<vector> 
40000
(
(2.87426e-06 -2.75054e-06 0)
(2.59634e-05 -6.57646e-06 0)
(5.90727e-05 -8.18614e-06 0)
(9.46805e-05 -8.77345e-06 0)
(0.000131189 -8.96593e-06 0)
(0.000167965 -9.01426e-06 0)
(0.000204733 -8.99227e-06 0)
(0.000241359 -8.93696e-06 0)
(0.00027778 -8.86618e-06 0)
(0.000313961 -8.78936e-06 0)
(0.000349874 -8.70953e-06 0)
(0.000385492 -8.62545e-06 0)
(0.000420788 -8.53544e-06 0)
(0.000455736 -8.4386e-06 0)
(0.000490312 -8.33468e-06 0)
(0.000524489 -8.22375e-06 0)
(0.000558239 -8.10579e-06 0)
(0.000591534 -7.98074e-06 0)
(0.000624346 -7.84853e-06 0)
(0.000656646 -7.7091e-06 0)
(0.000688406 -7.56243e-06 0)
(0.000719599 -7.40851e-06 0)
(0.000750196 -7.24733e-06 0)
(0.000780169 -7.07891e-06 0)
(0.000809491 -6.90336e-06 0)
(0.000838132 -6.72083e-06 0)
(0.000866064 -6.53151e-06 0)
(0.00089326 -6.33551e-06 0)
(0.000919692 -6.13293e-06 0)
(0.000945333 -5.92384e-06 0)
(0.000970156 -5.70832e-06 0)
(0.000994134 -5.4865e-06 0)
(0.00101724 -5.25857e-06 0)
(0.00103945 -5.02473e-06 0)
(0.00106074 -4.78516e-06 0)
(0.00108108 -4.54001e-06 0)
(0.00110044 -4.28938e-06 0)
(0.00111881 -4.03341e-06 0)
(0.00113615 -3.77224e-06 0)
(0.00115246 -3.5061e-06 0)
(0.00116769 -3.23526e-06 0)
(0.00118184 -2.96004e-06 0)
(0.00119487 -2.68072e-06 0)
(0.00120678 -2.3975e-06 0)
(0.00121753 -2.1106e-06 0)
(0.00122711 -1.82023e-06 0)
(0.0012355 -1.52668e-06 0)
(0.00124269 -1.23028e-06 0)
(0.00124866 -9.31339e-07 0)
(0.0012534 -6.30047e-07 0)
(0.00125688 -3.26368e-07 0)
(0.0012591 -1.97569e-08 0)
(0.00126005 2.90222e-07 0)
(0.0012597 5.99212e-07 0)
(0.00125805 9.13118e-07 0)
(0.00125509 1.22537e-06 0)
(0.00125082 1.53437e-06 0)
(0.00124524 1.84101e-06 0)
(0.00123835 2.14591e-06 0)
(0.00123015 2.44911e-06 0)
(0.00122065 2.75037e-06 0)
(0.00120983 3.04936e-06 0)
(0.00119771 3.34574e-06 0)
(0.0011843 3.63918e-06 0)
(0.00116959 3.92936e-06 0)
(0.0011536 4.21592e-06 0)
(0.00113635 4.49843e-06 0)
(0.00111783 4.77648e-06 0)
(0.00109807 5.04972e-06 0)
(0.00107708 5.31787e-06 0)
(0.00105488 5.58065e-06 0)
(0.00103149 5.83778e-06 0)
(0.00100693 6.08888e-06 0)
(0.000981222 6.33359e-06 0)
(0.000954393 6.57159e-06 0)
(0.000926468 6.80268e-06 0)
(0.000897475 7.02667e-06 0)
(0.000867443 7.24335e-06 0)
(0.000836405 7.45242e-06 0)
(0.000804393 7.65353e-06 0)
(0.00077144 7.84639e-06 0)
(0.000737582 8.03084e-06 0)
(0.000702857 8.20677e-06 0)
(0.000667304 8.37409e-06 0)
(0.000630962 8.53262e-06 0)
(0.000593874 8.68213e-06 0)
(0.00055608 8.82238e-06 0)
(0.000517625 8.9532e-06 0)
(0.000478553 9.07448e-06 0)
(0.000438909 9.18612e-06 0)
(0.00039874 9.28802e-06 0)
(0.000358095 9.3801e-06 0)
(0.00031702 9.46233e-06 0)
(0.000275565 9.53472e-06 0)
(0.000233781 9.59728e-06 0)
(0.000191716 9.64992e-06 0)
(0.000149421 9.69248e-06 0)
(0.000106947 9.72479e-06 0)
(6.43444e-05 9.74664e-06 0)
(2.16654e-05 9.75755e-06 0)
(-2.1039e-05 9.75741e-06 0)
(-6.37182e-05 9.74631e-06 0)
(-0.000106322 9.72454e-06 0)
(-0.000148797 9.69257e-06 0)
(-0.000191093 9.65047e-06 0)
(-0.000233159 9.59827e-06 0)
(-0.000274944 9.53596e-06 0)
(-0.000316399 9.46361e-06 0)
(-0.000357475 9.38126e-06 0)
(-0.000398122 9.28896e-06 0)
(-0.000438293 9.18683e-06 0)
(-0.00047794 9.07514e-06 0)
(-0.000517015 8.95406e-06 0)
(-0.000555473 8.82359e-06 0)
(-0.000593271 8.68379e-06 0)
(-0.000630364 8.53471e-06 0)
(-0.00066671 8.37642e-06 0)
(-0.000702269 8.20911e-06 0)
(-0.000736999 8.03306e-06 0)
(-0.000770863 7.84843e-06 0)
(-0.000803823 7.65544e-06 0)
(-0.000835843 7.45442e-06 0)
(-0.000866889 7.2457e-06 0)
(-0.000896927 7.02946e-06 0)
(-0.000925927 6.80569e-06 0)
(-0.00095386 6.57462e-06 0)
(-0.000980698 6.33662e-06 0)
(-0.00100641 6.09195e-06 0)
(-0.00103098 5.84092e-06 0)
(-0.00105438 5.58381e-06 0)
(-0.00107659 5.32097e-06 0)
(-0.00109759 5.05295e-06 0)
(-0.00111736 4.77999e-06 0)
(-0.00113589 4.5022e-06 0)
(-0.00115316 4.22e-06 0)
(-0.00116916 3.93388e-06 0)
(-0.00118388 3.64402e-06 0)
(-0.00119731 3.35055e-06 0)
(-0.00120944 3.05407e-06 0)
(-0.00122027 2.75513e-06 0)
(-0.00122979 2.45379e-06 0)
(-0.00123801 2.15046e-06 0)
(-0.00124491 1.84554e-06 0)
(-0.0012505 1.53875e-06 0)
(-0.00125478 1.22945e-06 0)
(-0.00125775 9.17038e-07 0)
(-0.00125942 6.03278e-07 0)
(-0.00125978 2.94423e-07 0)
(-0.00125884 -1.56371e-08 0)
(-0.00125663 -3.22261e-07 0)
(-0.00125316 -6.25584e-07 0)
(-0.00124844 -9.26464e-07 0)
(-0.00124249 -1.22526e-06 0)
(-0.00123532 -1.52129e-06 0)
(-0.00122694 -1.8142e-06 0)
(-0.00121738 -2.1042e-06 0)
(-0.00120664 -2.39118e-06 0)
(-0.00119476 -2.6747e-06 0)
(-0.00118174 -2.95418e-06 0)
(-0.00116762 -3.22952e-06 0)
(-0.0011524 -3.5007e-06 0)
(-0.00113612 -3.76705e-06 0)
(-0.00111879 -4.02806e-06 0)
(-0.00110044 -4.28384e-06 0)
(-0.00108109 -4.53446e-06 0)
(-0.00106077 -4.77954e-06 0)
(-0.0010395 -5.01902e-06 0)
(-0.00101731 -5.2529e-06 0)
(-0.000994226 -5.48076e-06 0)
(-0.000970269 -5.70233e-06 0)
(-0.000945466 -5.91785e-06 0)
(-0.000919845 -6.12715e-06 0)
(-0.000893434 -6.32953e-06 0)
(-0.000866261 -6.52489e-06 0)
(-0.000838353 -6.71326e-06 0)
(-0.000809741 -6.89458e-06 0)
(-0.000780451 -7.06882e-06 0)
(-0.000750512 -7.23628e-06 0)
(-0.000719952 -7.39746e-06 0)
(-0.000688798 -7.55163e-06 0)
(-0.000657076 -7.69826e-06 0)
(-0.000624816 -7.83738e-06 0)
(-0.000592048 -7.96904e-06 0)
(-0.000558801 -8.09289e-06 0)
(-0.000525104 -8.20865e-06 0)
(-0.000490988 -8.31732e-06 0)
(-0.00045648 -8.41844e-06 0)
(-0.000421608 -8.51153e-06 0)
(-0.000386402 -8.59765e-06 0)
(-0.00035089 -8.67657e-06 0)
(-0.0003151 -8.74738e-06 0)
(-0.000279061 -8.80979e-06 0)
(-0.000242804 -8.86371e-06 0)
(-0.000206359 -8.90808e-06 0)
(-0.000169764 -8.93913e-06 0)
(-0.000133059 -8.94331e-06 0)
(-9.63317e-05 -8.86631e-06 0)
(-6.00249e-05 -8.47063e-06 0)
(-2.60647e-05 -6.96377e-06 0)
(-2.74605e-06 -2.82703e-06 0)
(7.08688e-06 -2.6142e-05 0)
(5.53892e-05 -5.41217e-05 0)
(0.000117486 -6.34988e-05 0)
(0.000182836 -6.62801e-05 0)
(0.000248933 -6.71701e-05 0)
(0.000315199 -6.73775e-05 0)
(0.000381427 -6.72516e-05 0)
(0.00044747 -6.69512e-05 0)
(0.000513222 -6.65518e-05 0)
(0.000578609 -6.60893e-05 0)
(0.000643569 -6.55782e-05 0)
(0.00070805 -6.50217e-05 0)
(0.000771997 -6.4419e-05 0)
(0.000835359 -6.37684e-05 0)
(0.000898086 -6.30689e-05 0)
(0.00096013 -6.23197e-05 0)
(0.00102144 -6.15205e-05 0)
(0.00108197 -6.0671e-05 0)
(0.00114166 -5.97708e-05 0)
(0.00120047 -5.88196e-05 0)
(0.00125835 -5.78171e-05 0)
(0.00131524 -5.67631e-05 0)
(0.0013711 -5.56573e-05 0)
(0.00142588 -5.45e-05 0)
(0.00147952 -5.32912e-05 0)
(0.00153198 -5.20315e-05 0)
(0.0015832 -5.07211e-05 0)
(0.00163314 -4.93604e-05 0)
(0.00168175 -4.79498e-05 0)
(0.00172896 -4.64894e-05 0)
(0.00177475 -4.49798e-05 0)
(0.00181905 -4.34213e-05 0)
(0.00186182 -4.18145e-05 0)
(0.00190301 -4.01601e-05 0)
(0.00194257 -3.84586e-05 0)
(0.00198046 -3.67108e-05 0)
(0.00201662 -3.49172e-05 0)
(0.00205102 -3.30786e-05 0)
(0.0020836 -3.1196e-05 0)
(0.00211432 -2.92704e-05 0)
(0.00214314 -2.7303e-05 0)
(0.00217002 -2.52952e-05 0)
(0.00219491 -2.3248e-05 0)
(0.00221776 -2.11628e-05 0)
(0.00223855 -1.9041e-05 0)
(0.00225724 -1.68841e-05 0)
(0.00227378 -1.46939e-05 0)
(0.00228815 -1.24723e-05 0)
(0.0023003 -1.02211e-05 0)
(0.00231021 -7.94199e-06 0)
(0.00231785 -5.63634e-06 0)
(0.00232319 -3.30482e-06 0)
(0.0023262 -9.47102e-07 0)
(0.00232687 1.43369e-06 0)
(0.00232516 3.83477e-06 0)
(0.00232105 6.24348e-06 0)
(0.00231455 8.65622e-06 0)
(0.00230562 1.1073e-05 0)
(0.00229426 1.34933e-05 0)
(0.00228046 1.59152e-05 0)
(0.00226423 1.83362e-05 0)
(0.00224554 2.07534e-05 0)
(0.00222441 2.31638e-05 0)
(0.00220084 2.55645e-05 0)
(0.00217484 2.79523e-05 0)
(0.00214642 3.03241e-05 0)
(0.00211559 3.26764e-05 0)
(0.00208236 3.50058e-05 0)
(0.00204676 3.7309e-05 0)
(0.00200882 3.95827e-05 0)
(0.00196856 4.18237e-05 0)
(0.00192601 4.40287e-05 0)
(0.00188121 4.61944e-05 0)
(0.0018342 4.83173e-05 0)
(0.00178502 5.03943e-05 0)
(0.0017337 5.24223e-05 0)
(0.00168032 5.43982e-05 0)
(0.00162491 5.63189e-05 0)
(0.00156753 5.81811e-05 0)
(0.00150825 5.99816e-05 0)
(0.00144712 6.17173e-05 0)
(0.00138421 6.33857e-05 0)
(0.0013196 6.49841e-05 0)
(0.00125335 6.65098e-05 0)
(0.00118554 6.79602e-05 0)
(0.00111625 6.93326e-05 0)
(0.00104557 7.06245e-05 0)
(0.000973569 7.18336e-05 0)
(0.000900341 7.29582e-05 0)
(0.000825975 7.39962e-05 0)
(0.000750561 7.4946e-05 0)
(0.000674195 7.5806e-05 0)
(0.00059697 7.65748e-05 0)
(0.000518985 7.72511e-05 0)
(0.000440337 7.78338e-05 0)
(0.000361128 7.83216e-05 0)
(0.000281456 7.87136e-05 0)
(0.000201424 7.90087e-05 0)
(0.000121133 7.9206e-05 0)
(4.06889e-05 7.93048e-05 0)
(-3.98084e-05 7.93048e-05 0)
(-0.000120253 7.92062e-05 0)
(-0.000200544 7.90094e-05 0)
(-0.000280577 7.87152e-05 0)
(-0.000360251 7.83243e-05 0)
(-0.000439462 7.78375e-05 0)
(-0.000518111 7.72557e-05 0)
(-0.000596098 7.65798e-05 0)
(-0.000673325 7.58111e-05 0)
(-0.000749695 7.49512e-05 0)
(-0.000825111 7.40014e-05 0)
(-0.000899481 7.29638e-05 0)
(-0.000972713 7.18401e-05 0)
(-0.00104472 7.06319e-05 0)
(-0.00111541 6.93409e-05 0)
(-0.0011847 6.79693e-05 0)
(-0.00125252 6.65195e-05 0)
(-0.00131877 6.4994e-05 0)
(-0.00138339 6.33957e-05 0)
(-0.00144631 6.17273e-05 0)
(-0.00150745 5.99918e-05 0)
(-0.00156674 5.81921e-05 0)
(-0.00162413 5.63312e-05 0)
(-0.00167955 5.44119e-05 0)
(-0.00173294 5.24369e-05 0)
(-0.00178427 5.04093e-05 0)
(-0.00183346 4.83325e-05 0)
(-0.00188049 4.62098e-05 0)
(-0.0019253 4.40446e-05 0)
(-0.00196786 4.18401e-05 0)
(-0.00200814 3.95997e-05 0)
(-0.00204609 3.73271e-05 0)
(-0.0020817 3.50253e-05 0)
(-0.00211494 3.26973e-05 0)
(-0.00214579 3.03461e-05 0)
(-0.00217423 2.79758e-05 0)
(-0.00220025 2.55892e-05 0)
(-0.00222383 2.31889e-05 0)
(-0.00224498 2.07784e-05 0)
(-0.00226368 1.83614e-05 0)
(-0.00227994 1.59405e-05 0)
(-0.00229375 1.35181e-05 0)
(-0.00230513 1.10969e-05 0)
(-0.00231407 8.6791e-06 0)
(-0.0023206 6.26536e-06 0)
(-0.00232472 3.85581e-06 0)
(-0.00232644 1.45433e-06 0)
(-0.00232579 -9.2632e-07 0)
(-0.0023228 -3.28344e-06 0)
(-0.00231748 -5.61387e-06 0)
(-0.00230986 -7.91789e-06 0)
(-0.00229996 -1.01949e-05 0)
(-0.00228783 -1.2444e-05 0)
(-0.00227349 -1.46633e-05 0)
(-0.00225696 -1.68512e-05 0)
(-0.0022383 -1.90069e-05 0)
(-0.00221753 -2.11286e-05 0)
(-0.0021947 -2.32144e-05 0)
(-0.00216984 -2.52625e-05 0)
(-0.00214298 -2.72712e-05 0)
(-0.00211419 -2.92393e-05 0)
(-0.00208349 -3.11649e-05 0)
(-0.00205093 -3.30468e-05 0)
(-0.00201655 -3.48843e-05 0)
(-0.00198041 -3.66769e-05 0)
(-0.00194255 -3.84237e-05 0)
(-0.00190301 -4.01243e-05 0)
(-0.00186184 -4.17781e-05 0)
(-0.0018191 -4.3384e-05 0)
(-0.00177482 -4.49416e-05 0)
(-0.00172906 -4.64507e-05 0)
(-0.00168187 -4.79104e-05 0)
(-0.00163329 -4.9319e-05 0)
(-0.00158338 -5.06762e-05 0)
(-0.00153219 -5.19817e-05 0)
(-0.00147976 -5.32353e-05 0)
(-0.00142615 -5.44379e-05 0)
(-0.00137142 -5.55905e-05 0)
(-0.0013156 -5.66935e-05 0)
(-0.00125874 -5.77454e-05 0)
(-0.00120091 -5.87452e-05 0)
(-0.00114214 -5.96931e-05 0)
(-0.00108249 -6.0588e-05 0)
(-0.00102202 -6.14292e-05 0)
(-0.000960759 -6.22172e-05 0)
(-0.000898772 -6.29533e-05 0)
(-0.000836106 -6.36372e-05 0)
(-0.000772811 -6.42693e-05 0)
(-0.000708937 -6.48516e-05 0)
(-0.000644533 -6.53825e-05 0)
(-0.000579649 -6.58606e-05 0)
(-0.000514333 -6.62856e-05 0)
(-0.000448637 -6.66557e-05 0)
(-0.00038261 -6.69697e-05 0)
(-0.000316304 -6.72172e-05 0)
(-0.000249767 -6.73415e-05 0)
(-0.000183082 -6.70246e-05 0)
(-0.000116862 -6.47415e-05 0)
(-5.4318e-05 -5.50272e-05 0)
(-6.64561e-06 -2.59046e-05 0)
(8.30495e-06 -6.01452e-05 0)
(6.47029e-05 -0.000116893 0)
(0.000135703 -0.000133769 0)
(0.000210004 -0.000137963 0)
(0.000284601 -0.000139074 0)
(0.000359094 -0.000139275 0)
(0.000433449 -0.000139029 0)
(0.000507595 -0.000138509 0)
(0.000581445 -0.000137801 0)
(0.000654917 -0.00013695 0)
(0.000727941 -0.000135976 0)
(0.000800453 -0.000134892 0)
(0.000872389 -0.000133702 0)
(0.000943692 -0.000132408 0)
(0.0010143 -0.000131009 0)
(0.00108416 -0.000129505 0)
(0.00115321 -0.000127896 0)
(0.0012214 -0.000126182 0)
(0.00128868 -0.000124362 0)
(0.00135497 -0.000122437 0)
(0.00142023 -0.000120406 0)
(0.00148441 -0.000118269 0)
(0.00154744 -0.000116025 0)
(0.00160926 -0.000113675 0)
(0.00166984 -0.000111218 0)
(0.00172909 -0.000108657 0)
(0.00178698 -0.00010599 0)
(0.00184344 -0.000103218 0)
(0.00189842 -0.000100342 0)
(0.00195186 -9.73619e-05 0)
(0.0020037 -9.42788e-05 0)
(0.00205389 -9.10934e-05 0)
(0.00210238 -8.78065e-05 0)
(0.00214911 -8.4419e-05 0)
(0.00219402 -8.09318e-05 0)
(0.00223706 -7.73462e-05 0)
(0.00227818 -7.36633e-05 0)
(0.00231733 -6.98847e-05 0)
(0.00235444 -6.60123e-05 0)
(0.00238948 -6.20481e-05 0)
(0.0024224 -5.79942e-05 0)
(0.00245313 -5.38527e-05 0)
(0.00248163 -4.9626e-05 0)
(0.00250786 -4.53164e-05 0)
(0.00253177 -4.09268e-05 0)
(0.00255332 -3.64603e-05 0)
(0.00257246 -3.19204e-05 0)
(0.00258916 -2.73106e-05 0)
(0.00260337 -2.26346e-05 0)
(0.00261505 -1.7896e-05 0)
(0.00262417 -1.30985e-05 0)
(0.0026307 -8.24567e-06 0)
(0.00263461 -3.34085e-06 0)
(0.00263588 1.6139e-06 0)
(0.00263448 6.60672e-06 0)
(0.00263039 1.163e-05 0)
(0.00262358 1.66791e-05 0)
(0.00261403 2.17497e-05 0)
(0.00260172 2.68372e-05 0)
(0.00258665 3.19359e-05 0)
(0.0025688 3.70399e-05 0)
(0.00254817 4.21429e-05 0)
(0.00252476 4.72385e-05 0)
(0.00249856 5.23202e-05 0)
(0.00246959 5.73812e-05 0)
(0.00243786 6.24147e-05 0)
(0.00240337 6.74133e-05 0)
(0.00236614 7.23699e-05 0)
(0.0023262 7.72772e-05 0)
(0.00228357 8.2128e-05 0)
(0.00223828 8.69151e-05 0)
(0.00219036 9.16311e-05 0)
(0.00213986 9.62685e-05 0)
(0.0020868 0.00010082 0)
(0.00203125 0.000105279 0)
(0.00197325 0.000109637 0)
(0.00191285 0.000113888 0)
(0.00185011 0.000118024 0)
(0.00178511 0.000122038 0)
(0.0017179 0.000125923 0)
(0.00164855 0.000129673 0)
(0.00157715 0.00013328 0)
(0.00150376 0.000136739 0)
(0.00142848 0.000140044 0)
(0.0013514 0.000143187 0)
(0.00127259 0.000146164 0)
(0.00119216 0.000148967 0)
(0.0011102 0.000151593 0)
(0.00102681 0.000154037 0)
(0.000942096 0.000156294 0)
(0.000856164 0.00015836 0)
(0.00076912 0.000160231 0)
(0.000681077 0.000161904 0)
(0.000592146 0.000163375 0)
(0.000502443 0.000164641 0)
(0.000412083 0.0001657 0)
(0.000321183 0.00016655 0)
(0.000229862 0.000167189 0)
(0.00013824 0.000167615 0)
(4.64372e-05 0.000167828 0)
(-4.5429e-05 0.000167828 0)
(-0.000137232 0.000167616 0)
(-0.000228854 0.000167191 0)
(-0.000320176 0.000166553 0)
(-0.000411078 0.000165705 0)
(-0.00050144 0.000164647 0)
(-0.000591145 0.000163381 0)
(-0.000680078 0.000161911 0)
(-0.000768124 0.000160239 0)
(-0.000855171 0.000158369 0)
(-0.000941106 0.000156304 0)
(-0.00102582 0.000154048 0)
(-0.00110921 0.000151606 0)
(-0.00119118 0.000148981 0)
(-0.00127162 0.000146178 0)
(-0.00135043 0.000143202 0)
(-0.00142752 0.00014006 0)
(-0.00150281 0.000136756 0)
(-0.0015762 0.000133298 0)
(-0.00164761 0.000129691 0)
(-0.00171697 0.000125942 0)
(-0.00178419 0.000122059 0)
(-0.0018492 0.000118046 0)
(-0.00191195 0.000113912 0)
(-0.00197236 0.000109662 0)
(-0.00203037 0.000105304 0)
(-0.00208593 0.000100846 0)
(-0.002139 9.62952e-05 0)
(-0.00218952 9.16586e-05 0)
(-0.00223745 8.69438e-05 0)
(-0.00228275 8.21582e-05 0)
(-0.00232539 7.7309e-05 0)
(-0.00236535 7.24035e-05 0)
(-0.00240259 6.74487e-05 0)
(-0.00243709 6.24514e-05 0)
(-0.00246884 5.74194e-05 0)
(-0.00249783 5.23598e-05 0)
(-0.00252404 4.7279e-05 0)
(-0.00254746 4.21834e-05 0)
(-0.00256811 3.70807e-05 0)
(-0.00258597 3.19773e-05 0)
(-0.00260106 2.68783e-05 0)
(-0.00261338 2.17897e-05 0)
(-0.00262294 1.67179e-05 0)
(-0.00262977 1.16682e-05 0)
(-0.00263388 6.64407e-06 0)
(-0.00263529 1.65035e-06 0)
(-0.00263404 -3.30449e-06 0)
(-0.00263015 -8.20818e-06 0)
(-0.00262363 -1.30593e-05 0)
(-0.00261452 -1.78552e-05 0)
(-0.00260286 -2.25916e-05 0)
(-0.00258867 -2.72647e-05 0)
(-0.00257199 -3.18715e-05 0)
(-0.00255287 -3.64091e-05 0)
(-0.00253134 -4.08744e-05 0)
(-0.00250744 -4.52635e-05 0)
(-0.00248123 -4.95732e-05 0)
(-0.00245274 -5.38011e-05 0)
(-0.00242202 -5.79435e-05 0)
(-0.00238913 -6.19976e-05 0)
(-0.00235411 -6.59613e-05 0)
(-0.00231701 -6.98328e-05 0)
(-0.00227788 -7.361e-05 0)
(-0.00223678 -7.72916e-05 0)
(-0.00219375 -8.08764e-05 0)
(-0.00214886 -8.43628e-05 0)
(-0.00210215 -8.77495e-05 0)
(-0.00205368 -9.10355e-05 0)
(-0.0020035 -9.42201e-05 0)
(-0.00195167 -9.73021e-05 0)
(-0.00189825 -0.000100281 0)
(-0.00184329 -0.000103154 0)
(-0.00178685 -0.000105922 0)
(-0.00172898 -0.000108584 0)
(-0.00166974 -0.000111139 0)
(-0.00160919 -0.000113589 0)
(-0.00154738 -0.000115934 0)
(-0.00148437 -0.000118174 0)
(-0.00142022 -0.000120309 0)
(-0.00135497 -0.000122337 0)
(-0.0012887 -0.000124259 0)
(-0.00122145 -0.000126073 0)
(-0.00115328 -0.000127778 0)
(-0.00108424 -0.000129378 0)
(-0.0010144 -0.000130869 0)
(-0.000943795 -0.000132255 0)
(-0.000872499 -0.000133536 0)
(-0.000800561 -0.000134714 0)
(-0.000728037 -0.000135786 0)
(-0.00065498 -0.000136753 0)
(-0.000581447 -0.000137614 0)
(-0.00050749 -0.000138367 0)
(-0.000433168 -0.000139012 0)
(-0.000358535 -0.000139537 0)
(-0.000283647 -0.000139851 0)
(-0.000208587 -0.000139391 0)
(-0.000134008 -0.000135355 0)
(-6.3461e-05 -0.000117231 0)
(-8.02568e-06 -5.90111e-05 0)
(8.46327e-06 -9.61715e-05 0)
(6.63503e-05 -0.000183595 0)
(0.000139427 -0.000208729 0)
(0.00021612 -0.000214313 0)
(0.000292965 -0.000215397 0)
(0.000369523 -0.00021539 0)
(0.00044582 -0.000214908 0)
(0.000521846 -0.000214104 0)
(0.000597549 -0.00021305 0)
(0.000672862 -0.000211785 0)
(0.00074772 -0.00021033 0)
(0.000822059 -0.0002087 0)
(0.000895816 -0.0002069 0)
(0.000968932 -0.000204935 0)
(0.00104135 -0.000202806 0)
(0.001113 -0.000200514 0)
(0.00118384 -0.000198058 0)
(0.00125379 -0.00019544 0)
(0.00132282 -0.000192658 0)
(0.00139085 -0.000189713 0)
(0.00145783 -0.000186604 0)
(0.0015237 -0.000183331 0)
(0.0015884 -0.000179893 0)
(0.00165189 -0.000176292 0)
(0.00171409 -0.000172528 0)
(0.00177495 -0.0001686 0)
(0.00183441 -0.000164509 0)
(0.00189242 -0.000160256 0)
(0.00194892 -0.000155841 0)
(0.00200385 -0.000151265 0)
(0.00205715 -0.000146528 0)
(0.00210876 -0.000141633 0)
(0.00215864 -0.00013658 0)
(0.00220671 -0.000131369 0)
(0.00225293 -0.000126004 0)
(0.00229724 -0.000120484 0)
(0.00233959 -0.000114812 0)
(0.00237992 -0.000108991 0)
(0.00241817 -0.000103023 0)
(0.0024543 -9.69116e-05 0)
(0.00248825 -9.06586e-05 0)
(0.00251997 -8.42677e-05 0)
(0.00254941 -7.77424e-05 0)
(0.00257653 -7.10865e-05 0)
(0.00260127 -6.43042e-05 0)
(0.00262358 -5.74002e-05 0)
(0.00264343 -5.03796e-05 0)
(0.00266078 -4.32477e-05 0)
(0.00267557 -3.60098e-05 0)
(0.00268777 -2.86718e-05 0)
(0.00269735 -2.12396e-05 0)
(0.00270427 -1.37199e-05 0)
(0.0027085 -6.12024e-06 0)
(0.00271 1.55209e-06 0)
(0.00270877 9.2884e-06 0)
(0.00270476 1.70822e-05 0)
(0.00269795 2.49259e-05 0)
(0.00268833 3.28107e-05 0)
(0.00267588 4.07275e-05 0)
(0.00266058 4.8667e-05 0)
(0.00264242 5.66195e-05 0)
(0.00262139 6.45751e-05 0)
(0.0025975 7.25238e-05 0)
(0.00257075 8.04554e-05 0)
(0.00254113 8.83591e-05 0)
(0.00250866 9.6224e-05 0)
(0.00247335 0.000104039 0)
(0.00243522 0.000111792 0)
(0.00239429 0.000119473 0)
(0.00235058 0.000127071 0)
(0.00230413 0.000134572 0)
(0.00225496 0.000141966 0)
(0.00220312 0.000149241 0)
(0.00214865 0.000156385 0)
(0.00209159 0.000163387 0)
(0.002032 0.000170235 0)
(0.00196993 0.000176917 0)
(0.00190544 0.000183421 0)
(0.0018386 0.000189737 0)
(0.00176948 0.000195853 0)
(0.00169815 0.000201758 0)
(0.00162469 0.000207442 0)
(0.00154918 0.000212894 0)
(0.0014717 0.000218104 0)
(0.00139235 0.000223061 0)
(0.00131122 0.000227757 0)
(0.0012284 0.000232182 0)
(0.00114399 0.000236329 0)
(0.00105811 0.000240188 0)
(0.000970848 0.000243754 0)
(0.000882324 0.000247018 0)
(0.000792646 0.000249975 0)
(0.00070193 0.000252618 0)
(0.000610292 0.000254943 0)
(0.000517853 0.000256943 0)
(0.000424731 0.000258617 0)
(0.000331048 0.000259958 0)
(0.000236929 0.000260967 0)
(0.000142496 0.000261639 0)
(4.78771e-05 0.000261976 0)
(-4.68074e-05 0.000261977 0)
(-0.000141426 0.000261642 0)
(-0.000235859 0.00026097 0)
(-0.00032998 0.000259963 0)
(-0.000423664 0.000258622 0)
(-0.000516788 0.00025695 0)
(-0.000609231 0.000254951 0)
(-0.00070087 0.000252628 0)
(-0.000791589 0.000249986 0)
(-0.000881269 0.000247031 0)
(-0.000969797 0.000243769 0)
(-0.00105706 0.000240205 0)
(-0.00114295 0.000236347 0)
(-0.00122736 0.000232202 0)
(-0.00131018 0.000227777 0)
(-0.00139132 0.000223082 0)
(-0.00147068 0.000218126 0)
(-0.00154816 0.000212918 0)
(-0.00162368 0.000207468 0)
(-0.00169715 0.000201786 0)
(-0.00176849 0.000195882 0)
(-0.00183762 0.000189768 0)
(-0.00190447 0.000183454 0)
(-0.00196896 0.00017695 0)
(-0.00203104 0.00017027 0)
(-0.00209065 0.000163423 0)
(-0.00214771 0.000156422 0)
(-0.0022022 0.000149279 0)
(-0.00225405 0.000142006 0)
(-0.00230323 0.000134613 0)
(-0.00234969 0.000127114 0)
(-0.00239341 0.000119518 0)
(-0.00243436 0.000111839 0)
(-0.0024725 0.000104086 0)
(-0.00250782 9.6273e-05 0)
(-0.0025403 8.84095e-05 0)
(-0.00256993 8.05073e-05 0)
(-0.0025967 7.2577e-05 0)
(-0.0026206 6.46291e-05 0)
(-0.00264164 5.6674e-05 0)
(-0.00265981 4.87221e-05 0)
(-0.00267513 4.07827e-05 0)
(-0.00268759 3.28653e-05 0)
(-0.00269723 2.49797e-05 0)
(-0.00270405 1.71357e-05 0)
(-0.00270807 9.34134e-06 0)
(-0.00270932 1.60434e-06 0)
(-0.00270783 -6.06803e-06 0)
(-0.00270362 -1.36667e-05 0)
(-0.00269672 -2.11848e-05 0)
(-0.00268715 -2.86156e-05 0)
(-0.00267496 -3.59519e-05 0)
(-0.00266018 -4.31871e-05 0)
(-0.00264286 -5.03167e-05 0)
(-0.00262302 -5.73355e-05 0)
(-0.00260072 -6.42383e-05 0)
(-0.00257599 -7.10198e-05 0)
(-0.00254889 -7.76753e-05 0)
(-0.00251946 -8.42011e-05 0)
(-0.00248775 -9.05923e-05 0)
(-0.00245382 -9.6845e-05 0)
(-0.0024177 -0.000102956 0)
(-0.00237946 -0.000108924 0)
(-0.00233915 -0.000114744 0)
(-0.00229682 -0.000120414 0)
(-0.00225252 -0.000125933 0)
(-0.00220631 -0.000131298 0)
(-0.00215825 -0.000136508 0)
(-0.00210838 -0.00014156 0)
(-0.00205678 -0.000146455 0)
(-0.00200349 -0.00015119 0)
(-0.00194858 -0.000155765 0)
(-0.00189209 -0.000160178 0)
(-0.00183409 -0.000164428 0)
(-0.00177464 -0.000168514 0)
(-0.00171379 -0.000172437 0)
(-0.0016516 -0.000176196 0)
(-0.00158812 -0.000179793 0)
(-0.00152342 -0.000183226 0)
(-0.00145756 -0.000186497 0)
(-0.00139058 -0.000189604 0)
(-0.00132256 -0.000192547 0)
(-0.00125354 -0.000195325 0)
(-0.00118358 -0.000197939 0)
(-0.00111274 -0.000200389 0)
(-0.00104107 -0.000202675 0)
(-0.000968637 -0.000204799 0)
(-0.000895494 -0.000206762 0)
(-0.000821697 -0.000208564 0)
(-0.000747302 -0.000210205 0)
(-0.000672366 -0.000211684 0)
(-0.000596943 -0.000213 0)
(-0.00052109 -0.000214155 0)
(-0.000444863 -0.000215145 0)
(-0.00036832 -0.000215955 0)
(-0.000291517 -0.000216454 0)
(-0.000214537 -0.000215814 0)
(-0.000138037 -0.000209909 0)
(-6.56917e-05 -0.000182997 0)
(-8.39229e-06 -9.43341e-05 0)
(8.47464e-06 -0.000132147 0)
(6.63742e-05 -0.000250536 0)
(0.000139768 -0.00028444 0)
(0.000217126 -0.000291604 0)
(0.000294708 -0.00029263 0)
(0.000371958 -0.000292331 0)
(0.00044888 -0.000291543 0)
(0.000525476 -0.000290408 0)
(0.000601712 -0.000288976 0)
(0.000677539 -0.000287278 0)
(0.000752899 -0.000285331 0)
(0.000827732 -0.000283147 0)
(0.00090198 -0.000280733 0)
(0.000975583 -0.000278094 0)
(0.00104848 -0.000275231 0)
(0.00112062 -0.000272147 0)
(0.00119194 -0.00026884 0)
(0.00126238 -0.000265313 0)
(0.00133188 -0.000261564 0)
(0.00140038 -0.000257593 0)
(0.00146784 -0.000253401 0)
(0.00153418 -0.000248987 0)
(0.00159935 -0.000244351 0)
(0.0016633 -0.000239493 0)
(0.00172596 -0.000234413 0)
(0.00178728 -0.000229112 0)
(0.0018472 -0.00022359 0)
(0.00190565 -0.000217848 0)
(0.00196259 -0.000211886 0)
(0.00201796 -0.000205705 0)
(0.00207168 -0.000199307 0)
(0.00212372 -0.000192692 0)
(0.00217401 -0.000185861 0)
(0.0022225 -0.000178817 0)
(0.00226912 -0.000171561 0)
(0.00231382 -0.000164096 0)
(0.00235655 -0.000156423 0)
(0.00239725 -0.000148547 0)
(0.00243587 -0.00014047 0)
(0.00247235 -0.000132196 0)
(0.00250665 -0.000123728 0)
(0.0025387 -0.000115072 0)
(0.00256845 -0.000106232 0)
(0.00259587 -9.72125e-05 0)
(0.0026209 -8.80197e-05 0)
(0.00264349 -7.86597e-05 0)
(0.0026636 -6.91391e-05 0)
(0.00268118 -5.94647e-05 0)
(0.0026962 -4.96439e-05 0)
(0.00270862 -3.96844e-05 0)
(0.00271839 -2.95946e-05 0)
(0.00272548 -1.93837e-05 0)
(0.00272985 -9.06196e-06 0)
(0.00273148 1.36004e-06 0)
(0.00273035 1.18735e-05 0)
(0.00272641 2.24698e-05 0)
(0.00271965 3.31383e-05 0)
(0.00271005 4.38669e-05 0)
(0.00269759 5.46429e-05 0)
(0.00268226 6.54534e-05 0)
(0.00266405 7.62852e-05 0)
(0.00264295 8.7125e-05 0)
(0.00261896 9.7959e-05 0)
(0.00259207 0.000108773 0)
(0.0025623 0.000119552 0)
(0.00252965 0.000130282 0)
(0.00249414 0.000140947 0)
(0.00245577 0.000151532 0)
(0.00241457 0.000162022 0)
(0.00237058 0.0001724 0)
(0.0023238 0.000182652 0)
(0.00227429 0.00019276 0)
(0.00222207 0.000202708 0)
(0.0021672 0.00021248 0)
(0.00210971 0.000222061 0)
(0.00204966 0.000231433 0)
(0.00198711 0.000240581 0)
(0.00192212 0.000249488 0)
(0.00185474 0.00025814 0)
(0.00178506 0.000266521 0)
(0.00171315 0.000274615 0)
(0.00163908 0.000282407 0)
(0.00156293 0.000289883 0)
(0.0014848 0.000297028 0)
(0.00140477 0.000303829 0)
(0.00132294 0.000310273 0)
(0.0012394 0.000316347 0)
(0.00115426 0.00032204 0)
(0.00106763 0.00032734 0)
(0.000979597 0.000332238 0)
(0.000890287 0.000336722 0)
(0.000799811 0.000340784 0)
(0.000708283 0.000344417 0)
(0.000615823 0.000347611 0)
(0.000522551 0.000350361 0)
(0.000428588 0.000352662 0)
(0.000334057 0.000354507 0)
(0.000239085 0.000355894 0)
(0.000143796 0.00035682 0)
(4.8318e-05 0.000357284 0)
(-4.72259e-05 0.000357285 0)
(-0.000142704 0.000356823 0)
(-0.000237994 0.000355899 0)
(-0.000332968 0.000354513 0)
(-0.0004275 0.000352669 0)
(-0.000521465 0.00035037 0)
(-0.000614739 0.000347622 0)
(-0.000707202 0.000344429 0)
(-0.000798731 0.000340799 0)
(-0.000889211 0.000336739 0)
(-0.000978523 0.000332257 0)
(-0.00106656 0.000327362 0)
(-0.0011532 0.000322064 0)
(-0.00123834 0.000316372 0)
(-0.00132188 0.0003103 0)
(-0.00140372 0.000303857 0)
(-0.00148376 0.000297058 0)
(-0.00156189 0.000289914 0)
(-0.00163805 0.000282441 0)
(-0.00171212 0.000274651 0)
(-0.00178405 0.000266559 0)
(-0.00185374 0.00025818 0)
(-0.00192112 0.00024953 0)
(-0.00198612 0.000240624 0)
(-0.00204869 0.000231477 0)
(-0.00210874 0.000222107 0)
(-0.00216624 0.000212528 0)
(-0.00222113 0.000202758 0)
(-0.00227335 0.000192812 0)
(-0.00232288 0.000182706 0)
(-0.00236966 0.000172457 0)
(-0.00241367 0.00016208 0)
(-0.00245488 0.000151591 0)
(-0.00249326 0.000141007 0)
(-0.00252878 0.000130343 0)
(-0.00256145 0.000119614 0)
(-0.00259123 0.000108836 0)
(-0.00261813 9.80238e-05 0)
(-0.00264213 8.71913e-05 0)
(-0.00266325 7.63525e-05 0)
(-0.00268147 6.55211e-05 0)
(-0.00269681 5.47109e-05 0)
(-0.00270928 4.39352e-05 0)
(-0.00271889 3.32068e-05 0)
(-0.00272567 2.25381e-05 0)
(-0.00272962 1.19416e-05 0)
(-0.00273077 1.42792e-06 0)
(-0.00272915 -8.99383e-06 0)
(-0.00272479 -1.9315e-05 0)
(-0.00271772 -2.9525e-05 0)
(-0.00270796 -3.96136e-05 0)
(-0.00269556 -4.95718e-05 0)
(-0.00268056 -5.9391e-05 0)
(-0.00266298 -6.9064e-05 0)
(-0.00264289 -7.85835e-05 0)
(-0.00262031 -8.79422e-05 0)
(-0.00259529 -9.7134e-05 0)
(-0.00256789 -0.000106153 0)
(-0.00253814 -0.000114993 0)
(-0.0025061 -0.000123649 0)
(-0.00247182 -0.000132115 0)
(-0.00243536 -0.000140389 0)
(-0.00239675 -0.000148466 0)
(-0.00235606 -0.000156341 0)
(-0.00231334 -0.000164013 0)
(-0.00226865 -0.000171477 0)
(-0.00222204 -0.000178732 0)
(-0.00217357 -0.000185776 0)
(-0.00212329 -0.000192606 0)
(-0.00207126 -0.000199221 0)
(-0.00201754 -0.000205619 0)
(-0.00196218 -0.000211798 0)
(-0.00190525 -0.000217759 0)
(-0.00184681 -0.0002235 0)
(-0.0017869 -0.000229018 0)
(-0.00172559 -0.000234315 0)
(-0.00166293 -0.000239392 0)
(-0.00159899 -0.000244246 0)
(-0.00153382 -0.00024888 0)
(-0.00146748 -0.000253293 0)
(-0.00140002 -0.000257485 0)
(-0.00133152 -0.000261454 0)
(-0.00126201 -0.000265203 0)
(-0.00119157 -0.00026873 0)
(-0.00112024 -0.000272035 0)
(-0.00104808 -0.000275121 0)
(-0.000975154 -0.000277988 0)
(-0.000901516 -0.000280637 0)
(-0.000827223 -0.000283068 0)
(-0.000752331 -0.00028528 0)
(-0.000676895 -0.000287275 0)
(-0.000600971 -0.000289051 0)
(-0.000524616 -0.000290609 0)
(-0.000447887 -0.000291948 0)
(-0.000370841 -0.000293046 0)
(-0.000293536 -0.000293731 0)
(-0.000216052 -0.000292914 0)
(-0.00013905 -0.000285136 0)
(-6.62564e-05 -0.000249392 0)
(-8.4961e-06 -0.000130135 0)
(8.47952e-06 -0.000168008 0)
(6.63616e-05 -0.000317366 0)
(0.000139816 -0.000360296 0)
(0.000217451 -0.000369224 0)
(0.000295415 -0.000370249 0)
(0.000373074 -0.000369644 0)
(0.00045039 -0.000368514 0)
(0.000527353 -0.000367017 0)
(0.000603932 -0.000365186 0)
(0.000680084 -0.000363039 0)
(0.000755756 -0.000360589 0)
(0.000830895 -0.000357846 0)
(0.000905442 -0.000354816 0)
(0.000979342 -0.000351501 0)
(0.00105254 -0.000347904 0)
(0.00112497 -0.000344027 0)
(0.00119658 -0.00033987 0)
(0.00126731 -0.000335434 0)
(0.00133711 -0.000330719 0)
(0.00140591 -0.000325724 0)
(0.00147365 -0.00032045 0)
(0.00154029 -0.000314895 0)
(0.00160576 -0.000309061 0)
(0.00167 -0.000302946 0)
(0.00173295 -0.000296551 0)
(0.00179456 -0.000289877 0)
(0.00185476 -0.000282924 0)
(0.00191351 -0.000275692 0)
(0.00197073 -0.000268183 0)
(0.00202638 -0.000260396 0)
(0.0020804 -0.000252334 0)
(0.00213271 -0.000243997 0)
(0.00218328 -0.000235388 0)
(0.00223204 -0.000226508 0)
(0.00227894 -0.00021736 0)