/*--------------------------------*- C++ -*----------------------------------*\
| =========                 |                                                 |
| \\      /  F ield         | OpenFOAM: The Open Source CFD Toolbox           |
|  \\    /   O peration     | Version:  2412                                  |
|   \\  /    A nd           | Website:  www.openfoam.com                      |
|    \\/     M anipulation  |                                                 |
\*---------------------------------------------------------------------------*/
FoamFile
{
    version     2.0;
    format      ascii;
    arch        "LSB;label=32;scalar=64";
    class       volScalarField;
    location    "1.23";
    object      alpha.water;
}
// * * * * * * * * * * * * * * * * * * * * * * * * * * * * * * * * * * * * * //

dimensions      [0 0 0 0 0 0 0];

internalField   nonuniform List<scalar> 
40000
(
1.13645e-184
2.566e-175
2.88295e-174
3.92222e-174
3.95878e-174
3.74344e-174
3.43134e-174
3.07139e-174
2.69088e-174
2.30916e-174
1.94067e-174
1.59629e-174
1.28403e-174
1.00898e-174
7.73649e-175
5.78102e-175
4.20397e-175
2.97149e-175
2.03882e-175
1.3558e-175
8.72484e-176
5.42527e-176
3.25516e-176
1.88104e-176
1.04385e-176
5.54002e-177
2.79851e-177
1.33748e-177
6.01658e-178
2.53324e-178
9.9286e-179
3.60648e-179
1.21267e-179
3.77871e-180
1.09002e-180
2.8835e-181
6.89599e-182
1.4702e-182
2.76985e-183
4.60226e-184
6.73785e-185
8.65127e-186
9.66825e-187
9.33871e-188
7.75963e-189
5.53043e-190
3.37407e-191
1.7582e-192
7.79741e-194
2.92273e-195
9.12716e-197
2.29911e-198
4.28394e-200
6.57682e-202
9.92615e-204
1.47219e-205
2.14472e-207
3.06751e-209
4.30513e-211
5.92539e-213
7.9929e-215
1.05597e-216
1.36532e-218
1.7263e-220
2.13273e-222
2.57221e-224
3.02567e-226
3.46773e-228
3.86822e-230
4.19492e-232
4.41721e-234
4.51037e-236
4.45966e-238
4.26344e-240
3.93444e-242
3.49876e-244
2.99257e-246
2.45699e-248
1.93218e-250
1.452e-252
1.04005e-254
7.08118e-257
4.56878e-259
2.78407e-261
1.59633e-263
8.57653e-266
4.2973e-268
1.99728e-270
8.55745e-273
3.35561e-275
1.19398e-277
3.81539e-280
1.08114e-282
2.67346e-285
5.64988e-288
9.91829e-291
1.38816e-293
1.45197e-296
1.00895e-299
3.49792e-303
4.01044e-303
1.16444e-299
1.67889e-296
1.60579e-293
1.14702e-290
6.52983e-288
3.0872e-285
1.24722e-282
4.39671e-280
1.37432e-277
3.85787e-275
9.82635e-273
2.2906e-270
4.92228e-268
9.81154e-266
1.82391e-263
3.17698e-261
5.20701e-259
8.06024e-257
1.18237e-254
1.64863e-252
2.1911e-250
2.78275e-248
3.38513e-246
3.95278e-244
4.43941e-242
4.80457e-240
5.01929e-238
5.06982e-236
4.95863e-234
4.70285e-232
4.33072e-230
3.87698e-228
3.37796e-226
2.86754e-224
2.37406e-222
1.9187e-220
1.51509e-218
1.1699e-216
8.84054e-215
6.54253e-213
4.74513e-211
3.3749e-209
2.35525e-207
1.61361e-205
1.08581e-203
7.17917e-202
4.66555e-200
2.50403e-198
9.92078e-197
3.16674e-195
8.41383e-194
1.88803e-192
3.6035e-191
5.87179e-190
8.18819e-189
9.79363e-188
1.00782e-186
8.96698e-186
6.94765e-185
4.72339e-184
2.83049e-183
1.49638e-182
6.99364e-182
2.91544e-181
1.09928e-180
3.80273e-180
1.21829e-179
3.61765e-179
9.94599e-179
2.53469e-178
6.01396e-178
1.33573e-177
2.79268e-177
5.52422e-177
1.04014e-176
1.87325e-176
3.24036e-176
5.39924e-176
8.68188e-176
1.34909e-175
2.02874e-175
2.95684e-175
4.18329e-175
5.75257e-175
7.69864e-175
1.00415e-174
1.27818e-174
1.58961e-174
1.93359e-174
2.30259e-174
2.68659e-174
3.07364e-174
3.45032e-174
3.80123e-174
4.09259e-174
4.1504e-174
3.06503e-174
2.52427e-175
8.89219e-185
3.64215e-181
4.50277e-172
4.6053e-171
6.08891e-171
6.0728e-171
5.72518e-171
5.26038e-171
4.73314e-171
4.17483e-171
3.61042e-171
3.06038e-171
2.54114e-171
2.06525e-171
1.64123e-171
1.27391e-171
9.64598e-172
7.11547e-172
5.10738e-172
3.56258e-172
2.41112e-172
1.58084e-172
1.0026e-172
6.14234e-173
3.62842e-173
2.06099e-173
1.12128e-173
5.81665e-174
2.86109e-174
1.32826e-174
5.78887e-175
2.35522e-175
8.90288e-176
3.12138e-176
1.01574e-176
3.06537e-177
8.50693e-178
2.14282e-178
4.83369e-179
9.67635e-180
1.71482e-180
2.68802e-181
3.71203e-182
4.4852e-183
4.71235e-184
4.28896e-185
3.37677e-186
2.30009e-187
1.35699e-188
6.94599e-190
3.09028e-191
1.19655e-192
4.03153e-194
1.17818e-195
3.07886e-197
7.87453e-199
1.97066e-200
4.82431e-202
1.15493e-203
2.70283e-205
6.18074e-207
1.38044e-208
3.00968e-210
6.4016e-212
1.3275e-213
2.68187e-215
5.27417e-217
1.00881e-218
1.87496e-220
3.38278e-222
5.91813e-224
1.00283e-225
1.64386e-227
2.60334e-229
3.97748e-231
5.85381e-233
8.28543e-235
1.12583e-236
1.46583e-238
1.82494e-240
2.16766e-242
2.45043e-244
2.62922e-246
2.66965e-248
2.55675e-250
2.30105e-252
1.93808e-254
1.52051e-256
1.10522e-258
7.39734e-261
4.52615e-263
2.51013e-265
1.24882e-267
5.50339e-270
2.11416e-272
6.93348e-275
1.88681e-277
4.08925e-280
6.61596e-283
7.10294e-286
3.79921e-289
4.30635e-289
8.10206e-286
7.5641e-283
4.68011e-280
2.16033e-277
7.93896e-275
2.42031e-272
6.29821e-270
1.42853e-267
2.86979e-265
5.17153e-263
8.44652e-261
1.26109e-258
1.73364e-256
2.20802e-254
2.61943e-252
2.90807e-250
3.03389e-248
2.98531e-246
2.77979e-244
2.45674e-242
2.06637e-240
1.65815e-238
1.27229e-236
9.35392e-235
6.60194e-233
4.48111e-231
2.92985e-229
1.84802e-227
1.12612e-225
6.63823e-224
3.79e-222
2.0982e-220
1.12756e-218
5.88776e-217
2.9901e-215
1.47815e-213
7.11862e-212
3.3422e-210
1.5308e-208
6.84396e-207
2.98838e-205
1.27498e-203
5.31735e-202
2.16852e-200
8.65052e-199
3.37632e-197
1.28961e-195
4.40545e-194
1.30414e-192
3.3565e-191
7.51218e-190
1.46029e-188
2.46133e-187
3.5916e-186
4.53299e-185
4.94878e-184
4.68106e-183
3.85158e-182
2.77429e-181
1.76136e-180
9.89507e-180
4.92289e-179
2.17453e-178
8.60681e-178
3.09349e-177
1.02287e-176
3.1379e-176
8.93638e-176
2.3609e-175
5.79595e-175
1.32854e-174
2.85924e-174
5.80861e-174
1.11897e-173
2.05554e-173
3.6171e-173
6.12112e-173
9.98934e-173
1.57488e-172
2.40199e-172
3.54926e-172
5.08881e-172
7.09061e-172
9.614e-172
1.27001e-171
1.63681e-171
2.06076e-171
2.53743e-171
3.05888e-171
3.61346e-171
4.18632e-171
4.76013e-171
5.31605e-171
5.83295e-171
6.26374e-171
6.35735e-171
4.76639e-171
4.30949e-172
2.8848e-181
3.78253e-178
2.66268e-169
2.54226e-168
3.30903e-168
3.27843e-168
3.086e-168
2.84125e-168
2.56754e-168
2.27787e-168
1.98358e-168
1.69468e-168
1.4196e-168
1.16503e-168
9.35773e-169
7.3485e-169
5.63503e-169
4.21387e-169
3.0695e-169
2.17513e-169
1.49706e-169
9.99173e-170
6.4572e-170
4.03497e-170
2.43364e-170
1.41294e-170
7.8674e-171
4.18354e-171
2.11351e-171
1.01032e-171
4.54635e-172
1.91474e-172
7.50838e-173
2.73522e-173
9.25886e-174
2.91023e-174
8.42709e-175
2.22109e-175
5.25883e-176
1.10788e-176
2.07054e-177
3.42939e-178
5.01334e-179
6.42307e-180
7.16546e-181
6.93371e-182
5.81189e-183
4.2215e-184
2.66152e-185
1.46031e-186
6.99646e-188
2.93831e-189
1.08606e-190
3.54673e-192
1.04173e-193
2.98776e-195
8.36753e-197
2.2881e-198
6.10822e-200
1.59153e-201
4.04605e-203
1.00321e-204
2.42481e-206
5.71018e-208
1.30929e-209
2.92106e-211
6.33632e-213
1.3353e-214
2.7314e-216
5.41818e-218
1.04122e-219
1.93634e-221
3.48068e-223
6.04e-225
1.01044e-226
1.62721e-228
2.51852e-230
3.73994e-232
5.31847e-234
7.22815e-236
9.36735e-238
1.15477e-239
1.35053e-241
1.49399e-243
1.55813e-245
1.52643e-247
1.39886e-249
1.19362e-251
9.43257e-254
6.86102e-256
4.56048e-258
2.74653e-260
1.48333e-262
7.09354e-265
2.95605e-267
1.05128e-269
3.10132e-272
7.28395e-275
1.27669e-277
1.48448e-280
8.59773e-284
9.75737e-284
1.69651e-280
1.46304e-277
8.35851e-275
3.56128e-272
1.20755e-269
3.39557e-267
8.14703e-265
1.70314e-262
3.15234e-260
5.23188e-258
7.86694e-256
1.08092e-253
1.36696e-251
1.60093e-249
1.74569e-247
1.78062e-245
1.706e-243
1.54094e-241
1.3165e-239
1.06701e-237
8.22612e-236
6.04729e-234
4.24847e-232
2.85822e-230
1.84487e-228
1.14444e-226
6.83385e-225
3.93393e-223
2.18609e-221
1.17419e-219
6.10304e-218
3.073e-216
1.50047e-214
7.11123e-213
3.27411e-211
1.46563e-209
6.38348e-208
2.70703e-206
1.11841e-204
4.50423e-203
1.76915e-201
6.77965e-200
2.53563e-198
9.25761e-197
3.29996e-195
1.14854e-193
3.90315e-192
1.19282e-190
3.21787e-189
7.63333e-188
1.58589e-186
2.87482e-185
4.5323e-184
6.19919e-183
7.34583e-182
7.54004e-181
6.71465e-180
5.20895e-179
3.54348e-178
2.12873e-177
1.13378e-176
5.35935e-176
2.25532e-175
8.53112e-175
2.93866e-174
9.32903e-174
2.75115e-173
7.54044e-173
1.9203e-172
4.55412e-172
1.01103e-171
2.11321e-171
4.18003e-171
7.85592e-171
1.41013e-170
2.42777e-170
4.02407e-170
6.43862e-170
9.96201e-170
1.49259e-169
2.16881e-169
3.06104e-169
4.20316e-169
5.62229e-169
7.3346e-169
9.34466e-169
1.16415e-168
1.41973e-168
1.69672e-168
1.98886e-168
2.28845e-168
2.58666e-168
2.87412e-168
3.14045e-168
3.36196e-168
3.41018e-168
2.5838e-168
2.52615e-169
3.08159e-178
2.15792e-175
8.67136e-167
7.78766e-166
1.00411e-165
9.91856e-166
9.33622e-166
8.61566e-166
7.81772e-166
6.97371e-166
6.11286e-166
5.26234e-166
4.44606e-166
3.6837e-166
2.99006e-166
2.3752e-166
1.84427e-166
1.39791e-166
1.03326e-166
7.43761e-167
5.2052e-167
3.53609e-167
2.32823e-167
1.48364e-167
9.13408e-168
5.41877e-168
3.08674e-168
1.68174e-168
8.72168e-169
4.29092e-169
1.99279e-169
8.68438e-170
3.53117e-170
1.33587e-170
4.70052e-171
1.53734e-171
4.63943e-172
1.27783e-172
3.17116e-173
7.01878e-174
1.38043e-174
2.40944e-175
3.71662e-176
5.02862e-177
5.92595e-178
6.05664e-179
5.35968e-180
4.10689e-181
2.72871e-182
1.57598e-183
7.93913e-185
3.50281e-186
1.35983e-187
4.66763e-189
1.43306e-190
4.2911e-192
1.25335e-193
3.57082e-195
9.92183e-197
2.68801e-198
7.09805e-200
1.82619e-201
4.57572e-203
1.11599e-204
2.64793e-206
6.10846e-208
1.36911e-209
2.97921e-211
6.28874e-213
1.28659e-214
2.54861e-216
4.88315e-218
9.03922e-220
1.61458e-221
2.77908e-223
4.60284e-225
7.32402e-227
1.11771e-228
1.6329e-230
2.27908e-232
3.03226e-234
3.83643e-236
4.60344e-238
5.22338e-240
5.58613e-242
5.6101e-244
5.26916e-246
4.60677e-248
3.72924e-250
2.77803e-252
1.89068e-254
1.16561e-256
6.44281e-259
3.15269e-261
1.34407e-263
4.8892e-266
1.47499e-268
3.54207e-271
6.34671e-274
7.54298e-277
4.465e-280
5.10638e-280
8.69026e-277
7.3334e-274
4.09876e-271
1.70811e-268
5.66389e-266
1.55715e-263
3.65204e-261
7.4613e-259
1.34936e-256
2.18772e-254
3.21277e-252
4.31028e-250
5.3211e-248
6.082e-246
6.47082e-244
6.43824e-242
6.01535e-240
5.29701e-238
4.41063e-236
3.48299e-234
2.61544e-232
1.87212e-230
1.28021e-228
8.38035e-227
5.26124e-225
3.17322e-223
1.84155e-221
1.02983e-219
5.55688e-218
2.89679e-216
1.46056e-214
7.13015e-213
3.37344e-211
1.54822e-209
6.89816e-208
2.98607e-206
1.25669e-204
5.14502e-203
2.05031e-201
7.95689e-200
3.00851e-198
1.10871e-196
3.98362e-195
1.39586e-193
4.77059e-192
1.59024e-190
5.16948e-189
1.50261e-187
3.85816e-186
8.70804e-185
1.7198e-183
2.96005e-182
4.42562e-181
5.73478e-180
6.43328e-179
6.24886e-178
5.26577e-177
3.86687e-176
2.49234e-175
1.42048e-174
7.18781e-174
3.23358e-173
1.29818e-172
4.69904e-172
1.5531e-171
4.73819e-171
1.34417e-170
3.54753e-170
8.71264e-170
1.99689e-169
4.29542e-169
8.72363e-169
1.68099e-168
3.08352e-168
5.41039e-168
9.11634e-168
1.48036e-167
2.3227e-167
3.52736e-167
5.19235e-167
7.41989e-167
1.03097e-166
1.39516e-166
1.84123e-166
2.37224e-166
2.98793e-166
3.68352e-166
4.44962e-166
5.27221e-166
6.13268e-166
7.00867e-166
7.87519e-166
8.7061e-166
9.47289e-166
1.01086e-165
1.0244e-165
7.83118e-166
8.23208e-167
1.80826e-175
8.23223e-173
1.87387e-164
1.58385e-163
2.02845e-163
2.00224e-163
1.88702e-163
1.7463e-163
1.59128e-163
1.4272e-163
1.25918e-163
1.09215e-163
9.30616e-164
7.78393e-164
6.38481e-164
5.13048e-164
4.03386e-164
3.0993e-164
2.32474e-164
1.70002e-164
1.20996e-164
8.36755e-165
5.61385e-165
3.64856e-165
2.29304e-165
1.39002e-165
8.10031e-166
4.52148e-166
2.40703e-166
1.21885e-166
5.84315e-167
2.6356e-167
1.11165e-167
4.36894e-168
1.59842e-168
5.4401e-169
1.71107e-169
4.92603e-170
1.282e-170
2.98292e-171
6.17706e-172
1.13662e-172
1.85069e-173
2.64549e-174
3.29454e-175
3.55747e-176
3.32376e-177
2.68596e-178
1.87914e-179
1.14056e-180
6.0247e-182
2.78052e-183
1.12635e-184
4.02472e-186
1.27792e-187
3.95422e-189
1.19233e-190
3.50302e-192
1.00258e-193
2.79475e-195
7.58588e-197
2.00439e-198
5.15365e-200
1.2889e-201
3.13383e-203
7.40354e-205
1.69836e-206
3.78041e-208
8.15874e-210
1.70571e-211
3.45124e-213
6.75124e-215
1.27539e-216
2.32394e-218
4.07902e-220
6.88668e-222
1.11664e-223
1.7359e-225
2.58254e-227
3.6695e-229
4.96873e-231
6.39611e-233
7.80664e-235
9.00766e-237
9.79359e-239
9.99693e-241
9.54119e-243
8.47474e-245
6.96827e-247
5.27138e-249
3.64252e-251
2.27955e-253
1.2788e-255
6.3498e-258
2.74648e-260
1.01343e-262
3.10081e-265
7.55098e-268
1.37179e-270
1.65278e-273
9.91685e-277
1.14673e-276
1.92543e-273
1.60276e-270
8.83512e-268
3.63079e-265
1.187e-262
3.21695e-260
7.43622e-258
1.49712e-255
2.66756e-253
4.26028e-251
6.16172e-249
8.13986e-247
9.8926e-245
1.11291e-242
1.16513e-240
1.14048e-238
1.04804e-236
9.07481e-235
7.42817e-233
5.76488e-231
4.25321e-229
2.99027e-227
2.00783e-225
1.29015e-223
7.94786e-222
4.70213e-220
2.67577e-218
1.46668e-216
7.75408e-215
3.95878e-213
1.95396e-211
9.33342e-210
4.31865e-208
1.93737e-206
8.43292e-205
3.56412e-203
1.46357e-201
5.84268e-200
2.26861e-198
8.57129e-197
3.15228e-195
1.12882e-193
3.9369e-192
1.33752e-190
4.42735e-189
1.42805e-187
4.48833e-186
1.25285e-184
3.0816e-183
6.64591e-182
1.25104e-180
2.04764e-179
2.90558e-178
3.5678e-177
3.78857e-176
3.48127e-175
2.77474e-174
1.92796e-173
1.17692e-172
6.36132e-172
3.05658e-171
1.30783e-170
5.00656e-170
1.73377e-169
5.49802e-169
1.61177e-168
4.39737e-168
1.11709e-167
2.64484e-167
5.85662e-167
1.22044e-166
2.40821e-166
4.52074e-166
8.09419e-166
1.38829e-165
2.2893e-165
3.64167e-165
5.60235e-165
8.34963e-165
1.20736e-164
1.69652e-164
2.32035e-164
3.09421e-164
4.02851e-164
5.12574e-164
6.38215e-164
7.78559e-164
9.31541e-164
1.09429e-163
1.26312e-163
1.43375e-163
1.60147e-163
1.76145e-163
1.90849e-163
2.02994e-163
2.05485e-163
1.58369e-163
1.78632e-164
7.06278e-173
2.30601e-170
2.941e-162
2.33548e-161
2.97367e-161
2.93672e-161
2.7736e-161
2.57525e-161
2.35709e-161
2.12575e-161
1.88778e-161
1.64975e-161
1.41777e-161
1.1972e-161
9.92408e-162
8.06721e-162
6.4234e-162
5.00321e-162
3.80904e-162
2.8304e-162
2.04918e-162
1.443e-162
9.86749e-163
6.54239e-163
4.19829e-163
2.60093e-163
1.55073e-163
8.86885e-164
4.84692e-164
2.52661e-164
1.25077e-164
5.84235e-165
2.55776e-165
1.04504e-165
3.97766e-166
1.40934e-166
4.62169e-167
1.39165e-167
3.80194e-168
9.31103e-169
2.03247e-169
3.94692e-170
6.79209e-171
1.0273e-171
1.35428e-172
1.54787e-173
1.52992e-174
1.30658e-175
9.64543e-177
6.16499e-178
3.42108e-179
1.65431e-180
7.00153e-182
2.6062e-183
8.57653e-185
2.74552e-186
8.55077e-188
2.59122e-189
7.64074e-191
2.19218e-192
6.11882e-194
1.66117e-195
4.38513e-197
1.12515e-198
2.80479e-200
6.78922e-202
1.5948e-203
3.63301e-205
8.01991e-207
1.71416e-208
3.54414e-210
7.0813e-212
1.36577e-213
2.53972e-215
4.5475e-217
7.82926e-219
1.29408e-220
2.05005e-222
3.10697e-224
4.49582e-226
6.19771e-228
8.12011e-230
1.00844e-231
1.18365e-233
1.30879e-235
1.35833e-237
1.3178e-239
1.18955e-241
9.93791e-244
7.63693e-246
5.35959e-248
3.40589e-250
1.93978e-252
9.77683e-255
4.29167e-257
1.60686e-259
4.98796e-262
1.23209e-264
2.27013e-267
2.77354e-270
1.68727e-273
1.97629e-273
3.27259e-270
2.68622e-267
1.45991e-264
5.9141e-262
1.90564e-259
5.08937e-257
1.15911e-254
2.29881e-252
4.0342e-250
6.34445e-248
9.0341e-246
1.17473e-243
1.40501e-241
1.55517e-239
1.60158e-237
1.54174e-235
1.39299e-233
1.1856e-231
9.53679e-230
7.27124e-228
5.26876e-226
3.63702e-224
2.397e-222
1.51128e-220
9.13214e-219
5.29756e-217
2.95479e-215
1.58686e-213
8.21631e-212
4.10641e-210
1.98323e-208
9.26499e-207
4.19061e-205
1.83668e-203
7.80625e-202
3.21958e-200
1.28934e-198
5.01619e-197
1.89679e-195
6.97371e-194
2.49367e-192
8.67438e-191
2.93576e-189
9.66731e-188
3.09729e-186
9.65428e-185
2.92789e-183
7.84265e-182
1.8455e-180
3.79655e-179
6.79851e-178
1.05596e-176
1.41903e-175
1.64763e-174
1.65274e-173
1.43396e-172
1.07918e-171
7.08425e-171
4.0908e-170
2.09465e-169
9.54593e-169
3.88006e-168
1.41489e-167
4.68466e-167
1.42482e-166
4.01196e-166
1.05207e-165
2.57075e-165
5.86386e-165
1.25389e-164
2.53039e-164
4.85028e-164
8.86926e-164
1.54988e-163
2.59825e-163
4.19236e-163
6.53145e-163
9.84941e-163
1.44021e-162
2.04521e-162
2.82514e-162
3.80257e-162
4.99587e-162
6.41586e-162
8.06075e-162
9.92072e-162
1.19747e-161
1.41905e-161
1.65259e-161
1.89287e-161
2.13392e-161
2.36936e-161
2.59274e-161
2.79722e-161
2.96543e-161
2.99819e-161
2.32852e-161
2.81721e-162
2.01583e-170
4.99504e-168
3.5233e-160
2.6223e-159
3.32015e-159
3.28257e-159
3.10853e-159
2.89681e-159
2.6638e-159
2.41596e-159
2.15976e-159
1.90182e-159
1.64849e-159
1.40545e-159
1.17748e-159
9.68411e-160
7.80981e-160
6.16794e-160
4.76724e-160
3.60061e-160
2.65257e-160
1.90265e-160
1.32661e-160
8.97636e-161
5.88331e-161
3.72594e-161
2.27328e-161
1.3323e-161
7.47585e-162
4.01285e-162
2.05221e-162
9.93266e-163
4.51708e-163
1.92029e-163
7.60983e-164
2.80854e-164
9.60738e-165
3.02808e-165
8.69454e-166
2.2444e-166
5.17137e-167
1.06118e-167
1.93285e-168
3.09884e-169
4.33331e-170
5.25417e-171
5.50741e-172
4.98369e-173
3.89272e-174
2.6275e-175
1.53615e-176
7.80524e-178
3.46105e-179
1.34569e-180
4.61104e-182
1.52971e-183
4.93086e-185
1.54469e-186
4.70349e-188
1.39209e-189
4.00455e-191
1.11947e-192
3.04042e-194
8.02012e-196
2.05388e-197
5.1039e-199
1.23004e-200
2.87309e-202
6.49941e-204
1.4228e-205
3.01143e-207
6.1565e-209
1.2144e-210
2.30857e-212
4.224e-214
7.42843e-216
1.25372e-217
2.02727e-219
3.13504e-221
4.62738e-223
6.50494e-225
8.6882e-227
1.09964e-228
1.31504e-230
1.4811e-232
1.56534e-234
1.5461e-236
1.42055e-238
1.20769e-240
9.44218e-243
6.74041e-245
4.35611e-247
2.5226e-249
1.29253e-251
5.76676e-254
2.19418e-256
6.92034e-259
1.73654e-261
3.24982e-264
4.03217e-267
2.49065e-270
2.95911e-270
4.8253e-267
3.89971e-264
2.08645e-261
8.31933e-259
2.63807e-256
6.93232e-254
1.55322e-251
3.02986e-249
5.22885e-247
8.08512e-245
1.13171e-242
1.44628e-240
1.69966e-238
1.84813e-236
1.86928e-234
1.76685e-232
1.56708e-230
1.30894e-228
1.03301e-226
7.72515e-225
5.48875e-223
3.71399e-221
2.39858e-219
1.4814e-217
8.76563e-216
4.97747e-214
2.7165e-212
1.42689e-210
7.2229e-209
3.5276e-207
1.66403e-205
7.58896e-204
3.34911e-202
1.43137e-200
5.92873e-199
2.38145e-197
9.2818e-196
3.51194e-194
1.29051e-192
4.60698e-191
1.59815e-189
5.388e-188
1.76554e-186
5.62278e-185
1.74017e-183
5.23238e-182
1.52375e-180
3.90596e-179
8.76823e-178
1.71561e-176
2.9139e-175
4.2825e-174
5.43483e-173
5.95105e-172
5.62508e-171
4.59764e-170
3.26031e-169
2.01834e-168
1.10088e-167
5.33332e-167
2.3021e-166
8.87609e-166
3.07957e-165
9.74131e-165
2.84023e-164
7.6772e-164
1.93353e-163
4.54066e-163
9.97057e-163
2.0576e-162
4.01946e-162
7.48223e-162
1.33258e-161
2.2724e-161
3.72268e-161
5.87593e-161
8.96275e-161
1.32438e-160
1.89927e-160
2.6478e-160
3.59437e-160
4.75965e-160
6.15939e-160
7.80105e-160
9.67645e-160
1.17703e-159
1.40559e-159
1.64961e-159
1.9044e-159
2.16436e-159
2.42325e-159
2.67449e-159
2.91162e-159
3.12782e-159
3.3049e-159
3.33711e-159
2.61088e-159
3.39049e-160
4.4317e-168
8.63448e-166
3.31785e-158
2.30789e-157
2.90561e-157
2.87679e-157
2.73246e-157
2.55633e-157
2.36212e-157
2.15476e-157
1.93925e-157
1.72084e-157
1.50462e-157
1.29529e-157
1.09692e-157
9.1289e-158
7.45787e-158
5.9734e-158
4.68854e-158
3.60065e-158
2.70026e-158
1.97378e-158
1.40389e-158
9.69889e-159
6.49556e-159
4.20672e-159
2.6272e-159
1.57815e-159
9.09402e-160
5.02805e-160
2.65771e-160
1.33376e-160
6.30638e-161
2.79236e-161
1.15319e-161
4.43638e-162
1.58397e-162
5.23022e-163
1.58044e-163
4.3071e-164
1.0491e-164
2.27796e-165
4.39856e-166
7.48997e-167
1.11348e-167
1.43576e-168
1.60021e-169
1.53866e-170
1.27543e-171
9.11942e-173
5.63499e-174
3.01815e-175
1.40671e-176
5.73125e-178
2.05128e-179
7.07334e-181
2.36655e-182
7.68503e-184
2.42276e-185
7.41586e-187
2.20395e-188
6.35913e-190
1.78102e-191
4.84062e-193
1.27626e-194
3.26284e-196
8.08433e-198
1.94009e-199
4.50643e-201
1.01237e-202
2.19772e-204
4.60592e-206
9.30928e-208
1.81248e-209
3.39501e-211
6.10973e-213
1.05478e-214
1.74402e-216
2.7568e-218
4.15789e-220
5.97058e-222
8.14338e-224
1.0522e-225
1.28421e-227
1.47575e-229
1.59095e-231
1.6025e-233
1.50113e-235
1.30084e-237
1.03645e-239
7.5383e-242
4.96258e-244
2.92678e-246
1.52697e-248
6.93564e-251
2.68603e-253
8.62128e-256
2.20119e-258
4.1907e-261
5.28865e-264
3.32216e-267
4.00951e-267
6.42813e-264
5.10691e-261
2.68552e-258
1.05228e-255
3.27849e-253
8.46319e-251
1.8624e-248
3.56754e-246
6.04464e-244
9.17447e-242
1.26028e-239
1.58026e-237
1.82174e-235
1.94268e-233
1.92656e-231
1.785e-229
1.55147e-227
1.26962e-225
9.81364e-224
7.18583e-222
4.99751e-220
3.30894e-218
2.09037e-216
1.26243e-214
7.30164e-213
4.05114e-211
2.15938e-209
1.10732e-207
5.46961e-206
2.60541e-204
1.19808e-202
5.32354e-201
2.28765e-199
9.51455e-198
3.8326e-196
1.49612e-194
5.66281e-193
2.07912e-191
7.40729e-190
2.56147e-188
8.59889e-187
2.80256e-185
8.86789e-184
2.72385e-182
8.11977e-181
2.34828e-179
6.54496e-178
1.60036e-176
3.41592e-175
6.33595e-174
1.01739e-172
1.41032e-171
1.6851e-170
1.73508e-169
1.54128e-168
1.18383e-167
7.89213e-167
4.59832e-166
2.36532e-165
1.08269e-164
4.41971e-164
1.61388e-163
5.32053e-163
1.60651e-162
4.48764e-162
1.16362e-161
2.812e-161
6.33995e-161
1.33899e-160
2.66498e-160
5.03694e-160
9.10299e-160
1.57871e-159
2.62653e-159
4.20357e-159
6.4882e-159
9.68534e-159
1.40169e-158
1.97047e-158
2.69566e-158
3.59469e-158
4.68136e-158
5.9653e-158
7.44947e-158
9.12121e-158
1.09638e-157
1.29519e-157
1.50522e-157
1.72246e-157
1.94227e-157
2.15956e-157
2.36909e-157
2.56581e-157
2.74448e-157
2.89014e-157
2.91436e-157
2.29648e-157
3.20585e-158
7.75293e-166
1.21549e-163
2.49925e-156
1.61927e-155
2.02695e-155
2.00997e-155
1.91527e-155
1.79916e-155
1.67078e-155
1.53313e-155
1.38926e-155
1.24244e-155
1.09593e-155
9.52786e-156
8.15713e-156
6.87061e-156
5.68723e-156
4.62088e-156
3.68458e-156
2.87843e-156
2.19852e-156
1.63853e-156
1.1896e-156
8.39629e-157
5.7491e-157
3.80935e-157
2.43614e-157
1.50037e-157
8.88103e-158
5.05956e-158
2.76563e-158
1.4402e-158
7.08736e-159
3.27258e-159
1.41006e-159
5.65936e-160
2.11049e-160
7.30778e-161
2.32732e-161
6.70802e-162
1.73012e-162
3.98092e-163
8.16307e-164
1.47957e-164
2.34406e-165
3.22256e-166
3.82966e-167
3.9245e-168
3.46322e-169
2.63172e-170
1.72453e-171
9.77036e-173
4.8031e-174
2.05767e-175
7.71896e-177
2.77526e-178
9.6662e-180
3.26303e-181
1.06793e-182
3.3894e-184
1.04328e-185
3.11442e-187
9.01584e-189
2.53048e-190
6.88398e-192
1.81448e-193
4.63164e-195
1.14432e-196
2.73472e-198
6.31698e-200
1.40923e-201
3.03342e-203
6.29387e-205
1.25733e-206
2.41544e-208
4.45622e-210
7.8835e-212
1.33521e-213
2.16116e-215
3.33644e-217
4.9024e-219
6.83974e-221
9.03738e-223
1.12762e-224
1.32434e-226
1.45877e-228
1.50091e-230
1.43582e-232
1.27034e-234
1.03314e-236
7.66838e-239
5.15066e-241
3.09869e-243
1.64878e-245
7.63624e-248
3.01494e-250
9.86358e-253
2.56647e-255
4.97852e-258
6.40055e-261
4.09516e-264
5.02909e-264
7.91459e-261
6.17136e-258
3.18461e-255
1.2243e-252
3.74181e-250
9.47352e-248
2.04427e-245
3.83913e-243
6.37597e-241
9.48369e-239
1.27641e-236
1.56776e-234
1.76996e-232
1.84801e-230
1.79389e-228
1.6265e-226
1.38306e-224
1.10695e-222
8.36597e-221
5.9877e-219
4.06903e-217
2.6317e-215
1.62339e-213
9.5697e-212
5.4005e-210
2.92235e-208
1.51858e-206
7.58814e-205
3.65057e-203
1.69277e-201
7.57342e-200
3.27218e-198
1.36644e-196
5.51915e-195
2.15753e-193
8.16743e-192
2.99545e-190
1.06476e-188
3.66924e-187
1.2261e-185
3.97319e-184
1.24858e-182
3.80463e-181
1.12389e-179
3.21739e-178
8.92153e-177
2.37157e-175
5.51205e-174
1.11471e-172
1.9531e-171
2.95463e-170
3.85012e-169
4.31711e-168
4.16724e-167
3.46902e-166
2.49734e-165
1.56133e-164
8.54323e-164
4.13727e-163
1.78668e-162
6.88601e-162
2.37711e-161
7.43565e-161
2.1411e-160
5.72621e-160
1.42306e-159
3.29594e-159
7.12563e-159
1.44596e-158
2.77345e-158
5.06902e-158
8.89079e-158
1.50107e-157
2.43579e-157
3.80689e-157
5.74316e-157
8.38537e-157
1.18785e-156
1.63592e-156
2.19492e-156
2.87382e-156
3.67905e-156
4.61462e-156
5.6806e-156
6.86426e-156
8.15198e-156
9.52507e-156
1.09604e-155
1.24311e-155
1.39067e-155
1.53546e-155
1.67419e-155
1.80377e-155
1.92102e-155
2.01612e-155
2.03016e-155
1.61099e-155
2.42357e-156
1.1023e-163
1.41189e-161
1.52014e-154
9.13483e-154
1.13676e-153
1.12908e-153
1.07949e-153
1.01834e-153
9.50526e-154
8.77482e-154
8.00686e-154
7.21763e-154
6.42365e-154
5.64068e-154
4.88301e-154
4.16347e-154
3.49285e-154
2.87975e-154
2.33375e-154
1.85557e-154
1.44431e-154
1.09824e-154
8.14487e-155
5.87765e-155
4.11769e-155
2.79327e-155
1.83022e-155
1.15617e-155
7.03232e-156
4.12993e-156
2.33599e-156
1.26337e-156
6.47859e-157
3.12419e-157
1.40643e-157
5.89562e-158
2.29832e-158
8.35436e-159
2.80871e-159
8.57933e-160
2.34744e-160
5.73304e-161
1.25078e-161
2.41889e-162
4.09469e-163
6.01843e-164
7.64873e-165
8.38012e-166
7.8992e-167
6.40192e-168
4.46488e-169
2.68559e-170
1.3977e-171
6.31966e-173
2.49391e-174
9.37971e-176
3.4115e-177
1.20065e-178
4.09085e-180
1.34983e-181
4.31424e-183
1.33577e-184
4.00636e-186
1.16388e-187
3.27425e-189
8.91702e-191
2.34993e-192
5.98961e-194
1.47568e-195
3.51186e-197
8.06663e-199
1.7868e-200
3.81292e-202
7.83012e-204
1.54555e-205
2.92836e-207
5.31815e-209
9.24269e-211
1.53452e-212
2.42911e-214
3.65846e-216
5.23009e-218
7.07871e-220
9.04446e-222
1.08743e-223
1.22588e-225
1.29051e-227
1.2628e-229
1.14256e-231
9.50029e-234
7.20776e-236
4.94744e-238
3.04105e-240
1.65289e-242
7.81819e-245
3.15185e-247
1.05268e-249
2.7957e-252
5.53436e-255
7.25964e-258
4.73824e-261
5.93225e-261
9.15013e-258
6.99163e-255
3.5349e-252
1.33123e-249
3.98481e-247
9.87905e-245
2.08705e-242
3.83647e-240
6.23531e-238
9.07416e-236
1.19464e-233
1.43499e-231
1.58397e-229
1.61655e-227
1.53347e-225
1.35834e-223
1.1281e-221
8.81576e-220
6.50336e-218
4.54184e-216
3.01071e-214
1.89873e-212
1.14167e-210
6.55745e-209
3.60422e-207
1.89873e-205
9.60108e-204
4.66617e-202
2.18225e-200
9.83162e-199
4.27119e-197
1.79085e-195
7.25257e-194
2.83888e-192
1.07469e-190
3.93656e-189
1.3958e-187
4.7923e-186
1.59357e-184
5.1328e-183
1.60141e-181
4.8392e-180
1.41602e-178
4.01091e-177
1.09921e-175
2.91279e-174
7.3573e-173
1.61923e-171
3.09068e-170
5.09594e-169
7.23584e-168
8.83149e-167
9.26122e-166
8.35365e-165
6.49718e-164
4.37164e-163
2.55632e-162
1.31044e-161
5.96341e-161
2.42572e-160
8.80985e-160
2.86929e-159
8.50224e-159
2.33224e-158
5.96669e-158
1.4196e-157
3.14673e-157
6.51388e-157
1.2685e-156
2.34275e-156
4.138e-156
7.04075e-156
1.15683e-155
1.83013e-155
2.79172e-155
4.11378e-155
5.87049e-155
8.1335e-155
1.09657e-154
1.44203e-154
1.85268e-154
2.33029e-154
2.87581e-154
3.48861e-154
4.15923e-154
4.87921e-154
5.63784e-154
6.42244e-154
7.21878e-154
8.01107e-154
8.78276e-154
9.51744e-154
1.02001e-153
1.08157e-153
1.13121e-153
1.13743e-153
9.08858e-154
1.47881e-154
1.29134e-161
1.36433e-159
7.48784e-153
4.15059e-152
5.13404e-152
5.10802e-152
4.90063e-152
4.6431e-152
4.35661e-152
4.0466e-152
3.7187e-152
3.37931e-152
3.03505e-152
2.69237e-152
2.35723e-152
2.03513e-152
1.7309e-152
1.44862e-152
1.19377e-152
9.66658e-153
7.67311e-153
5.95745e-153
4.5175e-153
3.3364e-153
2.39379e-153
1.66395e-153
1.11789e-153
7.24786e-154
4.53227e-154
2.74533e-154
1.60803e-154
9.04128e-155
4.83826e-155
2.441e-155
1.15014e-155
5.04261e-156
2.05712e-156
7.85982e-157
2.79468e-157
9.06786e-158
2.63783e-158
6.85028e-159
1.59347e-159
3.2969e-160
5.9805e-161
9.42581e-162
1.28515e-162
1.51053e-163
1.52637e-164
1.32427e-165
9.86782e-167
6.32637e-168
3.49969e-169
1.67678e-170
6.98864e-172
2.75915e-173
1.05137e-174
3.86968e-176
1.37661e-177
4.73558e-179
1.57581e-180
5.07326e-182
1.58038e-183
4.76333e-185
1.3889e-186
3.91688e-188
1.06798e-189
2.81416e-191
7.16243e-193
1.75963e-194
4.16975e-196
9.52271e-198
2.09393e-199
4.42851e-201
8.99778e-203
1.75401e-204
3.27587e-206
5.85242e-208
9.98402e-210
1.62333e-211
2.5103e-213
3.68343e-215
5.11526e-217
6.70393e-219
8.26513e-221
9.55149e-223
1.03047e-224
1.03311e-226
9.57451e-229
8.1525e-231
6.33238e-233
4.44896e-235
2.79844e-237
1.55617e-239
7.52918e-242
3.10417e-244
1.06005e-246
2.87797e-249
5.82296e-252
7.8053e-255
5.20479e-258
6.65828e-258
1.005e-254
7.51349e-252
3.71608e-249
1.36875e-246
4.00643e-244
9.71084e-242
2.00529e-239
3.60237e-237
5.72045e-235
8.13199e-233
1.04555e-230
1.22622e-228
1.32121e-226
1.31585e-224
1.21777e-222
1.05208e-220
8.51949e-219
6.48959e-217
4.66496e-215
3.17357e-213
2.04851e-211
1.25755e-209
7.35741e-208
4.11022e-206
2.19633e-204
1.12437e-202
5.52222e-201
2.60542e-199
1.18225e-197
5.16497e-196
2.1745e-194
8.82983e-193
3.4607e-191
1.31e-189
4.79192e-188
1.69461e-186
5.79565e-185
1.91739e-183
6.137e-182
1.90043e-180
5.69329e-179
1.64967e-177
4.62175e-176
1.25135e-174
3.27218e-173
8.25706e-172
1.97373e-170
4.09639e-169
7.34938e-168
1.13567e-166
1.50753e-165
1.71674e-164
1.67744e-163
1.40895e-162
1.02055e-161
6.39872e-161
3.48929e-160
1.67121e-159
7.13167e-159
2.72746e-158
9.31398e-158
2.85529e-157
8.00031e-157
2.088e-156
5.10455e-156
1.16105e-155
2.4587e-155
4.86469e-155
9.0783e-155
1.61278e-154
2.7509e-154
4.5381e-154
7.25271e-154
1.11793e-153
1.66316e-153
2.3917e-153
3.33259e-153
4.51152e-153
5.94878e-153
7.66144e-153
9.6519e-153
1.19202e-152
1.44661e-152
1.7287e-152
2.03287e-152
2.35507e-152
2.69049e-152
3.03368e-152
3.3787e-152
3.71908e-152
4.04816e-152
4.35946e-152
4.6473e-152
4.90595e-152
5.11313e-152
5.13347e-152
4.1303e-152
7.30521e-153
1.25719e-159
1.10137e-157
2.97775e-151
1.51176e-150
1.85848e-150
1.85232e-150
1.78349e-150
1.6973e-150
1.60112e-150
1.49656e-150
1.38529e-150
1.26927e-150
1.15062e-150
1.03139e-150
9.1352e-151
7.98857e-151
6.89064e-151
5.8565e-151
4.91071e-151
4.05283e-151
3.28352e-151
2.60547e-151
2.0225e-151
1.53067e-151
1.12617e-151
8.03132e-152
5.5385e-152
3.68885e-152
2.37328e-152
1.48385e-152
9.00888e-153
5.27243e-153
2.94935e-153
1.56014e-153
7.71127e-154
3.54263e-154
1.51443e-154
6.09131e-155
2.29556e-155
7.93396e-156
2.46011e-156
6.80777e-157
1.69247e-157
3.75803e-158
7.32873e-159
1.24263e-159
1.82394e-160
2.30843e-161
2.51035e-162
2.34097e-163
1.87152e-164
1.28435e-165
7.58472e-167
3.86757e-168
1.70986e-169
7.11287e-171
2.84949e-172
1.10044e-173