/*--------------------------------*- C++ -*----------------------------------*\
| =========                 |                                                 |
| \\      /  F ield         | OpenFOAM: The Open Source CFD Toolbox           |
|  \\    /   O peration     | Version:  2412                                  |
|   \\  /    A nd           | Website:  www.openfoam.com                      |
|    \\/     M anipulation  |                                                 |
\*---------------------------------------------------------------------------*/
FoamFile
{
    version     2.0;
    format      ascii;
    arch        "LSB;label=32;scalar=64";
    class       volScalarField;
    location    "1.23";
    object      p;
}
// * * * * * * * * * * * * * * * * * * * * * * * * * * * * * * * * * * * * * //

dimensions      [1 -1 -2 0 0 0 0];

internalField   nonuniform List<scalar> 
40000
(
0
7.99179e-05
0.000113589
0.000101243
4.23915e-05
-6.42066e-05
-0.000218969
-0.000421131
-0.000669728
-0.000964273
-0.00130456
-0.00169025
-0.00212074
-0.00259532
-0.00311325
-0.00367386
-0.00427641
-0.00492011
-0.00560407
-0.00632735
-0.00708896
-0.00788789
-0.00872312
-0.00959355
-0.0104981
-0.0114355
-0.0124046
-0.0134041
-0.0144327
-0.015489
-0.0165718
-0.0176797
-0.0188111
-0.0199647
-0.0211389
-0.0223323
-0.0235433
-0.0247705
-0.0260124
-0.0272673
-0.0285338
-0.0298104
-0.0310954
-0.0323872
-0.0336844
-0.0349854
-0.0362887
-0.0375926
-0.0388957
-0.0401964
-0.0414933
-0.0427848
-0.0440696
-0.0453464
-0.0466136
-0.0478699
-0.0491141
-0.0503447
-0.0515605
-0.0527604
-0.0539431
-0.0551075
-0.0562526
-0.0573771
-0.0584803
-0.059561
-0.0606185
-0.0616517
-0.06266
-0.0636425
-0.0645985
-0.0655273
-0.0664282
-0.0673007
-0.0681442
-0.0689583
-0.0697425
-0.0704963
-0.0712195
-0.0719116
-0.0725724
-0.0732014
-0.0737984
-0.0743633
-0.0748958
-0.0753959
-0.0758634
-0.0762982
-0.0767
-0.0770689
-0.0774046
-0.0777071
-0.0779764
-0.0782125
-0.0784153
-0.078585
-0.0787214
-0.0788245
-0.0788943
-0.0789307
-0.0789338
-0.0789034
-0.0788398
-0.0787428
-0.0786126
-0.0784491
-0.0782524
-0.0780224
-0.0777591
-0.0774627
-0.0771331
-0.0767704
-0.0763748
-0.0759462
-0.0754849
-0.0749909
-0.0744644
-0.0739056
-0.0733146
-0.0726916
-0.0720369
-0.0713507
-0.0706334
-0.0698854
-0.0691069
-0.0682984
-0.0674604
-0.0665933
-0.0656979
-0.0647746
-0.063824
-0.062847
-0.0618441
-0.0608161
-0.0597639
-0.0586883
-0.0575902
-0.0564706
-0.0553305
-0.054171
-0.052993
-0.0517978
-0.0505867
-0.0493607
-0.048121
-0.0468691
-0.0456063
-0.0443338
-0.0430531
-0.0417657
-0.0404729
-0.0391763
-0.0378772
-0.0365771
-0.0352777
-0.0339803
-0.0326865
-0.031398
-0.0301164
-0.0288432
-0.0275799
-0.026328
-0.0250891
-0.0238648
-0.0226565
-0.0214659
-0.0202944
-0.0191435
-0.0180147
-0.0169094
-0.0158292
-0.0147752
-0.013749
-0.0127519
-0.0117851
-0.0108499
-0.00994746
-0.00907902
-0.00824565
-0.00744842
-0.00668841
-0.00596675
-0.00528424
-0.00464193
-0.00404074
-0.00348131
-0.00296438
-0.00249071
-0.00206099
-0.00167573
-0.0013356
-0.00104095
-0.000792238
-0.000590016
-0.000434362
-0.000325621
-0.000263992
-0.000250125
-0.000284101
-0.000365862
-3.92408
-3.924
-3.92396
-3.92397
-3.92403
-3.92414
-3.92429
-3.9245
-3.92474
-3.92504
-3.92538
-3.92576
-3.92619
-3.92667
-3.92719
-3.92775
-3.92835
-3.92899
-3.92967
-3.9304
-3.93116
-3.93196
-3.93279
-3.93366
-3.93456
-3.9355
-3.93647
-3.93747
-3.93849
-3.93955
-3.94063
-3.94174
-3.94287
-3.94402
-3.94519
-3.94638
-3.94759
-3.94882
-3.95006
-3.95131
-3.95258
-3.95385
-3.95513
-3.95642
-3.95772
-3.95902
-3.96032
-3.96162
-3.96292
-3.96422
-3.96551
-3.9668
-3.96808
-3.96936
-3.97062
-3.97187
-3.97311
-3.97434
-3.97555
-3.97675
-3.97793
-3.97909
-3.98023
-3.98136
-3.98245
-3.98353
-3.98459
-3.98562
-3.98662
-3.9876
-3.98855
-3.98948
-3.99038
-3.99124
-3.99209
-3.9929
-3.99368
-3.99443
-3.99515
-3.99584
-3.99649
-3.99712
-3.99772
-3.99828
-3.99881
-3.99931
-3.99977
-4.0002
-4.0006
-4.00097
-4.0013
-4.0016
-4.00187
-4.00211
-4.00231
-4.00248
-4.00261
-4.00272
-4.00279
-4.00282
-4.00283
-4.0028
-4.00273
-4.00264
-4.00251
-4.00234
-4.00215
-4.00192
-4.00166
-4.00136
-4.00103
-4.00067
-4.00028
-3.99985
-3.99939
-3.9989
-3.99838
-3.99782
-3.99723
-3.99661
-3.99596
-3.99528
-3.99456
-3.99382
-3.99304
-3.99224
-3.9914
-3.99054
-3.98965
-3.98873
-3.98778
-3.98681
-3.98581
-3.98478
-3.98374
-3.98266
-3.98157
-3.98045
-3.97932
-3.97816
-3.97698
-3.97579
-3.97458
-3.97336
-3.97212
-3.97088
-3.96962
-3.96835
-3.96707
-3.96578
-3.96449
-3.9632
-3.9619
-3.96061
-3.95931
-3.95801
-3.95672
-3.95544
-3.95416
-3.95288
-3.95162
-3.95037
-3.94914
-3.94791
-3.94671
-3.94552
-3.94435
-3.9432
-3.94207
-3.94097
-3.93989
-3.93884
-3.93781
-3.93681
-3.93585
-3.93491
-3.93401
-3.93315
-3.93231
-3.93152
-3.93076
-3.93004
-3.92935
-3.92871
-3.92811
-3.92755
-3.92704
-3.92656
-3.92613
-3.92575
-3.92541
-3.92512
-3.92487
-3.92466
-3.92451
-3.9244
-3.92434
-3.92432
-3.92436
-3.92444
-7.84811
-7.84803
-7.848
-7.84801
-7.84807
-7.84818
-7.84833
-7.84853
-7.84878
-7.84908
-7.84942
-7.8498
-7.85023
-7.85071
-7.85122
-7.85178
-7.85239
-7.85303
-7.85371
-7.85444
-7.8552
-7.85599
-7.85683
-7.8577
-7.8586
-7.85954
-7.86051
-7.8615
-7.86253
-7.86359
-7.86467
-7.86577
-7.8669
-7.86806
-7.86923
-7.87042
-7.87163
-7.87285
-7.87409
-7.87535
-7.87661
-7.87788
-7.87917
-7.88045
-7.88175
-7.88305
-7.88435
-7.88565
-7.88695
-7.88824
-7.88954
-7.89082
-7.8921
-7.89338
-7.89464
-7.89589
-7.89713
-7.89836
-7.89957
-7.90076
-7.90194
-7.9031
-7.90424
-7.90536
-7.90645
-7.90753
-7.90858
-7.90961
-7.91061
-7.91159
-7.91254
-7.91346
-7.91435
-7.91522
-7.91606
-7.91687
-7.91765
-7.91839
-7.91911
-7.9198
-7.92045
-7.92108
-7.92167
-7.92223
-7.92276
-7.92325
-7.92372
-7.92415
-7.92455
-7.92491
-7.92524
-7.92554
-7.92581
-7.92605
-7.92625
-7.92641
-7.92655
-7.92665
-7.92672
-7.92676
-7.92676
-7.92673
-7.92667
-7.92657
-7.92644
-7.92628
-7.92609
-7.92586
-7.9256
-7.9253
-7.92498
-7.92462
-7.92423
-7.9238
-7.92334
-7.92285
-7.92233
-7.92178
-7.92119
-7.92057
-7.91992
-7.91924
-7.91853
-7.91779
-7.91702
-7.91621
-7.91538
-7.91452
-7.91363
-7.91271
-7.91177
-7.9108
-7.9098
-7.90878
-7.90773
-7.90666
-7.90557
-7.90446
-7.90332
-7.90217
-7.90099
-7.8998
-7.8986
-7.89738
-7.89614
-7.89489
-7.89364
-7.89237
-7.89109
-7.88981
-7.88852
-7.88723
-7.88593
-7.88463
-7.88334
-7.88204
-7.88075
-7.87947
-7.87819
-7.87692
-7.87566
-7.87441
-7.87317
-7.87195
-7.87074
-7.86956
-7.86839
-7.86724
-7.86611
-7.86501
-7.86393
-7.86287
-7.86185
-7.86085
-7.85989
-7.85895
-7.85805
-7.85718
-7.85635
-7.85556
-7.8548
-7.85408
-7.85339
-7.85275
-7.85215
-7.85159
-7.85108
-7.8506
-7.85017
-7.84979
-7.84945
-7.84915
-7.84891
-7.8487
-7.84855
-7.84844
-7.84838
-7.84836
-7.8484
-7.84848
-11.7721
-11.772
-11.772
-11.772
-11.7721
-11.7722
-11.7723
-11.7725
-11.7728
-11.7731
-11.7734
-11.7738
-11.7742
-11.7747
-11.7752
-11.7758
-11.7764
-11.777
-11.7777
-11.7784
-11.7792
-11.78
-11.7808
-11.7817
-11.7826
-11.7835
-11.7845
-11.7855
-11.7865
-11.7876
-11.7887
-11.7898
-11.7909
-11.7921
-11.7932
-11.7944
-11.7957
-11.7969
-11.7981
-11.7994
-11.8006
-11.8019
-11.8032
-11.8045
-11.8058
-11.8071
-11.8084
-11.8097
-11.811
-11.8123
-11.8136
-11.8149
-11.8161
-11.8174
-11.8187
-11.8199
-11.8212
-11.8224
-11.8236
-11.8248
-11.826
-11.8271
-11.8283
-11.8294
-11.8305
-11.8316
-11.8326
-11.8336
-11.8346
-11.8356
-11.8366
-11.8375
-11.8384
-11.8392
-11.8401
-11.8409
-11.8417
-11.8424
-11.8431
-11.8438
-11.8445
-11.8451
-11.8457
-11.8462
-11.8468
-11.8472
-11.8477
-11.8481
-11.8485
-11.8489
-11.8492
-11.8495
-11.8498
-11.85
-11.8502
-11.8504
-11.8505
-11.8506
-11.8507
-11.8507
-11.8507
-11.8507
-11.8507
-11.8506
-11.8504
-11.8503
-11.8501
-11.8498
-11.8496
-11.8493
-11.849
-11.8486
-11.8482
-11.8478
-11.8473
-11.8469
-11.8463
-11.8458
-11.8452
-11.8446
-11.8439
-11.8432
-11.8425
-11.8418
-11.841
-11.8402
-11.8394
-11.8385
-11.8376
-11.8367
-11.8358
-11.8348
-11.8338
-11.8328
-11.8318
-11.8307
-11.8296
-11.8285
-11.8273
-11.8262
-11.825
-11.8238
-11.8226
-11.8214
-11.8202
-11.8189
-11.8177
-11.8164
-11.8151
-11.8138
-11.8125
-11.8113
-11.81
-11.8087
-11.8074
-11.8061
-11.8048
-11.8035
-11.8022
-11.8009
-11.7997
-11.7984
-11.7972
-11.796
-11.7948
-11.7936
-11.7924
-11.7913
-11.7901
-11.789
-11.7879
-11.7869
-11.7859
-11.7849
-11.7839
-11.783
-11.7821
-11.7812
-11.7804
-11.7796
-11.7788
-11.7781
-11.7774
-11.7768
-11.7762
-11.7756
-11.7751
-11.7746
-11.7742
-11.7738
-11.7734
-11.7732
-11.7729
-11.7727
-11.7725
-11.7724
-11.7724
-11.7724
-11.7724
-11.7725
-15.6961
-15.696
-15.696
-15.696
-15.696
-15.6961
-15.6963
-15.6965
-15.6967
-15.697
-15.6974
-15.6978
-15.6982
-15.6987
-15.6992
-15.6998
-15.7004
-15.701
-15.7017
-15.7024
-15.7032
-15.704
-15.7048
-15.7057
-15.7066
-15.7075
-15.7085
-15.7095
-15.7105
-15.7116
-15.7127
-15.7138
-15.7149
-15.7161
-15.7173
-15.7184
-15.7197
-15.7209
-15.7221
-15.7234
-15.7247
-15.7259
-15.7272
-15.7285
-15.7298
-15.7311
-15.7324
-15.7337
-15.735
-15.7363
-15.7376
-15.7389
-15.7402
-15.7414
-15.7427
-15.744
-15.7452
-15.7464
-15.7476
-15.7488
-15.75
-15.7512
-15.7523
-15.7534
-15.7545
-15.7556
-15.7567
-15.7577
-15.7587
-15.7597
-15.7606
-15.7615
-15.7624
-15.7633
-15.7641
-15.7649
-15.7657
-15.7664
-15.7672
-15.7678
-15.7685
-15.7691
-15.7697
-15.7703
-15.7708
-15.7713
-15.7718
-15.7722
-15.7726
-15.7729
-15.7733
-15.7736
-15.7738
-15.7741
-15.7743
-15.7744
-15.7746
-15.7747
-15.7747
-15.7748
-15.7748
-15.7747
-15.7747
-15.7746
-15.7745
-15.7743
-15.7741
-15.7739
-15.7736
-15.7733
-15.773
-15.7726
-15.7723
-15.7718
-15.7714
-15.7709
-15.7704
-15.7698
-15.7692
-15.7686
-15.768
-15.7673
-15.7666
-15.7658
-15.7651
-15.7643
-15.7634
-15.7626
-15.7617
-15.7608
-15.7598
-15.7589
-15.7579
-15.7568
-15.7558
-15.7547
-15.7536
-15.7525
-15.7514
-15.7502
-15.7491
-15.7479
-15.7467
-15.7455
-15.7442
-15.743
-15.7417
-15.7404
-15.7392
-15.7379
-15.7366
-15.7353
-15.734
-15.7327
-15.7314
-15.7301
-15.7288
-15.7275
-15.7262
-15.725
-15.7237
-15.7224
-15.7212
-15.72
-15.7188
-15.7176
-15.7164
-15.7153
-15.7141
-15.713
-15.7119
-15.7109
-15.7099
-15.7089
-15.7079
-15.7069
-15.706
-15.7052
-15.7043
-15.7035
-15.7028
-15.7021
-15.7014
-15.7007
-15.7001
-15.6996
-15.699
-15.6986
-15.6981
-15.6978
-15.6974
-15.6971
-15.6969
-15.6967
-15.6965
-15.6964
-15.6963
-15.6963
-15.6964
-15.6964
-19.62
-19.6199
-19.6199
-19.6199
-19.6199
-19.6201
-19.6202
-19.6204
-19.6207
-19.621
-19.6213
-19.6217
-19.6221
-19.6226
-19.6231
-19.6237
-19.6243
-19.6249
-19.6256
-19.6264
-19.6271
-19.6279
-19.6288
-19.6296
-19.6305
-19.6315
-19.6325
-19.6335
-19.6345
-19.6356
-19.6367
-19.6378
-19.6389
-19.6401
-19.6412
-19.6424
-19.6437
-19.6449
-19.6461
-19.6474
-19.6487
-19.6499
-19.6512
-19.6525
-19.6538
-19.6551
-19.6564
-19.6577
-19.659
-19.6603
-19.6616
-19.6629
-19.6642
-19.6655
-19.6668
-19.668
-19.6693
-19.6705
-19.6717
-19.6729
-19.6741
-19.6752
-19.6764
-19.6775
-19.6786
-19.6797
-19.6807
-19.6818
-19.6828
-19.6837
-19.6847
-19.6856
-19.6865
-19.6874
-19.6882
-19.689
-19.6898
-19.6905
-19.6912
-19.6919
-19.6926
-19.6932
-19.6938
-19.6944
-19.6949
-19.6954
-19.6958
-19.6963
-19.6967
-19.697
-19.6974
-19.6976
-19.6979
-19.6981
-19.6983
-19.6985
-19.6986
-19.6987
-19.6988
-19.6989
-19.6989
-19.6988
-19.6988
-19.6987
-19.6985
-19.6984
-19.6982
-19.698
-19.6977
-19.6974
-19.6971
-19.6967
-19.6963
-19.6959
-19.6955
-19.695
-19.6945
-19.6939
-19.6933
-19.6927
-19.6921
-19.6914
-19.6907
-19.6899
-19.6892
-19.6884
-19.6875
-19.6867
-19.6858
-19.6849
-19.6839
-19.6829
-19.6819
-19.6809
-19.6799
-19.6788
-19.6777
-19.6766
-19.6755
-19.6743
-19.6731
-19.6719
-19.6707
-19.6695
-19.6683
-19.667
-19.6658
-19.6645
-19.6632
-19.6619
-19.6606
-19.6593
-19.658
-19.6567
-19.6554
-19.6541
-19.6528
-19.6515
-19.6502
-19.649
-19.6477
-19.6464
-19.6452
-19.644
-19.6428
-19.6416
-19.6404
-19.6392
-19.6381
-19.637
-19.6359
-19.6348
-19.6338
-19.6328
-19.6318
-19.6309
-19.63
-19.6291
-19.6283
-19.6275
-19.6267
-19.626
-19.6253
-19.6247
-19.6241
-19.6235
-19.623
-19.6225
-19.6221
-19.6217
-19.6213
-19.621
-19.6208
-19.6206
-19.6204
-19.6203
-19.6203
-19.6202
-19.6203
-19.6204
-23.5439
-23.5438
-23.5438
-23.5438
-23.5438
-23.5439
-23.5441
-23.5443
-23.5446
-23.5448
-23.5452
-23.5456
-23.546
-23.5465
-23.547
-23.5476
-23.5482
-23.5488
-23.5495
-23.5503
-23.551
-23.5518
-23.5527
-23.5536
-23.5545
-23.5554
-23.5564
-23.5574
-23.5585
-23.5595
-23.5606
-23.5617
-23.5629
-23.564
-23.5652
-23.5664
-23.5676
-23.5689
-23.5701
-23.5714
-23.5727
-23.5739
-23.5752
-23.5765
-23.5778
-23.5792
-23.5805
-23.5818
-23.5831
-23.5844
-23.5857
-23.587
-23.5883
-23.5896
-23.5908
-23.5921
-23.5933
-23.5946
-23.5958
-23.597
-23.5982
-23.5993
-23.6005
-23.6016
-23.6027
-23.6038
-23.6048
-23.6059
-23.6069
-23.6078
-23.6088
-23.6097
-23.6106
-23.6115
-23.6123
-23.6131
-23.6139
-23.6146
-23.6154
-23.6161
-23.6167
-23.6173
-23.6179
-23.6185
-23.619
-23.6195
-23.62
-23.6204
-23.6208
-23.6211
-23.6215
-23.6218
-23.622
-23.6223
-23.6225
-23.6226
-23.6228
-23.6229
-23.6229
-23.623
-23.623
-23.623
-23.6229
-23.6228
-23.6227
-23.6225
-23.6223
-23.6221
-23.6218
-23.6215
-23.6212
-23.6209
-23.6205
-23.62
-23.6196
-23.6191
-23.6186
-23.618
-23.6174
-23.6168
-23.6162
-23.6155
-23.6148
-23.614
-23.6133
-23.6125
-23.6116
-23.6108
-23.6099
-23.609
-23.608
-23.6071
-23.6061
-23.605
-23.604
-23.6029
-23.6018
-23.6007
-23.5996
-23.5984
-23.5972
-23.596
-23.5948
-23.5936
-23.5923
-23.5911
-23.5898
-23.5885
-23.5873
-23.586
-23.5847
-23.5834
-23.5821
-23.5808
-23.5794
-23.5781
-23.5768
-23.5755
-23.5743
-23.573
-23.5717
-23.5704
-23.5692
-23.568
-23.5667
-23.5655
-23.5644
-23.5632
-23.5621
-23.5609
-23.5599
-23.5588
-23.5578
-23.5568
-23.5558
-23.5548
-23.5539
-23.553
-23.5522
-23.5514
-23.5506
-23.5499
-23.5492
-23.5486
-23.548
-23.5474
-23.5469
-23.5464
-23.546
-23.5456
-23.5452
-23.5449
-23.5447
-23.5445
-23.5443
-23.5442
-23.5441
-23.5441
-23.5442
-23.5442
-27.4677
-27.4676
-27.4676
-27.4676
-27.4677
-27.4678
-27.4679
-27.4681
-27.4684
-27.4687
-27.469
-27.4694
-27.4699
-27.4704
-27.4709
-27.4715
-27.4721
-27.4727
-27.4734
-27.4741
-27.4749
-27.4757
-27.4766
-27.4775
-27.4784
-27.4793
-27.4803
-27.4813
-27.4824
-27.4834
-27.4845
-27.4857
-27.4868
-27.488
-27.4892
-27.4904
-27.4916
-27.4928
-27.4941
-27.4954
-27.4967
-27.4979
-27.4992
-27.5006
-27.5019
-27.5032
-27.5045
-27.5058
-27.5071
-27.5084
-27.5097
-27.511
-27.5123
-27.5136
-27.5149
-27.5162
-27.5174
-27.5187
-27.5199
-27.5211
-27.5223
-27.5234
-27.5246
-27.5257
-27.5268
-27.5279
-27.529
-27.53
-27.531
-27.532
-27.5329
-27.5339
-27.5348
-27.5356
-27.5365
-27.5373
-27.5381
-27.5388
-27.5395
-27.5402
-27.5409
-27.5415
-27.5421
-27.5426
-27.5432
-27.5437
-27.5441
-27.5446
-27.545
-27.5453
-27.5456
-27.5459
-27.5462
-27.5464
-27.5466
-27.5468
-27.5469
-27.547
-27.5471
-27.5472
-27.5472
-27.5471
-27.5471
-27.547
-27.5468
-27.5467
-27.5465
-27.5463
-27.546
-27.5457
-27.5454
-27.545
-27.5446
-27.5442
-27.5438
-27.5433
-27.5427
-27.5422
-27.5416
-27.541
-27.5403
-27.5397
-27.5389
-27.5382
-27.5374
-27.5366
-27.5358
-27.5349
-27.534
-27.5331
-27.5322
-27.5312
-27.5302
-27.5292
-27.5281
-27.527
-27.5259
-27.5248
-27.5237
-27.5225
-27.5213
-27.5201
-27.5189
-27.5177
-27.5164
-27.5152
-27.5139
-27.5126
-27.5113
-27.51
-27.5087
-27.5074
-27.5061
-27.5048
-27.5035
-27.5022
-27.5009
-27.4996
-27.4983
-27.497
-27.4957
-27.4944
-27.4932
-27.4919
-27.4907
-27.4895
-27.4883
-27.4871
-27.486
-27.4849
-27.4838
-27.4827
-27.4817
-27.4807
-27.4797
-27.4787
-27.4778
-27.4769
-27.4761
-27.4753
-27.4745
-27.4738
-27.4731
-27.4724
-27.4718
-27.4713
-27.4707
-27.4702
-27.4698
-27.4694
-27.4691
-27.4688
-27.4685
-27.4683
-27.4682
-27.468
-27.468
-27.468
-27.468
-27.4681
-31.3915
-31.3914
-31.3914
-31.3914
-31.3915
-31.3916
-31.3917
-31.392
-31.3922
-31.3925
-31.3929
-31.3933
-31.3937
-31.3942
-31.3947
-31.3953
-31.3959
-31.3966
-31.3973
-31.398
-31.3988
-31.3996
-31.4004
-31.4013
-31.4023
-31.4032
-31.4042
-31.4052
-31.4063
-31.4074
-31.4085
-31.4096
-31.4107
-31.4119
-31.4131
-31.4143
-31.4156
-31.4168
-31.4181
-31.4194
-31.4206
-31.4219
-31.4233
-31.4246
-31.4259
-31.4272
-31.4285
-31.4299
-31.4312
-31.4325
-31.4338
-31.4351
-31.4364
-31.4377
-31.439
-31.4403
-31.4415
-31.4428
-31.444
-31.4452
-31.4464
-31.4476
-31.4487
-31.4499
-31.451
-31.4521
-31.4531
-31.4542
-31.4552
-31.4562
-31.4571
-31.458
-31.4589
-31.4598
-31.4607
-31.4615
-31.4623
-31.463
-31.4637
-31.4644
-31.4651
-31.4657
-31.4663
-31.4669
-31.4674
-31.4679
-31.4683
-31.4688
-31.4692
-31.4695
-31.4699
-31.4702
-31.4704
-31.4707
-31.4709
-31.471
-31.4712
-31.4713
-31.4713
-31.4714
-31.4714
-31.4713
-31.4713
-31.4712
-31.4711
-31.4709
-31.4707
-31.4705
-31.4702
-31.4699
-31.4696
-31.4692
-31.4688
-31.4684
-31.468
-31.4675
-31.467
-31.4664
-31.4658
-31.4652
-31.4645
-31.4639
-31.4631
-31.4624
-31.4616
-31.4608
-31.46
-31.4591
-31.4582
-31.4573
-31.4563
-31.4554
-31.4543
-31.4533
-31.4523
-31.4512
-31.4501
-31.4489
-31.4478
-31.4466
-31.4454
-31.4442
-31.443
-31.4418
-31.4405
-31.4393
-31.438
-31.4367
-31.4354
-31.4341
-31.4328
-31.4315
-31.4301
-31.4288
-31.4275
-31.4262
-31.4249
-31.4236
-31.4223
-31.421
-31.4197
-31.4184
-31.4171
-31.4159
-31.4147
-31.4134
-31.4122
-31.4111
-31.4099
-31.4088
-31.4077
-31.4066
-31.4056
-31.4046
-31.4036
-31.4026
-31.4017
-31.4008
-31.4
-31.3991
-31.3984
-31.3976
-31.3969
-31.3963
-31.3957
-31.3951
-31.3946
-31.3941
-31.3936
-31.3932
-31.3929
-31.3926
-31.3923
-31.3921
-31.392
-31.3919
-31.3918
-31.3918
-31.3918
-31.3919
-35.3153
-35.3152
-35.3152
-35.3152
-35.3152
-35.3154
-35.3155
-35.3157
-35.316
-35.3163
-35.3166
-35.317
-35.3175
-35.318
-35.3185
-35.3191
-35.3197
-35.3204
-35.3211
-35.3218
-35.3226
-35.3234
-35.3243
-35.3252
-35.3261
-35.3271
-35.3281
-35.3291
-35.3302
-35.3312
-35.3323
-35.3335
-35.3346
-35.3358
-35.337
-35.3383
-35.3395
-35.3408
-35.342
-35.3433
-35.3446
-35.3459
-35.3472
-35.3486
-35.3499
-35.3512
-35.3526
-35.3539
-35.3552
-35.3566
-35.3579
-35.3592
-35.3605
-35.3618
-35.3631
-35.3644
-35.3656
-35.3669
-35.3681
-35.3693
-35.3705
-35.3717
-35.3729
-35.374
-35.3751
-35.3762
-35.3773
-35.3783
-35.3794
-35.3804
-35.3813
-35.3823
-35.3832
-35.384
-35.3849
-35.3857
-35.3865
-35.3872
-35.388
-35.3887
-35.3893
-35.3899
-35.3905
-35.3911
-35.3916
-35.3921
-35.3926
-35.393
-35.3934
-35.3938
-35.3941
-35.3944
-35.3947
-35.3949
-35.3951
-35.3953
-35.3954
-35.3955
-35.3956
-35.3956
-35.3956
-35.3956
-35.3956
-35.3955
-35.3953
-35.3952
-35.395
-35.3947
-35.3945
-35.3942
-35.3939
-35.3935
-35.3931
-35.3927
-35.3922
-35.3917
-35.3912
-35.3907
-35.3901
-35.3894
-35.3888
-35.3881
-35.3874
-35.3866
-35.3858
-35.385
-35.3842
-35.3833
-35.3824
-35.3815
-35.3805
-35.3796
-35.3785
-35.3775
-35.3764
-35.3754
-35.3742
-35.3731
-35.372
-35.3708
-35.3696
-35.3684
-35.3671
-35.3659
-35.3646
-35.3634
-35.3621
-35.3608
-35.3595
-35.3582
-35.3568
-35.3555
-35.3542
-35.3529
-35.3515
-35.3502
-35.3489
-35.3476
-35.3462
-35.3449
-35.3436
-35.3424
-35.3411
-35.3398
-35.3386
-35.3374
-35.3362
-35.335
-35.3338
-35.3327
-35.3316
-35.3305
-35.3294
-35.3284
-35.3274
-35.3265
-35.3255
-35.3246
-35.3238
-35.323
-35.3222
-35.3214
-35.3207
-35.3201
-35.3195
-35.3189
-35.3183
-35.3179
-35.3174
-35.317
-35.3167
-35.3164
-35.3161
-35.3159
-35.3157
-35.3156
-35.3156
-35.3155
-35.3156
-35.3157
-39.239
-39.2389
-39.2389
-39.2389
-39.239
-39.2391
-39.2393
-39.2395
-39.2397
-39.24
-39.2404
-39.2408
-39.2412
-39.2417
-39.2423
-39.2428
-39.2435
-39.2441
-39.2448
-39.2456
-39.2464
-39.2472
-39.2481
-39.249
-39.2499
-39.2509
-39.2519
-39.2529
-39.254
-39.2551
-39.2562
-39.2574
-39.2585
-39.2597
-39.2609
-39.2622
-39.2634
-39.2647
-39.266
-39.2673
-39.2686
-39.2699
-39.2712
-39.2726
-39.2739
-39.2753
-39.2766
-39.2779
-39.2793
-39.2806
-39.282
-39.2833
-39.2846
-39.2859
-39.2872
-39.2885
-39.2898
-39.291
-39.2923
-39.2935
-39.2947
-39.2959
-39.2971
-39.2982
-39.2993
-39.3004
-39.3015
-39.3026
-39.3036
-39.3046
-39.3056
-39.3065
-39.3074
-39.3083
-39.3091
-39.31
-39.3108
-39.3115
-39.3122
-39.3129
-39.3136
-39.3142
-39.3148
-39.3154
-39.3159
-39.3164
-39.3169
-39.3173
-39.3177
-39.3181
-39.3184
-39.3187
-39.319
-39.3192
-39.3195
-39.3196
-39.3198
-39.3199
-39.3199
-39.32
-39.32
-39.3199
-39.3199
-39.3198
-39.3196
-39.3195
-39.3193
-39.3191
-39.3188
-39.3185
-39.3182
-39.3178
-39.3174
-39.317
-39.3165
-39.316
-39.3155
-39.3149
-39.3144
-39.3137
-39.3131
-39.3124
-39.3117
-39.3109
-39.3101
-39.3093
-39.3085
-39.3076
-39.3067
-39.3057
-39.3048
-39.3038
-39.3028
-39.3017
-39.3006
-39.2996
-39.2984
-39.2973
-39.2961
-39.2949
-39.2937
-39.2925
-39.2913
-39.29
-39.2888
-39.2875
-39.2862
-39.2849
-39.2836
-39.2822
-39.2809
-39.2796
-39.2782
-39.2769
-39.2755
-39.2742
-39.2729
-39.2715
-39.2702
-39.2689
-39.2676
-39.2663
-39.265
-39.2638
-39.2625
-39.2613
-39.2601
-39.2589
-39.2577
-39.2566
-39.2554
-39.2544
-39.2533
-39.2523
-39.2513
-39.2503
-39.2493
-39.2484
-39.2476
-39.2468
-39.246
-39.2452
-39.2445
-39.2438
-39.2432
-39.2426
-39.2421
-39.2416
-39.2412
-39.2408
-39.2404
-39.2401
-39.2398
-39.2396
-39.2395
-39.2394
-39.2393
-39.2393
-39.2393
-39.2394
-43.1627
-43.1626
-43.1626
-43.1626
-43.1627
-43.1628
-43.1629
-43.1632
-43.1634
-43.1637
-43.1641
-43.1645
-43.1649
-43.1654
-43.166
-43.1666
-43.1672
-43.1679
-43.1686
-43.1694
-43.1702
-43.171
-43.1719
-43.1728
-43.1737
-43.1747
-43.1757
-43.1768
-43.1778
-43.1789
-43.1801
-43.1812
-43.1824
-43.1836
-43.1848
-43.1861
-43.1874
-43.1886
-43.1899
-43.1912
-43.1926
-43.1939
-43.1952
-43.1966
-43.1979
-43.1993
-43.2006
-43.202
-43.2033
-43.2047
-43.206
-43.2074
-43.2087
-43.21
-43.2113
-43.2126
-43.2139
-43.2152
-43.2164
-43.2177
-43.2189
-43.2201
-43.2213
-43.2224
-43.2236
-43.2247
-43.2258
-43.2268
-43.2278
-43.2289
-43.2298
-43.2308
-43.2317
-43.2326
-43.2334
-43.2343
-43.2351
-43.2358
-43.2366
-43.2373
-43.2379
-43.2386
-43.2392
-43.2397
-43.2403
-43.2408
-43.2413
-43.2417
-43.2421
-43.2425
-43.2428
-43.2431
-43.2434
-43.2436
-43.2438
-43.244
-43.2441
-43.2442
-43.2443
-43.2443
-43.2443
-43.2443
-43.2442
-43.2441
-43.244
-43.2438
-43.2437
-43.2434
-43.2432
-43.2429
-43.2425
-43.2422
-43.2418
-43.2413
-43.2409
-43.2404
-43.2398
-43.2393
-43.2387
-43.2381
-43.2374
-43.2367
-43.236
-43.2352
-43.2344
-43.2336
-43.2327
-43.2319
-43.231
-43.23
-43.229
-43.228
-43.227
-43.226
-43.2249
-43.2238
-43.2227
-43.2215
-43.2203
-43.2191
-43.2179
-43.2167
-43.2154
-43.2142
-43.2129
-43.2116
-43.2103
-43.209
-43.2076
-43.2063
-43.205
-43.2036
-43.2023
-43.2009
-43.1996
-43.1982
-43.1969
-43.1955
-43.1942
-43.1929
-43.1916
-43.1903
-43.189
-43.1877
-43.1864
-43.1852
-43.184
-43.1828
-43.1816
-43.1804
-43.1793
-43.1782
-43.1771
-43.1761
-43.1751
-43.1741
-43.1731
-43.1722
-43.1714
-43.1705
-43.1697
-43.169
-43.1682
-43.1676
-43.1669
-43.1664
-43.1658
-43.1653
-43.1649
-43.1645
-43.1641
-43.1638
-43.1635
-43.1633
-43.1632
-43.163
-43.163
-43.163
-43.163
-43.1631
-47.0864
-47.0863
-47.0862
-47.0862
-47.0863
-47.0864
-47.0866
-47.0868
-47.0871
-47.0874
-47.0878
-47.0882
-47.0886
-47.0891
-47.0897
-47.0903
-47.0909
-47.0916
-47.0923
-47.0931
-47.0939
-47.0947
-47.0956
-47.0965
-47.0975
-47.0985
-47.0995
-47.1006
-47.1016
-47.1028
-47.1039
-47.1051
-47.1063
-47.1075
-47.1087
-47.11
-47.1113
-47.1126
-47.1139
-47.1152
-47.1165
-47.1179
-47.1192
-47.1206
-47.1219
-47.1233
-47.1247
-47.126
-47.1274
-47.1288
-47.1301
-47.1315
-47.1328
-47.1342
-47.1355
-47.1368
-47.1381
-47.1394
-47.1406
-47.1419
-47.1431
-47.1443
-47.1455
-47.1467
-47.1478
-47.1489
-47.15
-47.1511
-47.1521
-47.1532
-47.1541
-47.1551
-47.156
-47.1569
-47.1578
-47.1586
-47.1594
-47.1602
-47.1609
-47.1616
-47.1623
-47.1629
-47.1636
-47.1641
-47.1647
-47.1652
-47.1656
-47.1661
-47.1665
-47.1669
-47.1672
-47.1675
-47.1678
-47.168
-47.1682
-47.1684
-47.1685
-47.1686
-47.1687
-47.1687
-47.1688
-47.1687
-47.1687
-47.1686
-47.1684
-47.1683
-47.1681
-47.1678
-47.1676
-47.1673
-47.1669
-47.1666
-47.1662
-47.1657
-47.1653
-47.1648
-47.1642
-47.1637
-47.1631
-47.1624
-47.1618
-47.1611
-47.1603
-47.1596
-47.1588
-47.1579
-47.1571
-47.1562
-47.1553
-47.1543
-47.1533
-47.1523
-47.1513
-47.1502
-47.1491
-47.148
-47.1469
-47.1457
-47.1446
-47.1433
-47.1421
-47.1409
-47.1396
-47.1383
-47.137
-47.1357
-47.1344
-47.1331
-47.1317
-47.1304
-47.129
-47.1277
-47.1263
-47.125
-47.1236
-47.1222
-47.1209
-47.1195
-47.1182
-47.1168
-47.1155
-47.1142
-47.1129
-47.1116
-47.1103
-47.1091
-47.1078
-47.1066
-47.1054
-47.1043
-47.1031
-47.102
-47.1009
-47.0999
-47.0988
-47.0978
-47.0969
-47.096
-47.0951
-47.0942
-47.0934
-47.0927
-47.092
-47.0913
-47.0906
-47.09
-47.0895
-47.089
-47.0885
-47.0881
-47.0878
-47.0875
-47.0872
-47.087
-47.0868
-47.0867
-47.0866
-47.0866
-47.0867
-47.0867
-51.01
-51.0099
-51.0098
-51.0099
-51.0099
-51.01
-51.0102
-51.0104
-51.0107
-51.011
-51.0114
-51.0118
-51.0123
-51.0128
-51.0133
-51.0139
-51.0146
-51.0153
-51.016
-51.0168
-51.0176
-51.0184
-51.0193
-51.0203
-51.0212
-51.0222
-51.0233
-51.0243
-51.0254
-51.0266
-51.0277
-51.0289
-51.0301
-51.0313
-51.0326
-51.0339
-51.0352
-51.0365
-51.0378
-51.0391
-51.0405
-51.0418
-51.0432
-51.0446
-51.0459
-51.0473
-51.0487
-51.0501
-51.0515
-51.0528
-51.0542
-51.0556
-51.0569
-51.0583
-51.0596
-51.061
-51.0623
-51.0636
-51.0648
-51.0661
-51.0673
-51.0686
-51.0698
-51.0709
-51.0721
-51.0732
-51.0743
-51.0754
-51.0765
-51.0775
-51.0785
-51.0794
-51.0804
-51.0813
-51.0822
-51.083
-51.0838
-51.0846
-51.0853
-51.086
-51.0867
-51.0874
-51.088
-51.0886
-51.0891
-51.0896
-51.0901
-51.0905
-51.0909
-51.0913
-51.0917
-51.092
-51.0922
-51.0925
-51.0927
-51.0929
-51.093
-51.0931
-51.0932
-51.0932
-51.0932
-51.0932
-51.0931
-51.093
-51.0929
-51.0927
-51.0925
-51.0923
-51.092
-51.0917
-51.0914
-51.091
-51.0906
-51.0902
-51.0897
-51.0892
-51.0887
-51.0881
-51.0875
-51.0868
-51.0862
-51.0855
-51.0847
-51.084
-51.0831
-51.0823
-51.0814
-51.0805
-51.0796
-51.0787
-51.0777
-51.0767
-51.0756
-51.0745
-51.0734
-51.0723
-51.0712
-51.07
-51.0688
-51.0676
-51.0663
-51.0651
-51.0638
-51.0625
-51.0612
-51.0599
-51.0586
-51.0572
-51.0559
-51.0545
-51.0531
-51.0518
-51.0504
-51.049
-51.0476
-51.0462
-51.0449
-51.0435
-51.0421
-51.0408
-51.0394
-51.0381
-51.0368
-51.0355
-51.0342
-51.0329
-51.0317
-51.0304
-51.0292
-51.0281
-51.0269
-51.0258
-51.0247
-51.0236
-51.0226
-51.0216
-51.0206
-51.0197
-51.0188
-51.0179
-51.0171
-51.0164
-51.0156
-51.0149
-51.0143
-51.0137
-51.0131
-51.0126
-51.0122
-51.0118
-51.0114
-51.0111
-51.0108
-51.0106
-51.0104
-51.0103
-51.0102
-51.0102
-51.0103
-51.0103
-54.9335
-54.9335
-54.9334
-54.9334
-54.9335
-54.9336
-54.9338
-54.934
-54.9343
-54.9346
-54.935
-54.9354
-54.9359
-54.9364
-54.9369
-54.9375
-54.9382
-54.9389
-54.9396
-54.9404
-54.9412
-54.9421
-54.943
-54.944
-54.9449
-54.946
-54.947
-54.9481
-54.9492
-54.9503
-54.9515
-54.9527
-54.9539
-54.9552
-54.9564
-54.9577
-54.959
-54.9604
-54.9617
-54.963
-54.9644
-54.9658
-54.9672
-54.9686
-54.97
-54.9714
-54.9727
-54.9741
-54.9755
-54.9769
-54.9783
-54.9797
-54.9811
-54.9824
-54.9838
-54.9851
-54.9865
-54.9878
-54.9891
-54.9903
-54.9916
-54.9928
-54.9941
-54.9952
-54.9964
-54.9976
-54.9987
-54.9998
-55.0008
-55.0019
-55.0029
-55.0038
-55.0048
-55.0057
-55.0066
-55.0074
-55.0082
-55.009
-55.0098
-55.0105
-55.0112
-55.0118
-55.0125
-55.013
-55.0136
-55.0141
-55.0146
-55.015
-55.0154
-55.0158
-55.0162
-55.0165
-55.0168
-55.017
-55.0172
-55.0174
-55.0175
-55.0176
-55.0177
-55.0177
-55.0177
-55.0177
-55.0176
-55.0175
-55.0174
-55.0172
-55.017
-55.0168
-55.0165
-55.0162
-55.0159
-55.0155
-55.0151
-55.0147
-55.0142
-55.0137
-55.0131
-55.0126
-55.0119
-55.0113
-55.0106
-55.0099
-55.0092
-55.0084
-55.0076
-55.0067
-55.0059
-55.0049
-55.004
-55.003
-55.002
-55.001
-55
-54.9989
-54.9978
-54.9966
-54.9955
-54.9943
-54.9931
-54.9918
-54.9906
-54.9893
-54.988
-54.9867
-54.9854
-54.9841
-54.9827
-54.9814
-54.98
-54.9786
-54.9772
-54.9758
-54.9744
-54.973
-54.9717
-54.9703
-54.9689
-54.9675
-54.9661
-54.9647
-54.9634
-54.962
-54.9607
-54.9594
-54.9581
-54.9568
-54.9555
-54.9543
-54.953
-54.9519
-54.9507
-54.9495
-54.9484
-54.9474
-54.9463
-54.9453
-54.9443
-54.9434
-54.9425
-54.9416
-54.9408
-54.94
-54.9393
-54.9386
-54.9379
-54.9373
-54.9368
-54.9362
-54.9358
-54.9354
-54.935
-54.9347
-54.9344
-54.9342
-54.934
-54.9339
-54.9338
-54.9338
-54.9338
-54.9339
-58.8571
-58.857
-58.8569
-58.857
-58.857
-58.8572
-58.8573
-58.8575
-58.8578
-58.8581
-58.8585
-58.8589
-58.8594
-58.8599
-58.8605
-58.8611
-58.8618
-58.8625
-58.8633
-58.864
-58.8649
-58.8658
-58.8667
-58.8676
-58.8686
-58.8697
-58.8707
-58.8718
-58.8729
-58.8741
-58.8753
-58.8765
-58.8777
-58.879
-58.8803
-58.8816
-58.8829
-58.8842
-58.8856
-58.887
-58.8884
-58.8897
-58.8911
-58.8926
-58.894
-58.8954
-58.8968
-58.8982
-58.8996
-58.901
-58.9024
-58.9038
-58.9052
-58.9066
-58.908
-58.9093
-58.9107
-58.912
-58.9133
-58.9146
-58.9159
-58.9171
-58.9184
-58.9196
-58.9207
-58.9219
-58.923
-58.9241
-58.9252
-58.9263
-58.9273
-58.9283
-58.9292
-58.9301
-58.931
-58.9319
-58.9327
-58.9335
-58.9343
-58.935
-58.9357
-58.9363
-58.937
-58.9376
-58.9381
-58.9386
-58.9391
-58.9396
-58.94
-58.9404
-58.9407
-58.941
-58.9413
-58.9416
-58.9418
-58.9419
-58.9421
-58.9422
-58.9423
-58.9423
-58.9423
-58.9423
-58.9422
-58.9421
-58.942
-58.9418
-58.9416
-58.9414
-58.9411
-58.9408
-58.9404
-58.9401
-58.9397
-58.9392
-58.9387
-58.9382
-58.9377
-58.9371
-58.9365
-58.9358
-58.9351
-58.9344
-58.9336
-58.9329
-58.932
-58.9312
-58.9303
-58.9294
-58.9284
-58.9275
-58.9264
-58.9254
-58.9243
-58.9232
-58.9221
-58.921
-58.9198
-58.9186
-58.9174
-58.9161
-58.9149
-58.9136
-58.9123
-58.9109
-58.9096
-58.9083
-58.9069
-58.9055
-58.9041
-58.9027
-58.9013
-58.8999
-58.8985
-58.8971
-58.8957
-58.8943
-58.8929
-58.8915
-58.8901
-58.8887
-58.8873
-58.8859
-58.8846
-58.8832
-58.8819
-58.8806
-58.8793
-58.8781
-58.8768
-58.8756
-58.8744
-58.8733
-58.8722
-58.8711
-58.87
-58.869
-58.868
-58.867
-58.8661
-58.8653
-58.8644
-58.8636
-58.8629
-58.8622
-58.8615
-58.8609
-58.8603
-58.8598
-58.8593
-58.8589
-58.8585
-58.8582
-58.8579
-58.8577
-58.8575
-58.8574
-58.8573
-58.8573
-58.8574
-58.8575
-62.7806
-62.7805
-62.7804
-62.7804
-62.7805
-62.7806
-62.7808
-62.781
-62.7813
-62.7817
-62.782
-62.7825
-62.7829
-62.7835
-62.7841
-62.7847
-62.7854
-62.7861
-62.7868
-62.7876
-62.7885