/*--------------------------------*- C++ -*----------------------------------*\
| =========                 |                                                 |
| \\      /  F ield         | OpenFOAM: The Open Source CFD Toolbox           |
|  \\    /   O peration     | Version:  2412                                  |
|   \\  /    A nd           | Website:  www.openfoam.com                      |
|    \\/     M anipulation  |                                                 |
\*---------------------------------------------------------------------------*/
FoamFile
{
    version     2.0;
    format      ascii;
    arch        "LSB;label=32;scalar=64";
    class       surfaceScalarField;
    location    "1.23";
    object      phi;
}
// * * * * * * * * * * * * * * * * * * * * * * * * * * * * * * * * * * * * * //

dimensions      [0 3 -1 0 0 0 0];

oriented        oriented;

internalField   nonuniform List<scalar> 
79600
(
1.4794e-11
-1.48223e-11
4.49293e-11
-3.01352e-11
8.02259e-11
-3.53e-11
1.17123e-10
-3.68997e-11
1.54562e-10
-3.74336e-11
1.9213e-10
-3.75638e-11
2.2962e-10
-3.74906e-11
2.66931e-10
-3.73149e-11
3.04014e-10
-3.70845e-11
3.40837e-10
-3.68219e-11
3.77374e-10
-3.65346e-11
4.13599e-10
-3.6223e-11
4.49485e-10
-3.5886e-11
4.85007e-10
-3.55226e-11
5.20139e-10
-3.51323e-11
5.54853e-10
-3.47145e-11
5.89122e-10
-3.42688e-11
6.22917e-10
-3.37949e-11
6.56209e-10
-3.32927e-11
6.88971e-10
-3.2762e-11
7.21173e-10
-3.22027e-11
7.52787e-10
-3.16148e-11
7.83784e-10
-3.09979e-11
8.14136e-10
-3.03522e-11
8.43814e-10
-2.96776e-11
8.72789e-10
-2.89745e-11
9.01031e-10
-2.82433e-11
9.28514e-10
-2.7484e-11
9.5521e-10
-2.66968e-11
9.81091e-10
-2.58816e-11
1.00613e-09
-2.50386e-11
1.0303e-09
-2.41683e-11
1.05357e-09
-2.32711e-11
1.07592e-09
-2.23475e-11
1.09731e-09
-2.13979e-11
1.11773e-09
-2.04222e-11
1.13715e-09
-1.94209e-11
1.15555e-09
-1.83943e-11
1.17289e-09
-1.7343e-11
1.18916e-09
-1.62679e-11
1.20433e-09
-1.51697e-11
1.21838e-09
-1.40491e-11
1.23128e-09
-1.29065e-11
1.24303e-09
-1.17426e-11
1.25359e-09
-1.05582e-11
1.26294e-09
-9.35445e-12
1.27108e-09
-8.13254e-12
1.27797e-09
-6.89356e-12
1.28361e-09
-5.63839e-12
1.28798e-09
-4.36777e-12
1.29106e-09
-3.08228e-12
1.29284e-09
-1.78226e-12
1.29331e-09
-4.69079e-13
1.29244e-09
8.71265e-13
1.29023e-09
2.20509e-12
1.28668e-09
3.54798e-12
1.28179e-09
4.89246e-12
1.27555e-09
6.23862e-12
1.26796e-09
7.58617e-12
1.25903e-09
8.93402e-12
1.24875e-09
1.02807e-11
1.23712e-09
1.16248e-11
1.22416e-09
1.29648e-11
1.20986e-09
1.42993e-11
1.19424e-09
1.56263e-11
1.17729e-09
1.69439e-11
1.15904e-09
1.82501e-11
1.1395e-09
1.95429e-11
1.11868e-09
2.08205e-11
1.0966e-09
2.20814e-11
1.07328e-09
2.33238e-11
1.04873e-09
2.4546e-11
1.02298e-09
2.57459e-11
9.96061e-10
2.69219e-11
9.67989e-10
2.8072e-11
9.38795e-10
2.91947e-11
9.08508e-10
3.0288e-11
8.77158e-10
3.13503e-11
8.44778e-10
3.23797e-11
8.11403e-10
3.33746e-11
7.77069e-10
3.43334e-11
7.41813e-10
3.52548e-11
7.05676e-10
3.61374e-11
6.68697e-10
3.69794e-11
6.30918e-10
3.77792e-11
5.92383e-10
3.85355e-11
5.53135e-10
3.92471e-11
5.13222e-10
3.99131e-11
4.7269e-10
4.05325e-11
4.31586e-10
4.11042e-11
3.8996e-10
4.16269e-11
3.47861e-10
4.20997e-11
3.05339e-10
4.25217e-11
2.62447e-10
4.28924e-11
2.19236e-10
4.32112e-11
1.75758e-10
4.34777e-11
1.32067e-10
4.36912e-11
8.82144e-11
4.38516e-11
4.42556e-11
4.39582e-11
2.44911e-13
4.40104e-11
-4.3766e-11
4.40107e-11
-8.77253e-11
4.39588e-11
-1.31579e-10
4.38522e-11
-1.75272e-10
4.36916e-11
-2.18752e-10
4.34778e-11
-2.61964e-10
4.32114e-11
-3.04857e-10
4.2893e-11
-3.47379e-10
4.25228e-11
-3.8948e-10
4.21014e-11
-4.31108e-10
4.16293e-11
-4.72214e-10
4.11071e-11
-5.1275e-10
4.0536e-11
-5.52666e-10
3.99168e-11
-5.91918e-10
3.92507e-11
-6.30457e-10
3.8539e-11
-6.6824e-10
3.7783e-11
-7.05223e-10
3.6984e-11
-7.41365e-10
3.61431e-11
-7.76624e-10
3.52614e-11
-8.10963e-10
3.43405e-11
-8.44344e-10
3.33817e-11
-8.7673e-10
3.23866e-11
-9.08087e-10
3.13571e-11
-9.38383e-10
3.0295e-11
-9.67585e-10
2.92019e-11
-9.95665e-10
2.80798e-11
-1.02259e-09
2.69304e-11
-1.04835e-09
2.57552e-11
-1.0729e-09
2.45557e-11
-1.09623e-09
2.3334e-11
-1.11832e-09
2.20918e-11
-1.13915e-09
2.08307e-11
-1.15871e-09
1.95527e-11
-1.17697e-09
1.82602e-11
-1.19392e-09
1.69549e-11
-1.20956e-09
1.56382e-11
-1.22387e-09
1.43122e-11
-1.23685e-09
1.29787e-11
-1.24849e-09
1.16388e-11
-1.25878e-09
1.02944e-11
-1.26773e-09
8.94759e-12
-1.27533e-09
7.59974e-12
-1.28158e-09
6.25157e-12
-1.28649e-09
4.90481e-12
-1.29005e-09
3.56032e-12
-1.29226e-09
2.21703e-12
-1.29314e-09
8.82293e-13
-1.29269e-09
-4.5833e-13
-1.29091e-09
-1.77079e-12
-1.28784e-09
-3.06993e-12
-1.28349e-09
-4.35483e-12
-1.27786e-09
-5.62497e-12
-1.27098e-09
-6.87926e-12
-1.26286e-09
-8.11714e-12
-1.25353e-09
-9.33827e-12
-1.24299e-09
-1.05414e-11
-1.23126e-09
-1.17249e-11
-1.21837e-09
-1.28881e-11
-1.20434e-09
-1.4031e-11
-1.18919e-09
-1.51522e-11
-1.17294e-09
-1.62508e-11
-1.15561e-09
-1.7326e-11
-1.13723e-09
-1.83773e-11
-1.11783e-09
-1.94039e-11
-1.09743e-09
-2.04043e-11
-1.07605e-09
-2.13791e-11
-1.05372e-09
-2.23282e-11
-1.03047e-09
-2.32509e-11
-1.00632e-09
-2.4147e-11
-9.81299e-10
-2.50169e-11
-9.55438e-10
-2.58604e-11
-9.28762e-10
-2.66757e-11
-9.013e-10
-2.74621e-11
-8.7308e-10
-2.82201e-11
-8.44131e-10
-2.89484e-11
-8.14482e-10
-2.96471e-11
-7.84164e-10
-3.03177e-11
-7.53203e-10
-3.09608e-11
-7.21626e-10
-3.15759e-11
-6.89464e-10
-3.21628e-11
-6.56743e-10
-3.27215e-11
-6.23494e-10
-3.32508e-11
-5.89743e-10
-3.37492e-11
-5.55525e-10
-3.42173e-11
-5.20867e-10
-3.46565e-11
-4.85801e-10
-3.50665e-11
-4.50354e-10
-3.54467e-11
-4.14554e-10
-3.57996e-11
-3.78431e-10
-3.61236e-11
-3.42011e-10
-3.6418e-11
-3.05327e-10
-3.66844e-11
-2.68406e-10
-3.69205e-11
-2.31282e-10
-3.71255e-11
-1.93983e-10
-3.72977e-11
-1.56552e-10
-3.74305e-11
-1.19058e-10
-3.74945e-11
-8.17345e-11
-3.73236e-11
-4.5624e-11
-3.61124e-11
-1.47616e-11
-3.08645e-11
-1.47631e-11
3.11592e-11
-4.59814e-11
8.83065e-11
-8.72763e-11
1.52404e-10
-9.93951e-11
2.18057e-10
-1.02561e-10
2.84117e-10
-1.03502e-10
3.50253e-10
-1.037e-10
4.16281e-10
-1.03514e-10
4.82075e-10
-1.03105e-10
5.47546e-10
-1.02555e-10
6.12627e-10
-1.01902e-10
6.77258e-10
-1.01165e-10
7.41386e-10
-1.0035e-10
8.0496e-10
-9.9459e-11
8.67929e-10
-9.84921e-11
9.30245e-10
-9.74489e-11
9.91859e-10
-9.63288e-11
1.05272e-09
-9.51311e-11
1.11278e-09
-9.38558e-11
1.17199e-09
-9.25026e-11
1.2303e-09
-9.10712e-11
1.28766e-09
-8.95614e-11
1.34401e-09
-8.79728e-11
1.39932e-09
-8.63052e-11
1.45353e-09
-8.45585e-11
1.50658e-09
-8.2733e-11
1.55844e-09
-8.0829e-11
1.60904e-09
-7.88467e-11
1.65834e-09
-7.67863e-11
1.70629e-09
-7.46481e-11
1.75284e-09
-7.24325e-11
1.79794e-09
-7.014e-11
1.84154e-09
-6.77714e-11
1.8836e-09
-6.53272e-11
1.92406e-09
-6.28082e-11
1.96287e-09
-6.02148e-11
2e-09
-5.75478e-11
2.03538e-09
-5.48081e-11
2.06899e-09
-5.1997e-11
2.10076e-09
-4.91159e-11
2.13066e-09
-4.61664e-11
2.15864e-09
-4.315e-11
2.18466e-09
-4.00682e-11
2.20868e-09
-3.69225e-11
2.23065e-09
-3.37149e-11
2.25054e-09
-3.04478e-11
2.26831e-09
-2.71235e-11
2.28393e-09
-2.37448e-11
2.29734e-09
-2.03141e-11
2.30854e-09
-1.68339e-11
2.31748e-09
-1.33067e-11
2.32413e-09
-9.73491e-12
2.32847e-09
-6.12108e-12
2.33046e-09
-2.46666e-12
2.3301e-09
1.22899e-12
2.32736e-09
4.95402e-12
2.3222e-09
8.69854e-12
2.31464e-09
1.246e-11
2.30464e-09
1.6236e-11
2.2922e-09
2.00235e-11
2.27732e-09
2.38186e-11
2.25998e-09
2.76173e-11
2.24019e-09
3.1415e-11
2.21795e-09
3.52073e-11
2.19326e-09
3.8989e-11
2.16614e-09
4.2755e-11
2.13658e-09
4.64997e-11
2.10461e-09
5.02178e-11
2.07025e-09
5.3904e-11
2.03352e-09
5.75533e-11
1.99444e-09
6.11604e-11
1.95304e-09
6.47201e-11
1.90936e-09
6.82268e-11
1.86343e-09
7.16749e-11
1.8153e-09
7.50588e-11
1.765e-09
7.8373e-11
1.71258e-09
8.16123e-11
1.6581e-09
8.47711e-11
1.6016e-09
8.78442e-11
1.54316e-09
9.08264e-11
1.48282e-09
9.37128e-11
1.42065e-09
9.64984e-11
1.35673e-09
9.91782e-11
1.29112e-09
1.01747e-10
1.2239e-09
1.04201e-10
1.15514e-09
1.06534e-10
1.08493e-09
1.08743e-10
1.01336e-09
1.10824e-10
9.40498e-10
1.12774e-10
8.66443e-10
1.14588e-10
7.91285e-10
1.16263e-10
7.15116e-10
1.17796e-10
6.38032e-10
1.19184e-10
5.6013e-10
1.20424e-10
4.81509e-10
1.21513e-10
4.02268e-10
1.22451e-10
3.2251e-10
1.23235e-10
2.42336e-10
1.23864e-10
1.61849e-10
1.24337e-10
8.1155e-11
1.24652e-10
3.56614e-13
1.24808e-10
-8.04422e-11
1.24808e-10
-1.61138e-10
1.24652e-10
-2.41626e-10
1.24338e-10
-3.21802e-10
1.23865e-10
-4.01562e-10
1.23237e-10
-4.80804e-10
1.22454e-10
-5.59427e-10
1.21517e-10
-6.3733e-10
1.20428e-10
-7.14417e-10
1.19189e-10
-7.90588e-10
1.17802e-10
-8.6575e-10
1.16269e-10
-9.3981e-10
1.14595e-10
-1.01267e-09
1.12781e-10
-1.08426e-09
1.10833e-10
-1.15447e-09
1.08753e-10
-1.22323e-09
1.06545e-10
-1.29046e-09
1.04213e-10
-1.35607e-09
1.01761e-10
-1.42e-09
9.9193e-11
-1.48217e-09
9.65137e-11
-1.54252e-09
9.37284e-11
-1.60098e-09
9.08419e-11
-1.65748e-09
8.78597e-11
-1.71197e-09
8.47874e-11
-1.7644e-09
8.16298e-11
-1.81471e-09
7.8392e-11
-1.86286e-09
7.50793e-11
-1.9088e-09
7.16968e-11
-1.95249e-09
6.82496e-11
-1.99389e-09
6.47434e-11
-2.03299e-09
6.11842e-11
-2.06973e-09
5.75771e-11
-2.10411e-09
5.39276e-11
-2.13609e-09
5.02418e-11
-2.16566e-09
4.6525e-11
-2.1928e-09
4.27818e-11
-2.2175e-09
3.90172e-11
-2.23976e-09
3.52368e-11
-2.25957e-09
3.14457e-11
-2.27692e-09
2.76481e-11
-2.29182e-09
2.38487e-11
-2.30428e-09
2.0053e-11
-2.31429e-09
1.62651e-11
-2.32187e-09
1.24883e-11
-2.32704e-09
8.72609e-12
-2.3298e-09
4.98104e-12
-2.33017e-09
1.25579e-12
-2.32819e-09
-2.43982e-12
-2.32387e-09
-6.09318e-12
-2.31723e-09
-9.70582e-12
-2.30831e-09
-1.32764e-11
-2.29713e-09
-1.68023e-11
-2.28373e-09
-2.02812e-11
-2.26814e-09
-2.37106e-11
-2.25039e-09
-2.70879e-11
-2.23052e-09
-3.04105e-11
-2.20856e-09
-3.36762e-11
-2.18457e-09
-3.68831e-11
-2.15857e-09
-4.00293e-11
-2.13061e-09
-4.3112e-11
-2.10073e-09
-4.61295e-11
-2.06898e-09
-4.90798e-11
-2.0354e-09
-5.19602e-11
-2.00003e-09
-5.47695e-11
-1.96293e-09
-5.7507e-11
-1.92413e-09
-6.01718e-11
-1.8837e-09
-6.27635e-11
-1.84166e-09
-6.52814e-11
-1.79808e-09
-6.77255e-11
-1.75301e-09
-7.00945e-11
-1.70648e-09
-7.23865e-11
-1.65855e-09
-7.46014e-11
-1.60928e-09
-7.67378e-11
-1.5587e-09
-7.87945e-11
-1.50687e-09
-8.07711e-11
-1.45385e-09
-8.26684e-11
-1.39968e-09
-8.44885e-11
-1.34441e-09
-8.62306e-11
-1.28809e-09
-8.78944e-11
-1.23078e-09
-8.94808e-11
-1.17251e-09
-9.09891e-11
-1.11334e-09
-9.24165e-11
-1.05333e-09
-9.37629e-11
-9.92515e-10
-9.50303e-11
-9.30954e-10
-9.62169e-11
-8.68695e-10
-9.73241e-11
-8.05789e-10
-9.8354e-11
-7.42282e-10
-9.93053e-11
-6.78225e-10
-1.00179e-10
-6.13667e-10
-1.00976e-10
-5.48657e-10
-1.01695e-10
-4.83245e-10
-1.02333e-10
-4.1748e-10
-1.02892e-10
-3.51409e-10
-1.03368e-10
-2.85085e-10
-1.03755e-10
-2.18588e-10
-1.03993e-10
-1.5221e-10
-1.03702e-10
-8.7406e-11
-1.00913e-10
-3.03235e-11
-8.79404e-11
-4.50895e-11
3.60574e-11
-8.20421e-11
1.01281e-10
-1.525e-10
1.73855e-10
-1.7196e-10
2.4765e-10
-1.76353e-10
3.21505e-10
-1.77361e-10
3.95251e-10
-1.7745e-10
4.68827e-10
-1.77089e-10
5.42152e-10
-1.76427e-10
6.15147e-10
-1.75547e-10
6.87738e-10
-1.74491e-10
7.59856e-10
-1.73283e-10
8.31439e-10
-1.71933e-10
9.02426e-10
-1.70447e-10
9.7276e-10
-1.68826e-10
1.04238e-09
-1.67073e-10
1.11124e-09
-1.65186e-10
1.17927e-09
-1.63165e-10
1.24643e-09
-1.61012e-10
1.31265e-09
-1.58725e-10
1.37788e-09
-1.56303e-10
1.44207e-09
-1.53748e-10
1.50515e-09
-1.51058e-10
1.56708e-09
-1.48234e-10
1.6278e-09
-1.45275e-10
1.68725e-09
-1.42181e-10
1.74537e-09
-1.38953e-10
1.80212e-09
-1.3559e-10
1.85742e-09
-1.32094e-10
1.91124e-09
-1.28464e-10
1.96351e-09
-1.24701e-10
2.01417e-09
-1.20807e-10
2.06318e-09
-1.16781e-10
2.11048e-09
-1.12624e-10
2.15601e-09
-1.08338e-10
2.19972e-09
-1.03924e-10
2.24155e-09
-9.93824e-11
2.28146e-09
-9.47151e-11
2.31939e-09
-8.99242e-11
2.35528e-09
-8.50119e-11
2.3891e-09
-7.99803e-11
2.42078e-09
-7.4832e-11
2.45028e-09
-6.95692e-11
2.47755e-09
-6.41948e-11
2.50255e-09
-5.87121e-11
2.52523e-09
-5.31247e-11
2.54554e-09
-4.74367e-11
2.56344e-09
-4.1652e-11
2.5789e-09
-3.57747e-11
2.59188e-09
-2.98092e-11
2.60233e-09
-2.37598e-11
2.61023e-09
-1.76316e-11
2.61553e-09
-1.14299e-11
2.61823e-09
-5.16044e-12
2.61829e-09
1.16956e-12
2.61569e-09
7.55651e-12
2.6104e-09
1.39892e-11
2.60239e-09
2.04622e-11
2.59166e-09
2.69687e-11
2.57818e-09
3.35014e-11
2.56195e-09
4.00528e-11
2.54295e-09
4.66154e-11
2.52118e-09
5.31813e-11
2.49665e-09
5.97422e-11
2.46935e-09
6.62894e-11
2.43929e-09
7.28137e-11
2.40648e-09
7.93061e-11
2.37094e-09
8.57572e-11
2.33269e-09
9.21581e-11
2.29174e-09
9.84996e-11
2.24813e-09
1.04772e-10
2.20189e-09
1.10967e-10
2.15304e-09
1.17073e-10
2.10164e-09
1.2308e-10
2.04772e-09
1.2898e-10
1.99133e-09
1.34763e-10
1.93252e-09
1.40418e-10
1.87136e-09
1.45936e-10
1.80789e-09
1.51308e-10
1.7422e-09
1.56524e-10
1.67433e-09
1.61575e-10
1.60438e-09
1.66453e-10
1.53241e-09
1.71147e-10
1.45851e-09
1.7565e-10
1.38275e-09
1.79953e-10
1.30524e-09
1.84048e-10
1.22605e-09
1.87927e-10
1.1453e-09
1.91582e-10
1.06306e-09
1.95008e-10
9.79455e-10
1.98197e-10
8.94576e-10
2.01143e-10
8.08532e-10
2.03839e-10
7.21434e-10
2.06281e-10
6.33393e-10
2.08463e-10
5.44522e-10
2.10383e-10
4.54938e-10
2.12036e-10
3.64755e-10
2.13418e-10
2.74093e-10
2.14527e-10
1.8307e-10
2.1536e-10
9.18054e-11
2.15916e-10
4.19209e-13
2.16194e-10
-9.09674e-11
2.16194e-10
-1.82233e-10
2.15916e-10
-2.73257e-10
2.15361e-10
-3.63921e-10
2.14529e-10
-4.54106e-10
2.13422e-10
-5.43692e-10
2.12041e-10
-6.32564e-10
2.1039e-10
-7.20608e-10
2.08472e-10
-8.07708e-10
2.06289e-10
-8.93755e-10
2.03848e-10
-9.78638e-10
2.01152e-10
-1.06225e-09
1.98207e-10
-1.14449e-09
1.9502e-10
-1.22525e-09
1.91597e-10
-1.30444e-09
1.87943e-10
-1.38196e-09
1.84066e-10
-1.45772e-09
1.79973e-10
-1.53163e-09
1.75671e-10
-1.6036e-09
1.71169e-10
-1.67356e-09
1.66475e-10
-1.74143e-09
1.61598e-10
-1.80714e-09
1.56547e-10
-1.87061e-09
1.51332e-10
-1.93179e-09
1.45961e-10
-1.9906e-09
1.40445e-10
-2.047e-09
1.34792e-10
-2.10093e-09
1.29011e-10
-2.15234e-09
1.23112e-10
-2.2012e-09
1.17106e-10
-2.24745e-09
1.11001e-10
-2.29108e-09
1.04807e-10
-2.33204e-09
9.85356e-11
-2.3703e-09
9.21948e-11
-2.40585e-09
8.57947e-11
-2.43867e-09
7.93447e-11
-2.46874e-09
7.28538e-11
-2.49606e-09
6.63306e-11
-2.5206e-09
5.97845e-11
-2.54239e-09
5.32249e-11
-2.5614e-09
4.66597e-11
-2.57764e-09
4.00965e-11
-2.59113e-09
3.35443e-11
-2.60188e-09
2.70113e-11
-2.60989e-09
2.05043e-11
-2.6152e-09
1.403e-11
-2.61781e-09
7.59675e-12
-2.61777e-09
1.21e-12
-2.61509e-09
-5.11928e-12
-2.60979e-09
-1.13876e-11
-2.60191e-09
-1.7588e-11
-2.59147e-09
-2.37146e-11
-2.57851e-09
-2.97621e-11
-2.56307e-09
-3.57265e-11
-2.54518e-09
-4.16027e-11
-2.52488e-09
-4.73861e-11
-2.50222e-09
-5.30724e-11
-2.47723e-09
-5.86588e-11
-2.44998e-09
-6.41413e-11
-2.42049e-09
-6.95159e-11
-2.38882e-09
-7.47794e-11
-2.35502e-09
-7.99286e-11
-2.31914e-09
-8.49606e-11
-2.28123e-09
-8.98718e-11
-2.24134e-09
-9.46605e-11
-2.19952e-09
-9.93259e-11
-2.15583e-09
-1.03866e-10
-2.11031e-09
-1.08278e-10
-2.06303e-09
-1.12564e-10
-2.01403e-09
-1.1672e-10
-1.96338e-09
-1.20746e-10
-1.91113e-09
-1.24639e-10
-1.85733e-09
-1.284e-10
-1.80204e-09
-1.32028e-10
-1.74531e-09
-1.35521e-10
-1.6872e-09
-1.38878e-10
-1.62777e-09
-1.42101e-10
-1.56707e-09
-1.45189e-10
-1.50516e-09
-1.48144e-10
-1.44209e-09
-1.50964e-10
-1.37792e-09
-1.53652e-10
-1.3127e-09
-1.56204e-10
-1.2465e-09
-1.58621e-10
-1.17936e-09
-1.60903e-10
-1.11133e-09
-1.6305e-10
-1.04249e-09
-1.65062e-10
-9.72874e-10
-1.66939e-10
-9.02544e-10
-1.68684e-10
-8.31552e-10
-1.70295e-10
-7.59956e-10
-1.71776e-10
-6.87808e-10
-1.73124e-10
-6.15164e-10
-1.7434e-10
-5.42076e-10
-1.75423e-10
-4.68597e-10
-1.7637e-10
-3.94781e-10
-1.77185e-10
-3.20686e-10
-1.77854e-10
-2.46398e-10
-1.78285e-10
-1.72233e-10
-1.7787e-10
-9.97045e-11
-1.73442e-10
-3.52577e-11
-1.52388e-10
-8.03477e-11
3.68117e-11
-1.18854e-10
1.03598e-10
-2.19296e-10
1.78279e-10
-2.4664e-10
2.54209e-10
-2.52278e-10
3.30036e-10
-2.53185e-10
4.05608e-10
-2.53022e-10
4.80916e-10
-2.52397e-10
5.55927e-10
-2.51438e-10
6.30587e-10
-2.50205e-10
7.04833e-10
-2.48735e-10
7.786e-10
-2.4705e-10
8.51826e-10
-2.4516e-10
9.24451e-10
-2.43072e-10
9.96415e-10
-2.40791e-10
1.06766e-09
-2.38319e-10
1.13813e-09
-2.35655e-10
1.20776e-09
-2.328e-10
1.27651e-09
-2.29755e-10
1.3443e-09
-2.26519e-10
1.41109e-09
-2.23093e-10
1.47682e-09
-2.19475e-10
1.54142e-09
-2.15666e-10
1.60486e-09
-2.11665e-10
1.66706e-09
-2.07473e-10
1.72796e-09
-2.03088e-10
1.78752e-09
-1.98512e-10
1.84568e-09
-1.93745e-10
1.90237e-09
-1.88787e-10
1.95755e-09
-1.83639e-10
2.01115e-09
-1.783e-10
2.06311e-09
-1.72773e-10
2.11339e-09
-1.67058e-10
2.16192e-09
-1.61157e-10
2.20865e-09
-1.5507e-10
2.25353e-09
-1.48798e-10
2.29649e-09
-1.42345e-10
2.33749e-09
-1.35711e-10
2.37646e-09
-1.289e-10
2.41337e-09
-1.21915e-10
2.44814e-09
-1.14758e-10
2.48074e-09
-1.07433e-10
2.51111e-09
-9.99423e-11
2.53921e-09
-9.22912e-11
2.56498e-09
-8.44837e-11
2.58838e-09
-7.65249e-11
2.60936e-09
-6.84201e-11
2.62788e-09
-6.01747e-11
2.6439e-09
-5.17946e-11
2.65738e-09
-4.32858e-11
2.66827e-09
-3.4655e-11
2.67655e-09
-2.59095e-11
2.68218e-09
-1.70574e-11
2.68513e-09
-8.10761e-12
2.68537e-09
9.30036e-13
2.68288e-09
1.00488e-11
2.67762e-09
1.92405e-11
2.66959e-09
2.84956e-11
2.65876e-09
3.78034e-11
2.6451e-09
4.71532e-11
2.62862e-09
5.65339e-11
2.6093e-09
6.59344e-11
2.58714e-09
7.53432e-11
2.56213e-09
8.47483e-11
2.53428e-09
9.41371e-11
2.5036e-09
1.03497e-10
2.47009e-09
1.12814e-10
2.43377e-09
1.22077e-10
2.39466e-09
1.31271e-10
2.35278e-09
1.40383e-10
2.30815e-09
1.494e-10
2.26081e-09
1.58306e-10
2.2108e-09
1.67089e-10
2.15814e-09
1.75733e-10
2.1029e-09
1.84226e-10
2.04511e-09
1.92552e-10
1.98483e-09
2.00698e-10
1.92212e-09
2.08649e-10
1.85703e-09
2.16392e-10
1.78964e-09
2.23913e-10
1.72002e-09
2.31198e-10
1.64824e-09
2.38234e-10
1.57438e-09
2.45008e-10
1.49852e-09
2.51508e-10
1.42075e-09
2.57721e-10
1.34116e-09
2.63635e-10
1.25985e-09
2.69239e-10
1.17691e-09
2.74522e-10
1.09245e-09
2.79474e-10
1.00656e-09
2.84083e-10
9.19362e-10
2.88342e-10
8.30959e-10
2.92241e-10
7.41464e-10
2.95773e-10
6.50995e-10
2.98932e-10
5.59668e-10
3.0171e-10
4.67602e-10
3.04102e-10
3.74917e-10
3.06103e-10
2.81736e-10
3.07708e-10
1.88182e-10
3.08914e-10
9.43777e-11
3.0972e-10
4.48608e-13
3.10123e-10
-9.34808e-11
3.10123e-10
-1.87286e-10
3.09721e-10
-2.80841e-10
3.08917e-10
-3.74023e-10
3.07712e-10
-4.6671e-10
3.06109e-10
-5.58778e-10
3.0411e-10
-6.50108e-10
3.0172e-10
-7.4058e-10
2.98943e-10
-8.30076e-10
2.95785e-10
-9.18483e-10
2.92254e-10
-1.00569e-09
2.88355e-10
-1.09158e-09
2.84098e-10
-1.17604e-09
2.79491e-10
-1.25899e-09
2.74542e-10
-1.3403e-09
2.69262e-10
-1.4199e-09
2.6366e-10
-1.49767e-09
2.57747e-10
-1.57354e-09
2.51535e-10
-1.6474e-09
2.45036e-10
-1.71919e-09
2.38262e-10
-1.78882e-09
2.31227e-10
-1.85622e-09
2.23944e-10
-1.92131e-09
2.16424e-10
-1.98403e-09
2.08683e-10
-2.04432e-09
2.00734e-10
-2.10212e-09
1.9259e-10
-2.15737e-09
1.84265e-10
-2.21003e-09
1.75774e-10
-2.26006e-09
1.67131e-10
-2.30741e-09
1.58349e-10
-2.35204e-09
1.49444e-10
-2.39394e-09
1.4043e-10
-2.43306e-09
1.31319e-10
-2.46939e-09
1.22126e-10
-2.50291e-09
1.12865e-10
-2.5336e-09
1.03548e-10
-2.56146e-09
9.41898e-11
-2.58648e-09
8.4802e-11
-2.60866e-09
7.5398e-11
-2.62799e-09
6.599e-11
-2.64448e-09
5.65895e-11
-2.65814e-09
4.72082e-11
-2.66899e-09
3.78579e-11
-2.67703e-09
2.85495e-11
-2.6823e-09
1.92934e-11
-2.6848e-09
1.01011e-11
-2.68457e-09
9.8272e-13
-2.68164e-09
-8.05411e-12
-2.67602e-09
-1.70028e-11
-2.66776e-09
-2.58534e-11
-2.65688e-09
-3.4597e-11
-2.64341e-09
-4.3226e-11
-2.6274e-09
-5.17336e-11
-2.60889e-09
-6.01129e-11
-2.58792e-09
-6.83572e-11
-2.56454e-09
-7.6461e-11
-2.53878e-09
-8.44193e-11
-2.51069e-09
-9.22266e-11
-2.48033e-09
-9.98776e-11
-2.44774e-09
-1.07368e-10
-2.41298e-09
-1.14694e-10
-2.37608e-09
-1.21851e-10
-2.33712e-09
-1.28836e-10
-2.29614e-09
-1.35645e-10
-2.25318e-09
-1.42278e-10
-2.20832e-09
-1.4873e-10
-2.1616e-09
-1.55e-10
-2.11308e-09
-1.61086e-10
-2.06281e-09
-1.66987e-10
-2.01085e-09
-1.72701e-10
-1.95726e-09
-1.78228e-10
-1.9021e-09
-1.83565e-10
-1.84541e-09
-1.88712e-10
-1.78726e-09
-1.93667e-10
-1.72771e-09
-1.98431e-10
-1.66681e-09
-2.03003e-10
-1.60462e-09
-2.07382e-10
-1.54119e-09
-2.11571e-10
-1.47659e-09
-2.15569e-10
-1.41086e-09
-2.19377e-10
-1.34407e-09
-2.22992e-10
-1.27628e-09
-2.26416e-10
-1.20753e-09
-2.2965e-10
-1.13789e-09
-2.32691e-10
-1.06741e-09
-2.35542e-10
-9.96145e-10
-2.38204e-10
-9.24152e-10
-2.40676e-10
-8.51489e-10
-2.42959e-10
-7.78209e-10
-2.45056e-10
-7.04369e-10
-2.46965e-10
-6.30024e-10
-2.48687e-10
-5.55226e-10
-2.5022e-10
-4.80033e-10
-2.51566e-10
-4.04496e-10
-2.52723e-10
-3.28675e-10
-2.53677e-10
-2.52659e-10
-2.54302e-10
-1.76767e-10
-2.53763e-10
-1.02523e-10
-2.47689e-10
-3.64488e-11
-2.18463e-10
-1.16796e-10
3.67932e-11
-1.55642e-10
1.03667e-10
-2.86177e-10
1.78809e-10
-3.21787e-10
2.55398e-10
-3.28865e-10
3.31898e-10
-3.29681e-10
4.08085e-10
-3.29207e-10
4.83947e-10
-3.28259e-10
5.59469e-10
-3.26959e-10
6.34611e-10
-3.25346e-10
7.09321e-10
-3.23445e-10
7.83544e-10
-3.21272e-10
8.57219e-10
-3.18836e-10
9.3029e-10
-3.16144e-10
1.0027e-09
-3.132e-10
1.07439e-09
-3.10006e-10
1.1453e-09
-3.06564e-10
1.21537e-09
-3.02874e-10
1.28455e-09
-2.98935e-10
1.35278e-09
-2.94749e-10
1.42e-09
-2.90316e-10
1.48616e-09
-2.85633e-10
1.5512e-09
-2.80703e-10
1.61506e-09
-2.75523e-10
1.67768e-09
-2.70094e-10
1.73901e-09
-2.64416e-10
1.79899e-09
-2.58489e-10
1.85755e-09
-2.52313e-10
1.91466e-09
-2.45889e-10
1.97024e-09
-2.39218e-10
2.02423e-09
-2.32298e-10
2.07659e-09
-2.25133e-10
2.12726e-09
-2.17723e-10
2.17617e-09
-2.1007e-10
2.22327e-09
-2.02175e-10
2.26852e-09
-1.94039e-10
2.31184e-09
-1.85666e-10
2.35318e-09
-1.77058e-10
2.3925e-09
-1.68218e-10
2.42974e-09
-1.5915e-10
2.46484e-09
-1.49858e-10
2.49775e-09
-1.40345e-10
2.52842e-09
-1.30616e-10
2.5568e-09
-1.20677e-10
2.58285e-09
-1.10532e-10
2.60651e-09
-1.00189e-10
2.62774e-09
-8.96533e-11
2.6465e-09
-7.89328e-11
2.66274e-09
-6.80347e-11
2.67642e-09
-5.69669e-11
2.68751e-09
-4.57382e-11
2.69596e-09
-3.43584e-11
2.70174e-09
-2.28375e-11
2.70482e-09
-1.11869e-11
2.70517e-09
5.81941e-13
2.70276e-09
1.24588e-11
2.69756e-09
2.44334e-11
2.68957e-09
3.64933e-11
2.67874e-09
4.8625e-11
2.66508e-09
6.08143e-11
2.64857e-09
7.30471e-11
2.62919e-09
8.53086e-11
2.60695e-09
9.75838e-11
2.58184e-09
1.09857e-10
2.55387e-09
1.22112e-10
2.52303e-09
1.34332e-10
2.48934e-09
1.465e-10
2.45282e-09
1.58599e-10
2.41348e-09
1.70612e-10
2.37135e-09
1.8252e-10
2.32644e-09
1.94305e-10
2.2788e-09
2.05949e-10
2.22845e-09
2.17434e-10
2.17545e-09
2.28741e-10
2.11982e-09
2.39852e-10
2.06162e-09
2.50747e-10
2.00091e-09
2.61409e-10
1.93774e-09
2.71818e-10
1.87218e-09
2.81956e-10
1.80429e-09
2.91805e-10
1.73414e-09
3.01347e-10
1.66181e-09
3.10565e-10
1.58737e-09
3.19441e-10
1.51092e-09
3.2796e-10
1.43254e-09
3.36104e-10
1.35232e-09
3.43857e-10
1.27035e-09
3.51205e-10
1.18674e-09
3.58132e-10
1.10159e-09
3.64625e-10
1.015e-09
3.70671e-10
9.27083e-10
3.76258e-10
8.37948e-10
3.81374e-10
7.4771e-10
3.8601e-10
6.56487e-10
3.90156e-10
5.64395e-10
3.93802e-10
4.71556e-10
3.96942e-10
3.7809e-10
3.99568e-10
2.84123e-10
4.01675e-10
1.89778e-10
4.03259e-10
9.51816e-11
4.04316e-10
4.58624e-13
4.04845e-10
-9.42645e-11
4.04846e-10
-1.88862e-10
4.04318e-10
-2.83207e-10
4.03262e-10
-3.77175e-10
4.0168e-10
-4.70642e-10
3.99575e-10
-5.63484e-10
3.9695e-10
-6.55578e-10
3.93813e-10
-7.46805e-10
3.90168e-10
-8.37046e-10
3.86025e-10
-9.26183e-10
3.81392e-10
-1.0141e-09
3.76277e-10
-1.1007e-09
3.70693e-10
-1.18585e-09
3.64649e-10
-1.26947e-09
3.58157e-10
-1.35144e-09
3.51232e-10
-1.43166e-09
3.43886e-10
-1.51005e-09
3.36135e-10
-1.58651e-09
3.27992e-10
-1.66095e-09
3.19476e-10
-1.73329e-09
3.10601e-10
-1.80344e-09
3.01385e-10
-1.87134e-09
2.91844e-10
-1.93691e-09
2.81997e-10
-2.00009e-09
2.7186e-10
-2.06081e-09
2.61453e-10
-2.11902e-09
2.50793e-10
-2.17465e-09
2.399e-10
-2.22767e-09
2.28791e-10
-2.27802e-09
2.17486e-10
-2.32567e-09
2.06003e-10
-2.37059e-09
1.9436e-10
-2.41273e-09
1.82576e-10
-2.45208e-09
1.7067e-10
-2.48862e-09
1.58659e-10
-2.52231e-09
1.46561e-10
-2.55316e-09
1.34394e-10
-2.58115e-09
1.22175e-10
-2.60627e-09
1.09922e-10
-2.62852e-09
9.76495e-11
-2.6479e-09
8.53749e-11
-2.66443e-09
7.31138e-11
-2.6781e-09
6.0881e-11
-2.68893e-09
4.86911e-11
-2.69694e-09
3.65589e-11
-2.70215e-09
2.44984e-11
-2.70457e-09
1.25234e-11
-2.70423e-09
6.46694e-13
-2.70117e-09
-1.11218e-11
-2.6954e-09
-2.27716e-11
-2.68696e-09
-3.42908e-11
-2.67589e-09
-4.56687e-11
-2.66222e-09
-5.68956e-11
-2.64599e-09
-6.79621e-11
-2.62724e-09
-7.88592e-11
-2.60602e-09
-8.95789e-11
-2.58237e-09
-1.00114e-10
-2.55633e-09
-1.10457e-10
-2.52796e-09
-1.20601e-10
-2.49729e-09
-1.30541e-10
-2.46439e-09
-1.40269e-10
-2.4293e-09
-1.49783e-10
-2.39208e-09
-1.59075e-10
-2.35277e-09
-1.68143e-10
-2.31143e-09
-1.76983e-10
-2.26812e-09
-1.85589e-10
-2.22289e-09
-1.93961e-10
-2.17579e-09
-2.02096e-10
-2.12689e-09
-2.0999e-10
-2.07623e-09
-2.17643e-10
-2.02388e-09
-2.25052e-10
-1.96989e-09
-2.32218e-10
-1.91432e-09
-2.39136e-10
-1.85722e-09
-2.45807e-10
-1.79866e-09
-2.52229e-10
-1.73869e-09
-2.58403e-10
-1.67736e-09
-2.64327e-10
-1.61474e-09
-2.70002e-10
-1.55088e-09
-2.75429e-10
-1.48584e-09
-2.80608e-10
-1.41968e-09
-2.85537e-10
-1.35246e-09
-2.90219e-10
-1.28422e-09
-2.94654e-10
-1.21503e-09
-2.98839e-10
-1.14494e-09
-3.02778e-10
-1.07402e-09
-3.0647e-10
-1.0023e-09
-3.09916e-10
-9.2986e-10
-3.13117e-10
-8.56746e-10
-3.16075e-10
-7.83013e-10
-3.18788e-10
-7.08719e-10
-3.2126e-10
-6.33918e-10
-3.23488e-10
-5.58665e-10
-3.25474e-10
-4.83015e-10
-3.27219e-10
-4.07021e-10
-3.28719e-10
-3.30743e-10
-3.29957e-10
-2.5427e-10
-3.30773e-10
-1.77924e-10
-3.30107e-10
-1.03237e-10
-3.22379e-10
-3.67609e-11
-2.84938e-10
-1.53558e-10
3.67856e-11
-1.92423e-10
1.03658e-10
-3.53048e-10
1.78964e-10
-3.97097e-10
2.55869e-10
-4.05771e-10
3.32754e-10
-4.06564e-10
4.09332e-10
-4.05783e-10
4.85565e-10
-4.0449e-10
5.61431e-10
-4.02825e-10
6.36896e-10
-4.00812e-10
7.11915e-10
-3.98464e-10
7.86436e-10
-3.95792e-10
8.60405e-10
-3.92804e-10
9.33764e-10
-3.89503e-10
1.00646e-09
-3.85894e-10
1.07843e-09
-3.81978e-10
1.14962e-09
-3.77757e-10
1.21998e-09
-3.73231e-10
1.28945e-09
-3.68399e-10
1.35796e-09
-3.63263e-10
1.42547e-09
-3.57822e-10
1.49191e-09
-3.52076e-10
1.55723e-09
-3.46023e-10
1.62137e-09
-3.39664e-10
1.68428e-09
-3.32999e-10
1.74589e-09
-3.26027e-10
1.80615e-09
-3.18749e-10
1.865e-09
-3.11164e-10
1.92238e-09
-3.03273e-10
1.97824e-09
-2.95076e-10
2.03251e-09
-2.86575e-10
2.08515e-09
-2.7777e-10
2.13609e-09
-2.68662e-10
2.18527e-09
-2.59255e-10
2.23264e-09
-2.49548e-10
2.27815e-09
-2.39546e-10
2.32173e-09
-2.2925e-10
2.36334e-09
-2.18663e-10
2.40291e-09
-2.0779e-10
2.44039e-09
-1.96635e-10
2.47574e-09
-1.85202e-10
2.50889e-09
-1.73496e-10
2.53979e-09
-1.61522e-10
2.5684e-09
-1.49287e-10
2.59467e-09
-1.36799e-10
2.61854e-09
-1.24063e-10
2.63998e-09
-1.11089e-10
2.65893e-09
-9.78844e-11
2.67535e-09
-8.44588e-11
2.68921e-09
-7.08222e-11
2.70045e-09
-5.69853e-11
2.70906e-09
-4.29598e-11
2.71498e-09
-2.87581e-11
2.71819e-09
-1.43933e-11
2.71865e-09
1.21151e-13
2.71633e-09
1.47718e-11
2.71122e-09
2.95451e-11
2.70329e-09
4.44256e-11
2.69252e-09
5.9397e-11
2.67889e-09
7.44421e-11
2.66239e-09
8.95435e-11
2.64301e-09
1.04683e-10
2.62076e-09
1.19842e-10
2.59561e-09
1.35001e-10
2.56758e-09
1.5014e-10
2.53668e-09
1.65239e-10
2.5029e-09
1.80277e-10
2.46627e-09
1.95232e-10
2.4268e-09
2.10082e-10
2.38451e-09
2.24805e-10
2.33944e-09
2.39379e-10
2.29161e-09
2.53781e-10
2.24105e-09
2.67988e-10
2.18782e-09
2.81978e-10
2.13194e-09
2.95727e-10
2.07348e-09
3.09212e-10
2.01248e-09
3.22409e-10
1.949e-09
3.35295e-10
1.88311e-09
3.47848e-10
1.81487e-09
3.60044e-10
1.74435e-09
3.71862e-10
1.67164e-09
3.8328e-10
1.5968e-09
3.94277e-10
1.51993e-09
4.04831e-10
1.44111e-09
4.14923e-10
1.36044e-09
4.24531e-10
1.27801e-09
4.33638e-10
1.19391e-09
4.42224e-10
1.10827e-09
4.50273e-10
1.02117e-09
4.57768e-10
9.32728e-10
4.64696e-10
8.43062e-10
4.7104e-10
7.52283e-10
4.76789e-10
6.60508e-10
4.81931e-10
5.67857e-10
4.86453e-10
4.74452e-10
4.90347e-10
3.80415e-10
4.93604e-10
2.85871e-10
4.96217e-10
1.90946e-10
4.98182e-10
9.57678e-11
4.99494e-10
4.61769e-13
5.00151e-10
-9.48444e-11
5.00152e-10
-1.90024e-10
4.99497e-10
-2.84949e-10
4.98187e-10
-3.79493e-10
4.96224e-10
-4.73532e-10
4.93612e-10
-5.66939e-10
4.90357e-10
-6.59593e-10
4.86465e-10
-7.51371e-10
4.81946e-10
-8.42153e-10
4.76808e-10
-9.31822e-10
4.71062e-10
-1.02026e-09
4.6472e-10
-1.10736e-09
4.57795e-10
-1.19302e-09
4.50302e-10
-1.27711e-09
4.42254e-10
-1.35955e-09
4.3367e-10
-1.44023e-09
4.24565e-10
-1.51905e-09
4.14959e-10
-1.59593e-09
4.0487e-10
-1.67077e-09
3.94319e-10
-1.74349e-09
3.83324e-10
-1.81402e-09
3.71908e-10
-1.88226e-09
3.60091e-10
-1.94816e-09
3.47896e-10
-2.01165e-09
3.35345e-10
-2.07266e-09
3.22461e-10
-2.13113e-09
3.09266e-10
-2.18701e-09
2.95783e-10
-2.24026e-09
2.82037e-10
-2.29082e-09
2.68049e-10
-2.33866e-09
2.53844e-10
-2.38375e-09
2.39444e-10
-2.42604e-09
2.24872e-10
-2.46552e-09
2.1015e-10
-2.50216e-09
1.95302e-10
-2.53595e-09
1.80348e-10
-2.56687e-09
1.65312e-10
-2.59491e-09
1.50214e-10
-2.62006e-09
1.35076e-10
-2.64233e-09
1.19918e-10
-2.66172e-09
1.0476e-10
-2.67823e-09
8.96211e-11
-2.69187e-09
7.45204e-11
-2.70265e-09
5.94751e-11
-2.71059e-09
4.45032e-11
-2.71572e-09
2.96224e-11
-2.71804e-09
1.48489e-11
-2.71759e-09
1.98177e-13
-2.7144e-09
-1.43163e-11
-2.70849e-09
-2.86804e-11
-2.6999e-09
-4.28805e-11
-2.68866e-09
-5.69042e-11
-2.67482e-09
-7.07395e-11
-2.65841e-09
-8.43746e-11
-2.63946e-09
-9.77991e-11
-2.61804e-09
-1.11003e-10
-2.59418e-09
-1.23977e-10
-2.56792e-09
-1.36713e-10
-2.53932e-09
-1.49201e-10
-2.50842e-09
-1.61436e-10
-2.47528e-09
-1.73409e-10
-2.43995e-09
-1.85115e-10
-2.40248e-09
-1.96549e-10
-2.36291e-09
-2.07704e-10
-2.32132e-09
-2.18577e-10
-2.27774e-09
-2.29163e-10
-2.23225e-09
-2.39458e-10
-2.18488e-09
-2.49461e-10
-2.1357e-09
-2.59166e-10
-2.08477e-09
-2.68573e-10
-2.03214e-09
-2.7768e-10
-1.97788e-09
-2.86486e-10
-1.92202e-09
-2.94987e-10
-1.86465e-09
-3.03183e-10
-1.8058e-09
-3.11073e-10
-1.74555e-09
-3.18657e-10
-1.68394e-09