/*--------------------------------*- C++ -*----------------------------------*\
| =========                 |                                                 |
| \\      /  F ield         | OpenFOAM: The Open Source CFD Toolbox           |
|  \\    /   O peration     | Version:  2412                                  |
|   \\  /    A nd           | Website:  www.openfoam.com                      |
|    \\/     M anipulation  |                                                 |
\*---------------------------------------------------------------------------*/
FoamFile
{
    version     2.0;
    format      ascii;
    arch        "LSB;label=32;scalar=64";
    class       volScalarField;
    location    "1.6";
    object      alpha.water;
}
// * * * * * * * * * * * * * * * * * * * * * * * * * * * * * * * * * * * * * //

dimensions      [0 0 0 0 0 0 0];

internalField   nonuniform List<scalar> 
40000
(
2.66987e-172
6.27007e-170
3.81639e-168
1.63981e-167
2.4836e-167
2.65323e-167
2.53102e-167
2.31656e-167
2.07178e-167
1.81881e-167
1.56837e-167
1.32814e-167
1.10389e-167
9.00092e-168
7.18782e-168
5.62255e-168
4.30062e-168
3.21721e-168
2.35172e-168
1.6759e-168
1.16062e-168
7.81042e-169
5.09154e-169
3.20577e-169
1.94306e-169
1.13078e-169
6.30105e-170
3.35546e-170
1.70886e-170
8.32914e-171
3.88481e-171
1.72782e-171
7.29549e-172
2.90348e-172
1.08121e-172
3.74254e-173
1.19945e-173
3.5578e-174
9.74969e-175
2.47034e-175
5.76458e-176
1.23386e-176
2.42128e-177
4.35065e-178
7.19121e-179
1.10237e-179
1.57959e-180
2.20711e-181
3.25892e-182
6.30995e-183
9.49705e-184
1.16156e-184
1.20839e-185
1.09872e-186
8.80861e-188
6.27927e-189
4.0688e-190
2.452e-191
1.41439e-192
8.02698e-194
4.54509e-195
2.56614e-196
1.43447e-197
7.87871e-199
4.22899e-200
2.20655e-201
1.11578e-202
5.46438e-204
2.58394e-205
1.17834e-206
5.17263e-208
2.18241e-209
8.86204e-211
3.44019e-212
1.28189e-213
4.55447e-215
1.54621e-216
5.0016e-218
1.5363e-219
4.47419e-221
1.23222e-222
3.20384e-224
7.84217e-226
1.79981e-227
3.86424e-229
7.71974e-231
1.42631e-232
2.44097e-234
3.83858e-236
5.46673e-238
7.08049e-240
8.18844e-242
8.37967e-244
7.44345e-246
5.67966e-248
3.57312e-250
1.7905e-252
6.73582e-255
1.66801e-257
1.99524e-260
2.18097e-260
1.64528e-257
6.48557e-255
1.71104e-252
3.37451e-250
5.34846e-248
7.02559e-246
7.8341e-244
7.67797e-242
6.61108e-240
5.12027e-238
3.56698e-236
2.28234e-234
1.33368e-232
7.17789e-231
3.59474e-229
1.68151e-227
7.33434e-226
3.00057e-224
1.15604e-222
4.20162e-221
1.44392e-219
4.70609e-218
1.46186e-216
4.31786e-215
1.21539e-213
3.27661e-212
8.44142e-211
2.08856e-209
4.9567e-208
1.13034e-206
2.48843e-205
5.27896e-204
1.08052e-202
2.14031e-201
4.11086e-200
7.67629e-199
1.39894e-197
2.50177e-196
4.42623e-195
7.8036e-194
1.37087e-192
2.37541e-191
3.96327e-190
6.1553e-189
8.68121e-188
1.09333e-186
1.21726e-185
1.17252e-184
9.74131e-184
6.64446e-183
3.38791e-182
2.16645e-181
1.53284e-180
1.0596e-179
6.92213e-179
4.19793e-178
2.33919e-177
1.1956e-176
5.59144e-176
2.39822e-175
9.52185e-175
3.47213e-174
1.17152e-173
3.65628e-173
1.05631e-172
2.84162e-172
7.14045e-172
1.69238e-171
3.80618e-171
8.1661e-171
1.67582e-170
3.29197e-170
6.18213e-170
1.10992e-169
1.90739e-169
3.14694e-169
5.0001e-169
7.67315e-169
1.14062e-168
1.64642e-168
2.31233e-168
3.16457e-168
4.23025e-168
5.5306e-168
7.07065e-168
8.84939e-168
1.08538e-167
1.30593e-167
1.54216e-167
1.78931e-167
2.04145e-167
2.29121e-167
2.52363e-167
2.67945e-167
2.54544e-167
1.69318e-167
3.92035e-168
6.13598e-170
2.30908e-172
6.1305e-169
1.72262e-166
1.09752e-164
4.3694e-164
6.56873e-164
7.08517e-164
6.83096e-164
6.31547e-164
5.70835e-164
5.06837e-164
4.42476e-164
3.79797e-164
3.20404e-164
2.65485e-164
2.15887e-164
1.72161e-164
1.34489e-164
1.02969e-164
7.71889e-165
5.65373e-165
4.03601e-165
2.80515e-165
1.89355e-165
1.23794e-165
7.81328e-166
4.74645e-166
2.76783e-166
1.54631e-166
8.27843e-167
4.25296e-167
2.09726e-167
9.90804e-168
4.46606e-168
1.90875e-168
7.67849e-169
2.88654e-169
1.00928e-169
3.27628e-170
9.86966e-171
2.75746e-171
7.12662e-172
1.69842e-172
3.72242e-173
7.49704e-174
1.39221e-174
2.40874e-175
3.91702e-176
5.8047e-177
7.82462e-178
9.57411e-179
1.06352e-179
1.07268e-180
9.79777e-182
8.11475e-183
6.08929e-184
4.14489e-185
2.58804e-186
1.5078e-187
8.41865e-189
4.62044e-190
2.52947e-191
1.38578e-192
7.54251e-194
4.04852e-195
2.13146e-196
1.09031e-197
5.43644e-199
2.62869e-200
1.22932e-201
5.55616e-203
2.42141e-204
1.01567e-205
4.10648e-207
1.5903e-208
5.91782e-210
2.1038e-211
7.15524e-213
2.32095e-214
7.16348e-216
2.09894e-217
5.82331e-219
1.5266e-220
3.7715e-222
8.74659e-224
1.89839e-225
3.83725e-227
7.17707e-229
1.24406e-230
1.98197e-232
2.86325e-234
3.76084e-236
4.41402e-238
4.58591e-240
4.13862e-242
3.20576e-244
2.04885e-246
1.04255e-248
3.97495e-251
9.9495e-254
1.18899e-256
1.39457e-256
1.0216e-253
3.94457e-251
1.02081e-248
1.97706e-246
3.07629e-244
3.97045e-242
4.35591e-240
4.1981e-238
3.55993e-236
2.71638e-234
1.86588e-232
1.17721e-230
6.79333e-229
3.61206e-227
1.78831e-225
8.27176e-224
3.57118e-222
1.44748e-220
5.52929e-219
1.99491e-217
6.81408e-216
2.21021e-214
6.83956e-213
2.01569e-211
5.67095e-210
1.52997e-208
3.95122e-207
9.81893e-206
2.34315e-204
5.38367e-203
1.19559e-201
2.56396e-200
5.31799e-199
1.06942e-197
2.08985e-196
3.98493e-195
7.43261e-194
1.36603e-192
2.49197e-191
4.54218e-190
8.2642e-189
1.48011e-187
2.55012e-186
4.10453e-185
6.05953e-184
8.12183e-183
9.84572e-182
1.08618e-180
1.0801e-179
9.75101e-179
7.98801e-178
5.94138e-177
4.01855e-176
2.47168e-175
1.41415e-174
7.56567e-174
3.73903e-173
1.7e-172
7.11247e-172
2.74603e-171
9.81635e-171
3.25353e-170
1.00092e-169
2.85902e-169
7.59704e-169
1.88743e-168
4.41354e-168
9.78804e-168
2.07132e-167
4.19957e-167
8.17272e-167
1.52623e-166
2.7313e-166
4.6832e-166
7.70809e-166
1.22115e-165
1.86799e-165
2.76749e-165
3.98214e-165
5.5785e-165
7.618e-165
1.01639e-164
1.32762e-164
1.69963e-164
2.1315e-164
2.62136e-164
3.16428e-164
3.75219e-164
4.37403e-164
5.01569e-164
5.66052e-164
6.28587e-164
6.84117e-164
7.15231e-164
6.67225e-164
4.42556e-164
1.08807e-164
1.64178e-166
5.57577e-169
2.18906e-166
7.92347e-164
5.05591e-162
1.85855e-161
2.73842e-161
2.95608e-161
2.86413e-161
2.66491e-161
2.42676e-161
2.17306e-161
1.91521e-161
1.66135e-161
1.41792e-161
1.19001e-161
9.81385e-162
7.94679e-162
6.31228e-162
4.92132e-162
3.76316e-162
2.81635e-162
2.05816e-162
1.46709e-162
1.01772e-162
6.85188e-163
4.463e-163
2.80375e-163
1.69414e-163
9.8267e-164
5.47223e-164
2.93016e-164
1.50975e-164
7.47623e-165
3.54563e-165
1.60134e-165
6.83743e-166
2.73988e-166
1.02526e-166
3.57471e-167
1.16114e-167
3.51338e-168
9.88416e-169
2.57016e-169
6.14594e-170
1.34608e-170
2.69204e-171
4.90488e-172
8.12852e-173
1.22386e-173
1.67292e-174
2.07488e-175
2.33474e-176
2.38348e-177
2.20735e-178
1.85486e-179
1.41453e-180
9.80628e-182
6.22468e-183
3.67501e-184
2.06724e-185
1.1366e-186
6.21566e-188
3.39759e-189
1.84786e-190
9.92486e-192
5.23208e-193
2.69128e-194
1.34717e-195
6.54831e-197
3.08277e-198
1.40331e-199
6.16715e-201
2.61082e-202
1.06559e-203
4.17352e-205
1.57086e-206
5.65778e-208
1.9509e-209
6.42429e-211
2.01553e-212
6.0123e-214
1.70112e-215
4.55366e-217
1.14989e-218
2.72945e-220
6.06525e-222
1.25608e-223
2.40867e-225
4.27485e-227
6.96776e-229
1.03152e-230
1.38495e-232
1.66173e-234
1.76304e-236
1.62467e-238
1.28059e-240
8.33038e-243
4.30523e-245
1.65905e-247
4.18138e-250
4.96208e-253
6.14874e-253
4.48405e-250
1.70432e-247
4.34378e-245
8.28618e-243
1.26567e-240
1.60279e-238
1.72645e-236
1.62761e-234
1.35191e-232
1.00831e-230
6.77762e-229
4.17279e-227
2.35205e-225
1.22237e-223
5.91029e-222
2.6666e-220
1.12446e-218
4.45518e-217
1.66481e-215
5.8844e-214
1.9726e-212
6.2877e-211
1.91315e-209
5.55477e-208
1.54192e-206
4.10708e-205
1.04902e-203
2.57805e-202
6.09445e-201
1.38887e-199
3.05849e-198
6.51444e-197
1.34318e-195
2.68806e-194
5.23441e-193
9.9519e-192
1.85508e-190
3.41189e-189
6.23821e-188
1.13914e-186
2.06928e-185
3.68002e-184
6.24834e-183
9.87849e-182
1.43027e-180
1.88184e-179
2.2455e-178
2.43017e-177
2.38368e-176
2.1199e-175
1.70955e-174
1.25048e-173
8.30105e-173
5.00491e-172
2.74416e-171
1.37054e-170
6.24989e-170
2.61049e-169
1.00282e-168
3.55929e-168
1.17282e-167
3.601e-167
1.03029e-166
2.74735e-166
6.84286e-166
1.60031e-165
3.53919e-165
7.45567e-165
1.50445e-164
2.91785e-164
5.44606e-164
9.77412e-164
1.68423e-163
2.78607e-163
4.4332e-163
6.80424e-163
1.01049e-162
1.45652e-162
2.04314e-162
2.79564e-162
3.73548e-162
4.88514e-162
6.26599e-162
7.88874e-162
9.74314e-162
1.18158e-161
1.40831e-161
1.65084e-161
1.90442e-161
2.16338e-161
2.42063e-161
2.6663e-161
2.8781e-161
2.98401e-161
2.77015e-161
1.86622e-161
4.96795e-162
7.46875e-164
1.99305e-166
3.75666e-164
1.62171e-161
9.12945e-160
3.10619e-159
4.47871e-159
4.81586e-159
4.67744e-159
4.3722e-159
4.00547e-159
3.61238e-159
3.20988e-159
2.81014e-159
2.42293e-159
2.05643e-159
1.71697e-159
1.40912e-159
1.13577e-159
8.99735e-160
7.0004e-160
5.33871e-160
3.98155e-160
2.90097e-160
2.06055e-160
1.4229e-160
9.52252e-161
6.15689e-161
3.83513e-161
2.29681e-161
1.32266e-161
7.33698e-162
3.92447e-162
2.02227e-162
1.00045e-162
4.72491e-163
2.11447e-163
8.89693e-164
3.49968e-164
1.28359e-164
4.38725e-165
1.39644e-165
4.12895e-166
1.12933e-166
2.84362e-167
6.56323e-168
1.38389e-168
2.65925e-169
4.64859e-170
7.38314e-171
1.06454e-171
1.39275e-172
1.65328e-173
1.781e-174
1.74187e-175
1.54765e-176
1.25023e-177
9.20027e-179
6.20399e-180
3.88548e-181
2.30923e-182
1.33402e-183
7.62497e-185
4.33811e-186
2.44987e-187
1.36446e-188
7.44817e-190
3.96683e-191
2.05487e-192
1.0329e-193
5.02841e-195
2.36702e-196
1.07578e-197
4.71348e-199
1.98871e-200
8.06557e-202
3.13972e-203
1.17151e-204
4.18366e-206
1.42757e-207
4.64768e-209
1.44133e-210
4.24943e-212
1.18874e-213
3.14718e-215
7.86472e-217
1.84787e-218
4.04993e-220
8.23063e-222
1.54267e-223
2.64998e-225
4.14166e-227
5.839e-229
7.34858e-231
8.15113e-233
7.84067e-235
6.40386e-237
4.31425e-239
2.29887e-241
9.0604e-244
2.3302e-246
2.82352e-249
3.43187e-249
2.50108e-246
9.40967e-244
2.36004e-241
4.41133e-239
6.54327e-237
8.01819e-235
8.34831e-233
7.54051e-231
6.00331e-229
4.2667e-227
2.73513e-225
1.59513e-223
8.52498e-222
4.20117e-220
1.9195e-218
8.17008e-217
3.25739e-215
1.22524e-213
4.36481e-212
1.47547e-210
4.74523e-209
1.45433e-207
4.25517e-206
1.19047e-204
3.18849e-203
8.18824e-202
2.01882e-200
4.78617e-199
1.09247e-197
2.40457e-196
5.11091e-195
1.05063e-193
2.09127e-192
4.03964e-191
7.58885e-190
1.39079e-188
2.49739e-187
4.41866e-186
7.75463e-185
1.35412e-183
2.33988e-182
3.9358e-181
6.29264e-180
9.3532e-179
1.27414e-177
1.58054e-176
1.78161e-175
1.82346e-174
1.6934e-173
1.42643e-172
1.08968e-171
7.55069e-171
4.7483e-170
2.71235e-169
1.40924e-168
6.67208e-168
2.88585e-167
1.14426e-166
4.17757e-166
1.41116e-165
4.42883e-165
1.29441e-164
3.52535e-164
8.95253e-164
2.1257e-163
4.74667e-163
1.00455e-162
2.02981e-162
3.93786e-162
7.35795e-162
1.3254e-161
2.29965e-161
3.83695e-161
6.15574e-161
9.51564e-161
1.42124e-160
2.05744e-160
2.89584e-160
3.97365e-160
5.32712e-160
6.98452e-160
8.97608e-160
1.13302e-159
1.40571e-159
1.71292e-159
2.05188e-159
2.41827e-159
2.80595e-159
3.20738e-159
3.61332e-159
4.01281e-159
4.39033e-159
4.70986e-159
4.85974e-159
4.51387e-159
3.10486e-159
8.95029e-160
1.53047e-161
3.4563e-164
4.20404e-162
1.9359e-159
9.00663e-158
2.83862e-157
3.99709e-157
4.27937e-157
4.16314e-157
3.90698e-157
3.59853e-157
3.26658e-157
2.92454e-157
2.58209e-157
2.24746e-157
1.92747e-157
1.62781e-157
1.3527e-157
1.10516e-157
8.88477e-158
7.02436e-158
5.44999e-158
4.14026e-158
3.07713e-158
2.23269e-158
1.57718e-158
1.08123e-158
7.17043e-159
4.58663e-159
2.82374e-159
1.67338e-159
9.5632e-160
5.27698e-160
2.80965e-160
1.43916e-160
7.05241e-161
3.28109e-161
1.43756e-161
5.89587e-162
2.25757e-162
8.0677e-163
2.68933e-163
8.34097e-164
2.39602e-164
6.34159e-165
1.5393e-165
3.41434e-166
6.90244e-167
1.2693e-167
2.12016e-168
3.21351e-169
4.41714e-170
5.50533e-171
6.22309e-172
6.38359e-173
5.94775e-174
5.03964e-175
3.89238e-176
2.757e-177
1.81512e-178
1.13488e-179
6.90185e-181
4.1539e-182
2.48846e-183
1.47932e-184
8.67164e-186
4.98386e-187
2.79677e-188
1.52814e-189
8.11377e-191
4.17995e-192
2.08654e-193
1.00801e-194
4.70765e-196
2.12306e-197
9.23504e-199
3.87041e-200
1.55785e-201
5.99507e-203
2.20126e-204
7.69529e-206
2.55533e-207
8.03978e-209
2.39008e-210
6.69321e-212
1.75973e-213
4.32738e-215
9.91164e-217
2.1045e-218
4.1199e-220
7.39006e-222
1.20578e-223
1.7742e-225
2.32988e-227
2.69592e-229
2.70457e-231
2.30318e-233
1.61752e-235
8.98325e-238
3.68989e-240
9.89589e-243
1.25558e-245
1.52112e-245
1.06917e-242
3.86501e-240
9.30524e-238
1.66884e-235
2.37421e-233
2.78971e-231
2.78448e-229
2.41041e-227
1.83878e-225
1.2519e-223
7.686e-222
4.29191e-220
2.1957e-218
1.03556e-216
4.52692e-215
1.84298e-213
7.01694e-212
2.50791e-210
8.4426e-209
2.68511e-207
8.09038e-206
2.31525e-204
6.30753e-203
1.63938e-201
4.07309e-200
9.69489e-199
2.22159e-197
4.91261e-196
1.04939e-194
2.16773e-193
4.33506e-192
8.40257e-191
1.58052e-189
2.88959e-188
5.14469e-187
8.94397e-186
1.52426e-184
2.56046e-183
4.26556e-182
7.07051e-181
1.16025e-179
1.85419e-178
2.81833e-177
3.98559e-176
5.16965e-175
6.10999e-174
6.56379e-173
6.40128e-172
5.66221e-171
4.54017e-170
3.29951e-169
2.1738e-168
1.29918e-167
7.05131e-167
3.48081e-166
1.56596e-165
6.43812e-165
2.42781e-164
8.43738e-164
2.71655e-163
8.13933e-163
2.27493e-162
5.93406e-162
1.44516e-161
3.29507e-161
7.07704e-161
1.44341e-160
2.81682e-160
5.28867e-160
9.58164e-160
1.67618e-159
2.82774e-159
4.59201e-159
7.17738e-159
1.08213e-158
1.57838e-158
2.23434e-158
3.07942e-158
4.14346e-158
5.45449e-158
7.03077e-158
8.89366e-158
1.10639e-157
1.35441e-157
1.63016e-157
1.93069e-157
2.25186e-157
2.58824e-157
2.93321e-157
3.27901e-157
3.61656e-157
3.93268e-157
4.19736e-157
4.31739e-157
4.02248e-157
2.83144e-157
8.8351e-158
1.83712e-159
3.91124e-162
3.30461e-160
1.52533e-157
5.71905e-156
1.66818e-155
2.29362e-155
2.44167e-155
2.37625e-155
2.23735e-155
2.0707e-155
1.89089e-155
1.70464e-155
1.51687e-155
1.33185e-155
1.15328e-155
9.84295e-156
8.27377e-156
6.84419e-156
5.57744e-156
4.4752e-156
3.52798e-156
2.72645e-156
2.06426e-156
1.52796e-156
1.10271e-156
7.73415e-157
5.25485e-157
3.44822e-157
2.18042e-157
1.3288e-157
7.82026e-158
4.4509e-158
2.44877e-158
1.29869e-158
6.60287e-159
3.19323e-159
1.45655e-159
6.22728e-160
2.48899e-160
9.29943e-161
3.24671e-161
1.05637e-161
3.18721e-162
8.86678e-163
2.26316e-163
5.27962e-164
1.12253e-164
2.17049e-165
3.81014e-166
6.06447e-167
8.74465e-168
1.14187e-168
1.35033e-169
1.44683e-170
1.40581e-171
1.24024e-172
9.95904e-174
7.32486e-175
5.00454e-176
3.24858e-177
2.05376e-178
1.28661e-179
8.02799e-181
4.97087e-182
3.03442e-183
1.81617e-184
1.0617e-185
6.04671e-187
3.34911e-188
1.8015e-189
9.4007e-191
4.75412e-192
2.32518e-193
1.0945e-194
4.94895e-196
2.14612e-197
8.91039e-199
3.53549e-200
1.338e-201
4.8194e-203
1.64837e-204
5.34011e-206
1.63411e-207
4.70906e-209
1.27365e-210
3.22111e-212
7.58548e-214
1.65549e-215
3.33034e-217
6.13709e-219
1.02846e-220
1.55391e-222
2.09488e-224
2.48792e-226
2.56116e-228
2.23763e-230
1.61196e-232
9.18157e-235
3.86769e-237
1.06406e-239
1.38778e-242
1.68147e-242
1.15617e-239
4.08041e-237
9.5847e-235
1.67649e-232
2.32547e-230
2.66345e-228
2.59071e-226
2.18498e-224
1.62355e-222
1.07642e-220
6.43398e-219
3.49693e-217
1.74083e-215
7.98706e-214
3.39568e-212
1.3441e-210
4.97418e-209
1.7275e-207
5.64912e-206
1.74473e-204
5.10335e-203
1.41729e-201
3.7458e-200
9.44141e-199
2.27401e-197
5.24331e-196
1.15936e-194
2.46218e-193
5.0302e-192
9.91346e-191
1.89377e-189
3.51098e-188
6.32405e-187
1.10817e-185
1.89236e-184
3.15683e-183
5.16339e-182
8.32475e-181
1.33129e-179
2.1197e-178
3.34547e-177
5.14833e-176
7.53835e-175
1.02632e-173
1.28001e-172
1.45244e-171
1.49563e-170
1.39583e-169
1.17967e-168
9.02427e-168
6.24878e-167
3.91848e-166
2.22733e-165
1.1492e-164
5.39174e-164
2.30548e-163
9.01087e-163
3.23182e-162
1.06908e-161
3.2805e-161
9.3834e-161
2.50823e-160
6.26717e-160
1.464e-159
3.20602e-159
6.62384e-159
1.30207e-158
2.45408e-158
4.45897e-158
7.832e-158
1.33042e-157
2.1825e-157
3.45065e-157
5.25746e-157
7.73698e-157
1.10304e-156
1.52838e-156
2.06482e-156
2.72727e-156
3.52923e-156
4.4772e-156
5.58048e-156
6.84871e-156
8.28059e-156
9.85331e-156
1.15483e-155
1.33412e-155
1.52017e-155
1.70937e-155
1.8976e-155
2.08008e-155
2.25009e-155
2.39246e-155
2.45941e-155
2.30587e-155
1.66325e-155
5.61893e-156
1.45646e-157
3.09837e-160
1.88556e-158
8.55242e-156
2.55517e-154
6.89359e-154
9.24073e-154
9.75114e-154
9.48801e-154
8.9623e-154
8.33491e-154
7.65632e-154
6.94978e-154
6.23257e-154
5.52011e-154
4.82616e-154
4.16266e-154
3.5395e-154
2.96471e-154
2.44912e-154
1.99444e-154
1.59762e-154
1.25603e-154
9.68815e-155
7.31636e-155
5.39517e-155
3.87226e-155
2.69627e-155
1.81577e-155
1.17986e-155
7.39825e-156
4.48624e-156
2.63497e-156
1.49869e-156
8.23314e-157
4.34497e-157
2.1854e-157
1.03845e-157
4.63167e-158
1.93409e-158
7.56273e-159
2.76863e-159
9.46227e-160
3.00272e-160
8.79331e-161
2.36377e-161
5.80945e-162
1.30145e-162
2.65115e-163
4.90099e-164
8.20869e-165
1.2442e-165
1.70539e-166
2.11339e-167
2.36844e-168
2.40196e-169
2.20687e-170
1.84132e-171
1.40435e-172
9.93771e-174
6.68231e-175
4.38146e-176
2.85022e-177
1.84752e-178
1.18806e-179
7.52903e-181
4.67711e-182
2.83797e-183
1.67811e-184
9.65471e-186
5.39835e-187
2.92812e-188
1.53231e-189
7.72134e-191
3.74126e-192
1.74052e-193
7.76237e-195
3.31305e-196
1.35081e-197
5.25097e-199
1.942e-200
6.81746e-202
2.26607e-203
7.1123e-205
2.10146e-206
5.8258e-208
1.50972e-209
3.6419e-211
8.13955e-213
1.67637e-214
3.16183e-216
5.42186e-218
8.38035e-220
1.15551e-221
1.40324e-223
1.47681e-225
1.31881e-227
9.70922e-230
5.65105e-232
2.43235e-234
6.83902e-237
9.12927e-240
1.10738e-239
7.47248e-237
2.58425e-234
5.94498e-232
1.01803e-229
1.38208e-227
1.54887e-225
1.47378e-223
1.21562e-221
8.83176e-220
5.72378e-218
3.3434e-216
1.77537e-214
8.63239e-213
3.86734e-211
1.605e-209
6.19968e-208
2.23826e-206
7.58082e-205
2.4168e-203
7.27436e-202
2.07287e-200
5.60613e-199
1.44234e-197
3.53754e-196
8.28744e-195
1.85785e-193
3.99218e-192
8.23574e-191
1.63354e-189
3.11961e-188
5.74407e-187
1.0234e-185
1.77289e-184
2.98976e-183
4.91533e-182
7.89577e-181
1.24351e-179
1.92994e-178
2.97062e-177
4.55465e-176
6.93005e-175
1.02931e-173
1.45484e-172
1.90971e-171
2.29166e-170
2.49623e-169
2.46187e-168
2.19583e-167
1.77013e-166
1.28942e-165
8.48989e-165
5.05678e-164
2.72816e-163
1.33549e-162
5.94424e-162
2.41172e-161
8.94708e-161
3.04755e-160
9.58271e-160
2.79888e-159
7.63396e-159
1.9496e-158
4.66221e-158
1.04386e-157
2.19417e-157
4.35858e-157
8.25389e-157
1.50178e-156
2.63941e-156
4.4923e-156
7.40606e-156
1.18077e-155
1.81671e-155
2.69709e-155
3.87291e-155
5.39566e-155
7.3168e-155
9.68872e-155
1.25613e-154
1.59783e-154
1.99486e-154
2.44986e-154
2.96592e-154
3.5415e-154
4.16589e-154
4.83116e-154
5.5276e-154
6.24348e-154
6.9653e-154
7.67792e-154
8.36426e-154
9.00073e-154
9.5348e-154
9.79954e-154
9.27224e-154
6.87443e-154
2.51596e-154
8.21598e-156
1.77935e-158
8.05284e-157
3.57956e-154
8.45723e-153
2.10826e-152
2.75122e-152
2.87874e-152
2.80043e-152
2.65432e-152
2.48097e-152
2.2929e-152
2.09596e-152
1.89461e-152
1.69289e-152
1.49455e-152
1.3029e-152
1.12081e-152
9.50696e-153
7.96215e-153
6.5814e-153
5.35736e-153
4.28525e-153
3.36781e-153
2.59527e-153
1.95596e-153
1.43707e-153
1.02596e-153
7.09493e-154
4.74076e-154
3.06103e-154
1.91404e-154
1.16101e-154
6.83133e-155
3.88991e-155
2.13236e-155
1.11636e-155
5.53156e-156
2.57678e-156
1.12566e-156
4.6133e-157
1.77376e-157
6.37883e-158
2.13303e-158
6.58857e-159
1.8694e-159
4.85197e-160
1.1483e-160
2.47147e-161
4.82618e-162
8.53375e-163
1.36424e-163
1.96968e-164
2.567e-165
3.01971e-166
3.20775e-167
3.07984e-168
2.67887e-169
2.12537e-170
1.56254e-171
1.09165e-172
7.44396e-174
5.03992e-175
3.39989e-176
2.27391e-177
1.49769e-178
9.66551e-180
6.09164e-181
3.74151e-182
2.23675e-183
1.29807e-184
7.27123e-186
3.9248e-187
2.03874e-188
1.01776e-189
4.87571e-191
2.23803e-192
9.82663e-194
4.1198e-195
1.64603e-196
6.2543e-198
2.25481e-199
7.69393e-201
2.47805e-202
7.5109e-204
2.13524e-205
5.67239e-207
1.4023e-208
3.21087e-210
6.77298e-212
1.30802e-213
2.29602e-215
3.63189e-217
5.12371e-219
6.36482e-221
6.85064e-223
6.25546e-225
4.70823e-227
2.80121e-229
1.23245e-231
3.54288e-234
4.84191e-237
5.88265e-237
3.89424e-234
1.31932e-231
2.9715e-229
4.98006e-227
6.615e-225
7.25135e-223
6.7473e-221
5.44101e-219
3.86368e-217
2.44679e-215
1.39619e-213
7.24051e-212
3.43724e-210
1.50301e-208
6.08637e-207
2.29323e-205
8.07305e-204
2.66527e-202
8.27949e-201
2.42735e-199
6.73463e-198
1.77268e-196
4.43682e-195
1.05817e-193
2.40946e-192
5.24746e-191
1.09488e-189
2.19206e-188
4.21728e-187
7.80737e-186
1.39262e-184
2.39654e-183
3.9927e-182
6.47716e-181
1.02461e-179
1.58355e-178
2.3987e-177
3.57864e-176
5.29219e-175
7.79549e-174
1.14034e-172
1.62984e-171
2.2169e-170
2.79691e-169
3.21881e-168
3.35419e-167
3.15706e-166
2.68151e-165
2.05451e-164
1.42007e-163
8.86047e-163
4.99638e-162
2.55056e-161
1.18116e-160
4.97437e-160
1.91037e-159
6.71228e-159
2.16699e-158
6.46481e-158
1.79417e-157
4.65889e-157
1.1351e-156
2.59449e-156
5.5614e-156
1.12096e-155
2.13916e-155
3.89984e-155
6.84549e-155
1.16295e-154
1.91656e-154
3.0641e-154
4.74413e-154
7.09804e-154
1.02618e-153
1.43717e-153
1.95593e-153
2.59512e-153
3.36758e-153
4.28498e-153
5.35723e-153
6.58172e-153
7.96315e-153
9.509e-153
1.1212e-152
1.3036e-152
1.49568e-152
1.69463e-152
1.89715e-152
2.09956e-152
2.29783e-152
2.48752e-152
2.66268e-152
2.81023e-152
2.8884e-152
2.75671e-152
2.10332e-152
8.34634e-153
3.45742e-154
7.64451e-157
2.6391e-155
1.15123e-152
2.13632e-151
4.91893e-151
6.26759e-151
6.4929e-151
6.30351e-151
5.99362e-151
5.63134e-151
5.23732e-151
4.82216e-151
4.3944e-151
3.96209e-151
3.53278e-151
3.1134e-151
2.71007e-151
2.32833e-151
1.97727e-151
1.65919e-151
1.37269e-151
1.11728e-151
8.94845e-152
7.03825e-152
5.42314e-152
4.08049e-152
2.98858e-152
2.12383e-152
1.4606e-152
9.72058e-153
6.27387e-153
3.93382e-153
2.39655e-153
1.41561e-153
8.06715e-154
4.40026e-154
2.27623e-154
1.10899e-154
5.07597e-155
2.18405e-155
8.83535e-156
3.3498e-156
1.18277e-156
3.86202e-157
1.15938e-157
3.18623e-158
7.98939e-159
1.8225e-159
3.772e-160
7.06638e-161
1.19592e-161
1.82588e-162
2.51264e-163
3.11555e-164
3.48138e-165
3.50814e-166
3.195e-167
2.64863e-168
2.03219e-169
1.48168e-170
1.05507e-171
7.46111e-173
5.25391e-174
3.66406e-175
2.51409e-176
1.68903e-177
1.10772e-178
7.07914e-180
4.40094e-181
2.64462e-182
1.53224e-183
8.54858e-185
4.58688e-186
2.36384e-187
1.16836e-188
5.53014e-190
2.50253e-191
1.08079e-192
4.44616e-194
1.73866e-195
6.44829e-197
2.26258e-198
7.49063e-200
2.33286e-201
6.81203e-203
1.85814e-204
4.71515e-206
1.10786e-207
2.39728e-209
4.74795e-211
8.54482e-213
1.38542e-214
2.00284e-216
2.54895e-218
2.8101e-220
2.62772e-222
2.02503e-224
1.23344e-226
5.55552e-229
1.63526e-231
2.29167e-234
2.79003e-234
1.80952e-231
5.99703e-229
1.32051e-226
2.16278e-224
2.80661e-222
3.00484e-220
2.73002e-218
2.14898e-216
1.4892e-214
9.20088e-213
5.1208e-211
2.58938e-209
1.19823e-207
5.10581e-206
2.01415e-204
7.39039e-203
2.53275e-201
8.13711e-200
2.45891e-198
7.00984e-197
1.89036e-195
4.83422e-194
1.175e-192
2.72007e-191
6.00881e-190
1.26892e-188
2.56584e-187
4.97556e-186
9.26591e-185
1.65939e-183
2.86134e-182
4.75639e-181
7.63258e-180
1.18922e-178
1.80681e-177
2.6812e-176
3.89733e-175
5.57486e-174
7.89688e-173
1.11358e-171
1.55972e-170
2.13566e-169
2.78288e-168
3.35947e-167
3.69155e-166
3.66409e-165
3.27725e-164
2.63963e-163
1.91434e-162
1.25059e-161
7.36647e-161
3.91854e-160
1.88632e-159
8.23798e-159
3.27309e-158
1.18669e-157
3.93949e-157
1.20277e-156
3.39745e-156
8.94209e-156
2.20665e-155
5.12049e-155
1.11694e-154
2.28901e-154
4.41908e-154
8.09375e-154
1.41934e-153
2.40164e-153
3.94051e-153
6.2822e-153
9.7303e-153
1.46162e-152
2.1247e-152
2.98911e-152
4.08056e-152
5.42272e-152
7.03734e-152
8.94706e-152
1.1171e-151
1.3725e-151
1.65905e-151
1.97722e-151
2.32843e-151
2.71048e-151
3.11436e-151
3.53451e-151
3.96488e-151
4.3986e-151
4.82814e-151
5.24547e-151
5.64204e-151
6.00717e-151
6.31884e-151
6.50739e-151
6.27457e-151
4.90946e-151
2.11263e-151
1.11723e-152
2.51937e-155
6.74713e-154
2.89093e-151
4.18413e-150
8.92208e-150
1.1227e-149
1.14402e-149
1.10087e-149
1.04847e-149
9.90205e-150
9.2696e-150
8.59889e-150
7.90206e-150
7.19111e-150
6.4777e-150
5.77268e-150
5.08599e-150
4.42702e-150
3.8131e-150
3.24899e-150
2.73252e-150
2.26367e-150
1.84808e-150
1.48404e-150
1.16951e-150
9.01628e-151
6.77911e-151
4.95499e-151
3.51097e-151
2.41124e-151
1.60831e-151
1.04362e-151
6.58971e-152
4.04167e-152
2.39664e-152
1.36348e-152
7.37321e-153
3.76302e-153
1.80788e-153
8.1823e-154
3.48956e-154
1.39769e-154
5.22245e-155
1.80688e-155
5.7538e-156
1.679e-156
4.47408e-157
1.08525e-157
2.38889e-158
4.75882e-159
8.55904e-160
1.38739e-160
2.02438e-161
2.6572e-162
3.1372e-163
3.33295e-164
3.193e-165
2.77888e-166
2.23584e-167
1.70923e-168
1.27642e-169
9.46303e-171
6.97811e-172
5.08899e-173
3.64688e-174
2.55657e-175
1.74846e-176
1.16485e-177
7.52929e-179
4.69467e-180
2.82001e-181
1.62998e-182
9.05458e-184
4.82779e-185
2.46729e-186
1.20679e-187
5.64014e-189
2.5144e-190
1.0672e-191
4.30362e-193
1.64523e-194
5.9479e-196
2.02803e-197
6.50239e-199
1.95401e-200
5.4833e-202
1.43094e-203
3.45647e-205
7.68692e-207
1.56421e-208
2.89149e-210
4.81407e-212
7.14453e-214
9.33202e-216
1.05566e-217
1.01268e-219
8.00456e-222
5.00006e-224
2.30949e-226
6.9729e-229
1.00388e-231
1.22555e-231
7.77553e-229
2.51671e-226
5.40865e-224
8.64222e-222
1.09374e-219
1.14167e-217
1.01099e-215
7.75444e-214
5.23461e-212
3.14956e-210
1.70654e-208
8.39852e-207
3.78129e-205
1.56716e-203
6.01101e-202
2.14376e-200
7.13831e-199
2.22743e-197
6.53485e-196
1.80792e-194
4.72937e-193
1.17266e-191
2.76226e-190
6.19394e-189
1.32466e-187
2.70667e-186
5.29249e-185
9.91813e-184
1.78381e-182
3.08306e-181
5.12694e-180
8.21261e-179
1.26874e-177
1.8962e-176
2.7612e-175
3.92528e-174
5.46136e-173
7.46895e-172
1.01018e-170
1.35863e-169
1.8142e-168
2.36869e-167
2.9427e-166
3.38297e-165
3.53296e-164
3.32488e-163
2.81335e-162
2.13944e-161
1.46247e-160
8.9932e-160
4.98154e-159
2.49047e-158
1.12656e-157
4.62447e-157
1.72815e-156
5.89849e-156
1.84537e-155
5.31565e-155
1.41855e-154
3.53359e-154
8.27052e-154
1.82438e-153
3.79108e-153
7.41613e-153
1.36951e-152
2.40481e-152
4.05265e-152
6.60418e-152
1.04545e-151
1.61049e-151
2.41368e-151
3.5134e-151
4.95697e-151
6.78016e-151
9.01617e-151
1.16937e-150
1.48377e-150
1.84767e-150
2.26311e-150
2.73186e-150
3.24834e-150
3.81248e-150
4.42651e-150
5.08583e-150
5.77324e-150
6.47927e-150
7.19407e-150
7.90682e-150
8.60589e-150
9.27929e-150
9.91499e-150
1.05022e-149
1.10272e-149
1.14572e-149
1.12339e-149
8.90547e-150
4.14519e-150
2.81732e-151
6.47563e-154
1.35498e-152
5.70497e-150
6.39034e-149
1.27786e-148
1.63759e-148
1.61213e-148
1.50636e-148
1.42931e-148
1.35595e-148
1.278e-148
1.19486e-148
1.10768e-148
1.01781e-148
9.2662e-149
8.35373e-149
7.45273e-149
6.57519e-149
5.74624e-149
4.97331e-149
4.25344e-149
3.58751e-149
2.98654e-149
2.44942e-149
1.97515e-149
1.56114e-149
1.20593e-149
9.07522e-150
6.63385e-150
4.70833e-150
3.25044e-150
2.18595e-150
1.43246e-150
9.13307e-151
5.64177e-151
3.35193e-151
1.89776e-151
1.01648e-151
5.13669e-152
2.45074e-152
1.10429e-152
4.68332e-153
1.85627e-153
6.82266e-154
2.31098e-154
7.18189e-155
2.04038e-155
5.28079e-156
1.24081e-156
2.63836e-157
5.06287e-158
8.74895e-159
1.35936e-159
1.89718e-160
2.37733e-161
2.67513e-162
2.70857e-163
2.48669e-164
2.1083e-165
1.69791e-166
1.3355e-167
1.0419e-168
8.07185e-170
6.17367e-171
4.63295e-172
3.39719e-173
2.42831e-174
1.68953e-175
1.13707e-176
7.37464e-178
4.60388e-179
2.76344e-180
1.59298e-181
8.8076e-183
4.66453e-184
2.36281e-185
1.14297e-186
5.27089e-188
2.31297e-189
9.63861e-191
3.80589e-192
1.42051e-193
4.99826e-195
1.65311e-196
5.12235e-198
1.48161e-199
3.98387e-201
9.91192e-203
2.26973e-204
4.75417e-206
9.0433e-208
1.54887e-209
2.36402e-211
3.17477e-213
3.69157e-215
3.63927e-217
2.95559e-219
1.89663e-221
8.99929e-224
2.79188e-226
4.13679e-229
5.06907e-229
3.14125e-226
9.91336e-224
2.07582e-221
3.23034e-219
3.98019e-217
4.04349e-215
3.4838e-213
2.59907e-211
1.70601e-209
9.97789e-208
5.25369e-206
2.51169e-204
1.09819e-202
4.41847e-201
1.64465e-199
5.68996e-198
1.83725e-196
5.55706e-195
1.57965e-193
4.23252e-192
1.07181e-190
2.57144e-189
5.85777e-188
1.2696e-186
2.62297e-185
5.17431e-184
9.76183e-183
1.76387e-181
3.05663e-180
5.08638e-179
8.13719e-178
1.25291e-176
1.85877e-175
2.66191e-174
3.70708e-173
5.03648e-172
6.68977e-171
8.72171e-170
1.12261e-168
1.43462e-167
1.81848e-166
2.25325e-165
2.65578e-164
2.89342e-163
2.85813e-162
2.53843e-161
2.02266e-160
1.44576e-159
9.27492e-159
5.34622e-158
2.77366e-157
1.29823e-156
5.49809e-156
2.11402e-155
7.40626e-155
2.37264e-154
6.97598e-154
1.891e-153
4.75621e-153
1.11875e-152
2.47808e-152
5.18513e-152
1.02431e-151
1.90914e-151
3.36719e-151
5.66155e-151
9.15861e-151
1.43569e-150
2.18985e-150
3.25491e-150
4.71313e-150
6.63845e-150
9.07878e-150
1.2061e-149
1.56109e-149
1.97485e-149
2.44885e-149
2.98569e-149
3.58634e-149
4.25202e-149
4.97178e-149
5.74459e-149
6.57347e-149
7.45124e-149
8.3529e-149
9.26634e-149
1.01796e-148
1.108e-148
1.19539e-148
1.2788e-148
1.35717e-148
1.43159e-148
1.50826e-148
1.61386e-148
1.63833e-148
1.27564e-148
6.34083e-149
5.57992e-150
1.30595e-152
2.13376e-151
8.82994e-149
7.58735e-148
1.47915e-147
2.05383e-147
1.88708e-147
1.62917e-147
1.51605e-147
1.44049e-147
1.3672e-147
1.28891e-147
1.206e-147
1.11953e-147
1.03071e-147
9.40621e-148
8.50296e-148
7.60857e-148
6.7507e-148
5.93799e-148
5.167e-148
4.43925e-148
3.77021e-148
3.15974e-148
2.6087e-148
2.11546e-148
1.68047e-148
1.30367e-148
9.84638e-149
7.23523e-149
5.17984e-149
3.61715e-149
2.4642e-149
1.63568e-149
1.05405e-149
6.54982e-150
3.88967e-150
2.19141e-150
1.16776e-150
5.8885e-151
2.81056e-151
1.26535e-151
5.33449e-152
2.08895e-152
7.54984e-153
2.50707e-153
7.62057e-154
2.11228e-154
5.31834e-155
1.21193e-155
2.49165e-156
4.61002e-157
7.66122e-158
1.1421e-158
1.52612e-159
1.82766e-160
1.96532e-161