/*--------------------------------*- C++ -*----------------------------------*\
| =========                 |                                                 |
| \\      /  F ield         | OpenFOAM: The Open Source CFD Toolbox           |
|  \\    /   O peration     | Version:  2412                                  |
|   \\  /    A nd           | Website:  www.openfoam.com                      |
|    \\/     M anipulation  |                                                 |
\*---------------------------------------------------------------------------*/
FoamFile
{
    version     2.0;
    format      ascii;
    arch        "LSB;label=32;scalar=64";
    class       surfaceScalarField;
    location    "1.6";
    object      alphaPhi0.water;
}
// * * * * * * * * * * * * * * * * * * * * * * * * * * * * * * * * * * * * * //

dimensions      [0 3 -1 0 0 0 0];

oriented        oriented;

internalField   nonuniform List<scalar> 
79600
(
-1.97634e-180
4.99121e-183
-2.25048e-178
1.72101e-180
-1.37746e-177
9.55954e-179
-2.63717e-177
3.63811e-178
-3.36933e-177
5.16012e-178
-3.72794e-177
5.37914e-178
-3.87788e-177
5.09013e-178
-3.88247e-177
4.63739e-178
-3.77029e-177
4.12421e-178
-3.56122e-177
3.59516e-178
-3.27619e-177
3.0744e-178
-2.93739e-177
2.57896e-178
-2.56795e-177
2.12017e-178
-2.18702e-177
1.70786e-178
-1.81598e-177
1.3453e-178
-1.46832e-177
1.03689e-178
-1.1568e-177
7.80393e-179
-8.87531e-178
5.73659e-179
-6.61799e-178
4.11463e-179
-4.78213e-178
2.87282e-179
-3.34909e-178
1.94621e-179
-2.26661e-178
1.27907e-179
-1.47829e-178
8.12866e-180
-9.26195e-179
4.98006e-180
-5.56065e-179
2.93098e-180
-3.19065e-179
1.65298e-180
-1.74652e-179
8.90533e-181
-9.12754e-180
4.57386e-181
-4.55804e-180
2.24052e-181
-2.17478e-180
1.04738e-181
-9.88028e-181
4.67007e-182
-4.25538e-181
1.97889e-182
-1.72513e-181
7.92971e-183
-6.53521e-182
2.98214e-183
-2.29828e-182
1.04466e-183
-7.4741e-183
3.37936e-184
-2.24684e-183
1.00697e-184
-6.23272e-184
2.75607e-185
-1.59674e-184
6.91145e-186
-3.76305e-185
1.58655e-186
-8.12531e-186
3.30882e-187
-1.60674e-186
6.24249e-188
-2.90606e-187
1.05756e-188
-4.82986e-188
1.59826e-189
-7.43674e-189
2.14052e-190
-1.0692e-189
2.50431e-191
-1.49741e-190
2.46949e-192
-2.21378e-191
1.87827e-193
-4.28717e-192
4.26796e-195
-6.4472e-193
-5.41727e-191
-7.87067e-194
-1.34934e-191
-8.1642e-195
-2.10908e-192
-7.39405e-196
-2.60238e-193
-5.89845e-197
-2.71222e-194
-4.17948e-198
-2.44873e-195
-2.68911e-199
-1.94355e-196
-1.60743e-200
-1.38484e-197
-9.18714e-202
-9.05699e-199
-5.16051e-203
-5.59711e-200
-2.88892e-204
-3.36319e-201
-1.6108e-205
-1.99859e-202
-8.88226e-207
-1.17869e-203
-4.80682e-208
-6.86149e-205
-2.5392e-209
-3.91608e-206
-1.3023e-210
-2.18029e-207
-6.46484e-212
-1.17675e-208
-3.10422e-213
-6.15176e-210
-1.43732e-214
-3.1093e-211
-6.40923e-216
-1.51544e-212
-2.74726e-217
-7.11473e-214
-1.13015e-218
-3.21273e-215
-4.4676e-220
-1.3929e-216
-1.68564e-221
-5.80726e-218
-6.09449e-223
-2.31412e-219
-2.09727e-224
-8.8437e-221
-6.88326e-226
-3.22249e-222
-2.14817e-227
-1.1215e-223
-6.3523e-229
-3.71745e-225
-1.77691e-230
-1.17025e-226
-4.68871e-232
-3.49252e-228
-1.16487e-233
-9.85704e-230
-2.71644e-235
-2.62547e-231
-5.9203e-237
-6.58166e-233
-1.20277e-238
-1.54699e-234
-2.26459e-240
-3.39933e-236
-3.92581e-242
-6.94973e-238
-6.27189e-244
-1.31347e-239
-9.15384e-246
-2.29824e-241
-1.2018e-247
-3.69275e-243
-1.42363e-249
-5.37549e-245
-1.49161e-251
-7.10925e-247
-1.36707e-253
-8.3945e-249
-1.07203e-255
-8.76684e-251
-7.08934e-258
-7.94713e-253
-3.77117e-260
-6.17951e-255
-1.54356e-262
-3.96122e-257
-4.50149e-265
-2.02037e-259
-7.90933e-268
-7.71616e-262
-5.58421e-271
-1.93329e-264
-1.86534e-271
-2.31096e-267
2.37156e-271
-2.70945e-267
4.98189e-268
-1.98272e-264
3.22014e-265
-7.64195e-262
1.18018e-262
-1.97277e-259
2.97753e-260
-3.80855e-257
5.74555e-258
-5.90348e-255
8.88927e-256
-7.58517e-253
1.14007e-253
-8.27656e-251
1.26236e-251
-7.92903e-249
1.21097e-249
-6.67773e-247
1.03321e-247
-5.05648e-245
7.85623e-246
-3.44436e-243
5.44432e-244
-2.15327e-241
3.42282e-242
-1.22975e-239
1.97068e-240
-6.46644e-238
1.05052e-238
-3.16343e-236
5.20761e-237
-1.44429e-234
2.39768e-235
-6.14842e-233
1.0318e-233
-2.45446e-231
4.16802e-232
-9.22276e-230
1.5837e-230
-3.26909e-228
5.67463e-229
-1.09564e-226
1.92361e-227
-3.48177e-225
6.20063e-226
-1.05405e-223
1.89645e-224
-3.03434e-222
5.51652e-223
-8.32379e-221
1.53403e-221
-2.1858e-219
4.06923e-220
-5.48404e-218
1.0349e-218
-1.32055e-216
2.52057e-217
-3.04782e-215
5.88987e-216
-6.75609e-214
1.32671e-214
-1.44383e-212
2.87566e-213
-2.97087e-211
6.00579e-212
-5.89164e-210
1.21223e-210
-1.12902e-208
2.36952e-209
-2.09468e-207
4.49734e-208
-3.77318e-206
8.3206e-207
-6.61925e-205
1.50883e-205
-1.13735e-203
2.70372e-204
-1.92768e-202
4.82242e-203
-3.23989e-201
8.56094e-202
-5.38409e-200
1.49741e-200
-8.71869e-199
2.51921e-199
-1.34057e-197
3.94095e-198
-1.89377e-196
5.59258e-197
-2.40095e-195
7.07957e-196
-2.685e-194
7.91431e-195
-2.60696e-193
7.6465e-194
-2.13355e-192
6.36532e-193
-1.3982e-191
4.34584e-192
-6.02884e-191
2.21569e-191
1.87011e-195
1.41523e-190
1.63097e-193
9.99122e-190
2.20439e-192
6.88415e-189
2.2457e-191
4.47781e-188
1.94295e-190
2.70098e-187
1.45925e-189
1.49535e-186
9.69739e-189
7.58549e-186
5.75163e-188
3.5169e-185
3.05817e-187
1.49374e-184
1.46897e-186
5.86631e-184
6.43867e-186
2.11344e-183
2.56966e-185
7.03683e-183
9.40227e-185
2.16458e-182
3.1595e-184
6.15586e-182
9.76484e-184
1.62807e-181
2.7941e-183
4.01665e-181
7.43469e-183
9.3342e-181
1.85746e-182
2.05539e-180
4.3877e-182
4.31132e-180
9.84684e-182
8.63658e-180
2.10937e-181
1.65349e-179
4.30814e-181
3.02122e-179
8.3941e-181
5.26829e-179
1.55924e-180
8.77694e-179
2.76642e-180
1.40107e-178
4.702e-180
2.14935e-178
7.67974e-180
3.17742e-178
1.21e-179
4.53906e-178
1.84227e-179
6.27996e-178
2.71957e-179
8.43002e-178
3.89963e-179
1.09929e-177
5.4406e-179
1.39541e-177
7.40735e-179
1.72587e-177
9.84691e-179
2.07861e-177
1.2784e-178
2.43924e-177
1.62265e-178
2.79004e-177
2.01655e-178
3.11146e-177
2.45475e-178
3.38132e-177
2.92937e-178
3.58018e-177
3.43048e-178
3.6902e-177
3.94475e-178
3.69601e-177
4.45663e-178
3.57679e-177
4.94144e-178
3.26676e-177
5.30899e-178
2.58277e-177
5.20626e-178
1.34319e-177
3.74798e-178
2.10695e-178
1.00299e-178
1.48873e-180
1.80897e-180
5.60248e-183
-5.64195e-177
3.15392e-179
-7.32468e-175
1.05772e-176
-3.9755e-174
5.40885e-175
-7.09237e-174
1.71328e-174
-8.59597e-174
2.24388e-174
-9.09941e-174
2.27802e-174
-9.12871e-174
2.14644e-174
-8.88427e-174
1.96388e-174
-8.44228e-174
1.76061e-174
-7.84777e-174
1.54941e-174
-7.14044e-174
1.33871e-174
-6.3598e-174
1.13577e-174
-5.54304e-174
9.45229e-175
-4.7254e-174
7.71734e-175
-3.9386e-174
6.17665e-175
-3.20663e-174
4.83826e-175
-2.55203e-174
3.70712e-175
-1.98376e-174
2.77895e-175
-1.50324e-174
2.03648e-175
-1.10779e-174
1.45516e-175
-7.93229e-175
1.01183e-175
-5.50569e-175
6.83419e-176
-3.69425e-175
4.47379e-176
-2.38883e-175
2.82982e-176
-1.48423e-175
1.72286e-176
-8.83783e-176
1.00736e-176
-5.03377e-176
5.63657e-177
-2.74327e-176
3.01129e-177
-1.43249e-176
1.53634e-177
-7.16975e-177
7.49155e-178
-3.433e-177
3.49067e-178
-1.56619e-177
1.55078e-178
-6.76564e-178
6.53548e-179
-2.74725e-178
2.59588e-179
-1.04107e-178
9.62812e-180
-3.66485e-179
3.31209e-180
-1.19617e-179
1.04771e-180
-3.61856e-180
3.03908e-181
-1.01394e-180
8.05493e-182
-2.62489e-181
1.93922e-182
-6.25853e-182
4.20947e-183
-1.3706e-182
8.09937e-184
-2.75488e-183
1.35003e-184
-5.09932e-184
1.86474e-185
-8.78344e-185
1.87761e-186
-1.42034e-185
5.51119e-188
-2.09035e-186
-7.56012e-185
-2.79504e-187
-2.50925e-185
-3.38844e-188
-5.28837e-186
-3.72473e-189
-8.82767e-187
-3.71322e-190
-1.24414e-187
-3.34824e-191
-1.52344e-188
-2.73436e-192
-1.63913e-189
-2.02077e-193
-1.5662e-190
-1.35304e-194
-1.3352e-191
-8.3003e-196
-1.02009e-192
-4.74527e-197
-7.06508e-194
-2.59673e-198
-4.50822e-195
-1.39507e-199
-2.72026e-196
-7.46668e-201
-1.59369e-197
-3.99436e-202
-9.22809e-199
-2.12016e-203
-5.31583e-200
-1.1084e-204
-3.03188e-201
-5.67628e-206
-1.70104e-202
-2.82051e-207
-9.33632e-204
-1.36459e-208
-4.97126e-205
-6.39333e-210
-2.57387e-206
-2.89307e-211
-1.28993e-207
-1.26354e-212
-6.24256e-209
-5.31358e-214
-2.9149e-210
-2.14764e-215
-1.31084e-211
-8.35486e-217
-5.66736e-213
-3.10849e-218
-2.35812e-214
-1.1096e-219
-9.39653e-216
-3.7779e-221
-3.59265e-217
-1.22853e-222
-1.31245e-218
-3.80348e-224
-4.58399e-220
-1.11844e-225
-1.52667e-221
-3.11611e-227
-4.83922e-223
-8.20357e-229
-1.45672e-224
-2.03625e-230
-4.15425e-226
-4.75186e-232
-1.11984e-227
-1.03824e-233
-2.84552e-229
-2.11701e-235
-6.78985e-231
-4.00731e-237
-1.51592e-232
-6.99461e-239
-3.15119e-234
-1.12703e-240
-6.06189e-236
-1.66153e-242
-1.07878e-237
-2.2095e-244
-1.76259e-239
-2.65525e-246
-2.61366e-241
-2.83066e-248
-3.51441e-243
-2.64793e-250
-4.2216e-245
-2.12858e-252
-4.48233e-247
-1.44901e-254
-4.13212e-249
-7.99738e-257
-3.25812e-251
-3.43241e-259
-2.11964e-253
-1.06781e-261
-1.09525e-255
-2.07362e-264
-4.21997e-258
-1.76551e-267
-1.06317e-260
-1.23788e-267
-1.26096e-263
-2.97749e-265
-1.5614e-263
3.11212e-265
-1.13771e-260
3.55704e-262
-4.32008e-258
1.53195e-259
-1.09976e-255
4.15652e-257
-2.09498e-253
8.33061e-255
-3.19561e-251
1.3174e-252
-4.03985e-249
1.71346e-250
-4.34323e-247
1.91254e-248
-4.08646e-245
1.84572e-246
-3.38605e-243
1.58127e-244
-2.51855e-241
1.20642e-242
-1.68776e-239
8.38022e-241
-1.03567e-237
5.28595e-239
-5.81557e-236
3.05304e-237
-3.00896e-234
1.63315e-235
-1.44756e-232
8.12511e-234
-6.49789e-231
3.75765e-232
-2.72304e-229
1.62558e-230
-1.0713e-227
6.60644e-229
-3.97264e-226
2.5284e-227
-1.39198e-224
9.13636e-226
-4.6203e-223
3.12731e-224
-1.45687e-221
1.01894e-222
-4.38054e-220
3.15487e-221
-1.25502e-218
9.30628e-220
-3.4331e-217
2.6274e-218
-8.99803e-216
7.08745e-217
-2.25741e-214
1.83655e-215
-5.44271e-213
4.56222e-214
-1.25938e-211
1.08936e-212
-2.80338e-210
2.51026e-211
-6.02103e-209
5.57721e-210
-1.24723e-207
1.19667e-208
-2.49501e-206
2.48574e-207
-4.83083e-205
5.01041e-206
-9.07286e-204
9.84086e-205
-1.65914e-202
1.88798e-203
-2.96206e-201
3.5643e-202
-5.19827e-200
6.66995e-201
-9.02663e-199
1.24546e-199
-1.55763e-197
2.31841e-198
-2.6592e-196
4.24262e-197
-4.41385e-195
7.45936e-196
-6.94982e-194
1.22362e-194
-1.00919e-192
1.83873e-193
-1.32847e-191
2.50541e-192
-1.56902e-190
3.08356e-191
-1.65167e-189
3.44998e-190
-1.55542e-188
3.47478e-189
-1.28162e-187
3.17338e-188
-9.21604e-187
2.62646e-187
-5.64766e-186
1.97133e-186
-2.80595e-185
1.34385e-185
-9.77214e-185
8.32004e-185
-4.19782e-185
4.7858e-184
1.41237e-186
2.57096e-183
1.57251e-185
1.27426e-182
1.18261e-184
5.80308e-182
7.2268e-184
2.42884e-181
3.79522e-183
9.36944e-181
1.76108e-182
3.34224e-180
7.34452e-182
1.10402e-179
2.78008e-181
3.38064e-179
9.60828e-181
9.59911e-179
3.04277e-180
2.53225e-178
8.86438e-180
6.23745e-178
2.39279e-179
1.44416e-177
6.03404e-179
3.16676e-177
1.4339e-178
6.61702e-177
3.2315e-178
1.32277e-176
6.94541e-178
2.53461e-176
1.42481e-177
4.6534e-176
2.79666e-177
8.17461e-176
5.23943e-177
1.37372e-175
9.375e-177
2.21234e-175
1.60508e-176
3.42358e-175
2.63836e-176
5.1064e-175
4.1763e-176
7.36352e-175
6.38325e-176
1.02926e-174
9.4604e-176
1.39781e-174
1.36217e-175
1.84649e-174
1.90821e-175
2.37766e-174
2.60658e-175
2.9902e-174
3.47974e-175
3.67604e-174
4.54596e-175
4.4144e-174
5.80983e-175
5.18248e-174
7.27006e-175
5.95218e-174
8.9146e-175
6.69073e-174
1.07252e-174
7.36374e-174
1.26659e-174
7.93636e-174
1.46921e-174
8.37542e-174
1.67512e-174
8.64568e-174
1.87781e-174
8.68071e-174
2.06832e-174
8.27371e-174
2.21881e-174
6.86963e-174
2.2133e-174
3.82928e-174
1.70681e-174
6.82973e-175
5.36869e-175
4.8807e-177
1.02645e-176
3.01043e-179
-2.23293e-174
1.74345e-176
-2.72733e-172
6.90536e-174
-1.25416e-171
3.17365e-172
-1.97822e-171
8.16895e-172
-2.14618e-171
9.45841e-172
-2.03808e-171
9.08276e-172
-1.83965e-171
8.39046e-172
-1.61714e-171
7.64598e-172
-1.3928e-171
6.8656e-172
-1.17677e-171
6.06696e-172
-9.75288e-172
5.27072e-172
-7.92026e-172
4.49588e-172
-6.29913e-172
3.76847e-172
-4.89854e-172
3.10001e-172
-3.71712e-172
2.49978e-172
-2.74752e-172
1.9753e-172
-1.97648e-172
1.52772e-172
-1.38006e-172
1.15663e-172
-9.31223e-173
8.57159e-173
-6.03612e-173
6.19702e-173
-3.73431e-173
4.36312e-173
-2.1827e-173
2.98689e-173
-1.18498e-173
1.98223e-173
-5.79846e-174
1.27174e-173
-2.40182e-174
7.86728e-174
-6.75489e-175
4.66743e-174
1.26201e-175
2.64879e-174
5.52914e-175
1.43415e-174
5.83293e-175
7.40242e-175
4.64168e-175
3.64327e-175
3.19764e-175
1.70679e-175
1.99285e-175
7.60725e-176
1.14472e-175
3.19214e-176
6.09309e-176
1.25447e-176
3.00492e-176
4.5397e-177
1.36956e-176
1.48909e-177
5.75604e-177
4.32976e-178
2.23115e-177
1.0733e-178
7.98812e-178
2.06673e-179
2.64458e-178
1.95232e-180
8.08838e-179
-2.70061e-178
2.27369e-179
-2.10576e-178
5.84819e-180
-8.71183e-179
1.37152e-180
-2.7875e-179
2.92494e-181
-7.48981e-180
5.66197e-182
-1.74303e-180
9.93215e-183
-3.57128e-181
1.57777e-183
-6.48034e-182
2.26843e-184
-1.04736e-182
2.95063e-185
-1.51292e-183
3.47242e-186
-1.95884e-184
3.69755e-187
-2.27842e-185
3.56267e-188
-2.38475e-186
3.10693e-189
-2.25071e-187
2.45297e-190
-1.91863e-188
1.75642e-191
-1.48107e-189
1.14887e-192
-1.04247e-190
6.97374e-194
-6.78308e-192
4.02418e-195
-4.17033e-193
2.2647e-196
-2.48216e-194
1.26492e-197
-1.45607e-195
7.04636e-199
-8.47271e-197
3.89703e-200
-4.87689e-198
2.12375e-201
-2.75953e-199
1.13343e-202
-1.52615e-200
5.88985e-204
-8.20645e-202
2.97162e-205
-4.28146e-203
1.45257e-206
-2.16253e-204
6.86093e-208
-1.05504e-205
3.12608e-209
-4.96522e-207
1.3718e-210
-2.25098e-208
5.78426e-212
-9.81262e-210
2.34548e-213
-4.11446e-211
9.10222e-215
-1.65324e-212
3.3854e-216
-6.36977e-214
1.20138e-217
-2.34605e-215
4.06938e-219
-8.26096e-217
1.31225e-220
-2.77492e-218
4.01815e-222
-8.87964e-220
1.16565e-223
-2.70236e-221
3.19527e-225
-7.80943e-223
8.25279e-227
-2.139e-224
2.00185e-228
-5.54014e-226
4.54238e-230
-1.35343e-227
9.59758e-232
-3.10681e-229
1.87871e-233
-6.64962e-231
3.38214e-235
-1.31809e-232
5.59249e-237
-2.41335e-234
8.41803e-239
-4.05124e-236
1.13876e-240
-6.17991e-238
1.37975e-242
-8.52707e-240
1.47085e-244
-1.05033e-241
1.35931e-246
-1.14208e-243
1.0627e-248
-1.07762e-245
6.85105e-251
-8.66544e-248
3.4468e-253
-5.74752e-250
1.25218e-255
-3.02291e-252
2.76742e-258
-1.18081e-254
1.751e-261
-3.01393e-257
-5.1379e-264
-3.63369e-260
-9.37658e-261
-4.40655e-260
-5.69885e-258
-3.21306e-257
-1.9937e-255
-1.21278e-254
-4.82699e-253
-3.05937e-252
-8.92043e-251
-5.75992e-250
-1.32259e-248
-8.64387e-248
-1.62858e-246
-1.07377e-245
-1.72387e-244
-1.13322e-243
-1.58438e-242
-1.04239e-241
-1.29238e-240
-8.44581e-240
-9.40646e-239
-6.12799e-238
-6.21922e-237
-4.00587e-236
-3.73684e-235
-2.39043e-234
-2.05699e-233
-1.30635e-232
-1.04753e-231
-6.57815e-231
-4.95225e-230
-3.07489e-229
-2.17794e-228
-1.33962e-227
-8.96141e-227
-5.46042e-226
-3.46396e-225
-2.09856e-224
-1.26191e-223
-7.6327e-223
-4.34505e-222
-2.63204e-221
-1.41803e-220
-8.62272e-220
-4.40432e-219
-2.68811e-218
-1.30159e-217
-7.99649e-217
-3.66732e-216
-2.27032e-215
-9.88961e-215
-6.15713e-214
-2.55085e-213
-1.59965e-212
-6.31529e-212
-3.98028e-211
-1.50046e-210
-9.51075e-210
-3.42888e-209
-2.18263e-208
-7.55514e-208
-4.81932e-207
-1.60669e-206
-1.0258e-205
-3.30049e-205
-2.10712e-204
-6.56721e-204
-4.17953e-203
-1.26891e-202
-8.02476e-202
-2.38901e-201
-1.49452e-200
-4.40123e-200
-2.70841e-199
-7.98457e-199
-4.79448e-198
-1.43722e-197
-8.33685e-197
-2.57874e-196
-1.43328e-195
-4.59385e-195
-2.44357e-194
-7.99657e-194
-4.10745e-193
-1.32638e-192
-6.69518e-192
-2.04463e-191
-1.0333e-190
-2.88073e-190
-1.4759e-189
-3.68099e-189
-1.92298e-188
-4.25711e-188
-2.26935e-187
-4.45596e-187
-2.41909e-186
-4.21905e-186
-2.32712e-185
-3.61399e-185
-2.01402e-184
-2.80096e-184
-1.56681e-183
-1.96458e-183
-1.09381e-182
-1.24759e-182
-6.83868e-182
-7.17834e-182
-3.82001e-181
-3.74601e-181
-1.89914e-180
-1.77583e-180
-8.36949e-180
-7.66456e-180
-3.24131e-179
-3.02071e-179
-1.08469e-178
-1.09128e-178
-3.02461e-178
-3.62942e-178
-6.33171e-178
-1.11628e-177
-5.3619e-178
-3.18495e-177
8.76813e-180
-8.42791e-177
6.83674e-179
-2.06717e-176
3.13029e-178
-4.70669e-176
1.14885e-177
-9.9892e-176
3.63004e-177
-1.98815e-175
1.02919e-176
-3.73105e-175
2.66789e-176
-6.62539e-175
6.44449e-176
-1.11342e-174
1.46237e-175
-1.76488e-174
3.14702e-175
-2.6183e-174
6.4348e-175
-3.58696e-174
1.25446e-174
-4.44285e-174
2.33006e-174
-4.7564e-174
4.12436e-174
-3.83821e-174
6.97706e-174
-6.95214e-175
1.13328e-173
4.1749e-174
1.77241e-173
1.28385e-173
2.67764e-173
2.73429e-173
3.92065e-173
4.98054e-173
5.58719e-173
8.26597e-173
7.7456e-173
1.28592e-172
1.04786e-172
1.90467e-172
1.387e-172
2.71066e-172
1.79713e-172
3.72288e-172
2.28045e-172
4.95712e-172
2.83439e-172
6.42143e-172
3.45414e-172
8.11202e-172
4.13368e-172
1.00161e-171
4.85654e-172
1.21039e-171
5.6112e-172
1.43318e-171
6.37487e-172
1.66223e-171
7.12933e-172
1.87683e-171
7.87579e-172
2.01159e-171
8.60003e-172
1.87761e-171
9.0872e-172
1.18989e-171
7.94797e-172
2.53473e-172
3.08403e-172
1.96647e-174
6.51365e-174
1.60081e-176
-4.02311e-172
3.92401e-174
-4.03849e-170
1.72898e-171
-1.56201e-169
6.2815e-170
-2.11401e-169
1.26847e-169
-1.90828e-169
1.20708e-169
-1.41218e-169
1.02567e-169
-8.77553e-170
8.97199e-170
-3.88084e-170
8.0046e-170
3.26219e-171
7.12271e-170
4.11873e-170
6.2593e-170
7.07948e-170
5.41361e-170
9.20636e-170
4.59646e-170
1.05449e-169
3.83279e-170
1.11734e-169
3.1337e-170
1.11928e-169
2.50968e-170
1.0722e-169
1.96666e-170
9.88541e-170
1.50575e-170
8.81953e-170
1.12635e-170
7.63387e-170
8.22913e-171
6.41286e-170
5.83851e-171
5.22501e-170
4.01833e-171
4.13042e-170
2.67255e-171
3.16403e-170
1.71211e-171
2.34441e-170
1.04651e-171
1.67608e-170
6.07747e-172
1.15306e-170
3.31475e-172
7.61551e-171
1.66656e-172
4.82059e-171
7.55026e-173
2.92578e-171
2.92057e-173
1.70608e-171
8.11827e-174
9.56996e-172
-7.83622e-174
5.16035e-172
-3.22091e-172
2.66592e-172
-3.29894e-172
1.31233e-172
-2.42755e-172
6.11049e-173
-1.50852e-172
2.67062e-173
-8.26993e-173
1.08945e-173
-4.07039e-173
4.13766e-174
-1.8167e-173
1.46231e-174
-7.40429e-174
4.80592e-175
-2.76758e-174
1.46529e-175
-9.49177e-175
4.12726e-176
-2.98153e-175
1.06885e-176
-8.54626e-176
2.53409e-177
-2.22786e-176
5.48191e-178
-5.26807e-177
1.07942e-178
-1.12789e-177
1.93118e-179
-2.18378e-178
3.13541e-180
-3.81921e-179
4.61581e-181
-6.02971e-180
6.15858e-182
-8.59116e-181
7.44652e-183
-1.10484e-181
8.16118e-184
-1.28302e-182
8.11079e-185
-1.34635e-183
7.31397e-186
-1.27804e-184
5.98918e-187
-1.09891e-185
4.46207e-188
-8.57957e-187
3.04238e-189
-6.11992e-188
1.92412e-190
-4.04251e-189
1.15326e-191
-2.52639e-190
6.70972e-193
-1.52979e-191
3.85719e-194
-9.13264e-193
2.20397e-195
-5.40374e-194
1.24822e-196
-3.16013e-195
6.96163e-198
-1.81465e-196
3.79951e-199
-1.01693e-197
2.02007e-200
-5.53793e-199
1.04291e-201
-2.92215e-200
5.21578e-203
-1.49059e-201
2.52193e-204
-7.33534e-203
1.17693e-205
-3.47594e-204
5.29287e-207
-1.58335e-205
2.29021e-208
-6.91902e-207
9.52281e-210
-2.89686e-208
3.79796e-211
-1.158e-209
1.45051e-212
-4.40774e-211
5.29724e-214
-1.59002e-212
1.84678e-215
-5.39496e-214
6.13513e-217
-1.7103e-215
1.93897e-218
-5.02859e-217
5.81887e-220
-1.34786e-218
1.65457e-221
-3.23514e-220
4.44765e-223
-6.64021e-222
1.12698e-224
-1.03539e-223
2.68357e-226
-5.90351e-226
5.97885e-228
1.56802e-230
1.23577e-229
8.0984e-232
2.354e-231
2.56248e-233
4.10635e-233
6.43947e-235
6.51137e-235
1.37314e-236
9.30448e-237
2.54104e-238
1.1855e-238
4.09832e-240
1.32937e-240
5.75779e-242
1.29042e-242
6.99174e-244
1.06102e-244
7.24749e-246
7.1703e-247
6.2902e-248
3.81051e-249
4.45312e-250
1.48145e-251
2.46714e-252
3.65713e-254
1.00083e-254
3.76537e-257
2.62647e-257
-2.78478e-260
3.22022e-260
-8.10319e-257
3.92788e-260
-5.32928e-254
2.84923e-257
-1.90619e-251
1.05818e-254
-4.62038e-249
2.59798e-252
-8.40659e-247
4.71217e-250
-1.21833e-244
6.71366e-248
-1.4617e-242
7.82002e-246
-1.49174e-240
7.65317e-244
-1.32161e-238
6.40508e-242
-1.03239e-236
4.6523e-240
-7.2004e-235
2.95637e-238
-4.52936e-233
1.65364e-236
-2.59184e-231
8.12432e-235
-1.35883e-229
3.48427e-233
-6.5673e-228
1.27481e-231
-2.94197e-226
3.70926e-230
-1.22895e-224
6.4474e-229
-4.82334e-223
-2.68511e-224
-1.78615e-221
-3.96007e-222
-6.25477e-220
-2.35497e-220
-2.07715e-218
-1.07973e-218
-6.5542e-217
-4.2381e-217
-1.96883e-215
-1.49606e-215
-5.64048e-214
-4.84296e-214
-1.54321e-212
-1.45569e-212
-4.03888e-211
-4.0932e-211
-1.01262e-209
-1.08544e-209
-2.43614e-208
-2.73424e-208
-5.63151e-207
-6.57306e-207
-1.25293e-205
-1.51119e-205
-2.68696e-204
-3.33243e-204
-5.5632e-203
-7.06155e-203
-1.11342e-201
-1.44122e-201
-2.15904e-200
-2.83506e-200
-4.06511e-199
-5.3914e-199
-7.45542e-198
-9.93209e-198
-1.33773e-196
-1.77797e-196
-2.36164e-195
-3.10621e-195
-4.12969e-194
-5.32335e-194
-7.17548e-193
-9.01118e-193
-1.23209e-191
-1.51178e-191
-2.0567e-190
-2.50042e-190
-3.25915e-189
-4.01279e-189
-4.79534e-188
-6.10286e-188
-6.45848e-187
-8.60313e-187
-7.91122e-186
-1.10837e-185
-8.79543e-185
-1.29641e-184
-8.86811e-184
-1.37315e-183
-8.10371e-183
-1.31551e-182
-6.70893e-182
-1.13847e-181
-5.0313e-181
-8.89574e-181
-3.41853e-180
-6.27404e-180
-2.10552e-179
-3.99439e-179
-1.17659e-178
-2.29665e-178
-5.97333e-178
-1.19352e-177
-2.7601e-177
-5.61368e-177
-1.16373e-176
-2.39356e-176
-4.49248e-176
-9.27215e-176
-1.59487e-175
-3.27328e-175
-5.23198e-175
-1.05727e-174
-1.59254e-174
-3.13816e-174
-4.50824e-174
-8.58868e-174
-1.18755e-173
-2.16757e-173
-2.91254e-173
-5.03793e-173
-6.66854e-173
-1.07515e-172
-1.43359e-172
-2.10385e-172
-2.91587e-172
-3.76807e-172
-5.65226e-172
-6.1555e-172
-1.04988e-171
-9.03005e-172
-1.87434e-171
-1.14033e-171
-3.21853e-171
-1.06906e-171
-5.31052e-171
-1.5242e-172
-8.40353e-171
2.12315e-173
-1.27486e-170
7.36927e-173
-1.85739e-170
1.78283e-172
-2.60514e-170
3.66023e-172
-3.52689e-170
6.78732e-172
-4.62056e-170
1.16814e-171
-5.87001e-170
1.89622e-171
-7.24086e-170
2.93658e-171
-8.67124e-170
4.37335e-171
-1.00896e-169
6.28027e-171
-1.14095e-169
8.74661e-171
-1.25152e-169
1.18596e-170
-1.32595e-169
1.5684e-170
-1.35056e-169
2.02417e-170
-1.31259e-169
2.55357e-170
-1.20049e-169
3.15148e-170
-1.00498e-169
3.81297e-170
-7.20471e-170
4.5245e-170
-3.44787e-170
5.27187e-170
1.07445e-170
6.04622e-170
6.07664e-170
6.83836e-170
1.16572e-169
7.7492e-170
1.69902e-169
9.0428e-170
1.95571e-169
1.10313e-169
1.46479e-169
1.20279e-169
3.7537e-170
6.02501e-170
3.59322e-172
1.6173e-171
3.58751e-174
-4.52552e-170
5.37278e-172
-3.59515e-168
2.38468e-169
-1.20596e-167
6.42955e-168
-1.43211e-167
9.69929e-168
-1.0573e-167
6.32014e-168
-4.90054e-168
3.575e-168
7.55322e-169
2.32968e-168
6.11197e-168
1.75009e-168
1.06435e-167
1.3843e-168
1.42354e-167
1.08529e-168
1.6856e-167
8.20316e-169
1.85213e-167
5.84045e-169
1.92972e-167
3.78864e-169
1.9279e-167
2.07987e-169
1.85911e-167
7.0147e-170
1.73708e-167
-2.06252e-168
1.5764e-167
-6.60181e-168
1.3938e-167
-9.56074e-168
1.20207e-167
-1.11675e-167
1.01033e-167
-1.16898e-167
8.26564e-168
-1.13463e-167
6.5819e-168
-1.04035e-167
5.09404e-168
-9.08492e-168
3.82308e-168
-7.59024e-168
2.77475e-168
-6.06678e-168
1.94209e-168
-4.63902e-168
1.30734e-168
-3.39177e-168
8.44822e-169
-2.36845e-168
5.2427e-169
-1.58171e-168
3.13067e-169
-1.01327e-168
1.80142e-169
-6.23989e-169
9.98306e-170
-3.69406e-169
5.31301e-170
-2.09761e-169
2.7007e-170
-1.13653e-169
1.30133e-170
-5.83227e-170
5.89637e-171
-2.81139e-170
2.49739e-171
-1.26535e-170
9.86216e-172
-5.30453e-171
3.63003e-172
-2.07132e-171
1.24477e-172
-7.5318e-172
3.96661e-173
-2.54368e-172
1.16933e-173
-7.94016e-173
3.17235e-174
-2.27797e-173
7.88402e-175
-5.97679e-174
1.78849e-175
-1.4287e-174
3.69362e-176
-3.10273e-175
6.93113e-177
-6.10844e-176
1.1801e-177
-1.08827e-176
1.82122e-178
-1.75217e-177
2.54613e-179
-2.54714e-178
3.22401e-180
-3.34168e-179
3.69838e-181
-3.95635e-180
3.84572e-182
-4.22859e-181
3.6281e-183
-4.08302e-182
3.10916e-184
-3.56553e-183
2.42588e-185
-2.82217e-184
1.73375e-186
-2.03704e-185
1.15032e-187
-1.35942e-186
7.23926e-189
-8.5756e-188
4.4257e-190
-5.23965e-189
2.67411e-191
-3.15316e-190
1.60612e-192
-1.87722e-191
9.55955e-194
-1.10076e-192
5.60252e-195
-6.30795e-194
3.21454e-196
-3.50905e-195
1.79815e-197
-1.88419e-196
9.77837e-199
-9.7176e-198
5.15887e-200
-4.78877e-199
2.63631e-201
-2.24016e-200
1.30311e-202
-9.85703e-202
6.22234e-204
-4.02323e-203
2.86675e-205
-1.47989e-204
1.27283e-206
-4.60864e-206
5.43935e-208
-9.91573e-208
2.2346e-209
9.69346e-213
8.79583e-211
3.95103e-213
3.30193e-212
2.90457e-214
1.17952e-213
1.57757e-215
4.00016e-215
7.30285e-217
1.28466e-216
3.01773e-218
3.89612e-218
1.13435e-219
1.11246e-219
3.91484e-221
2.98043e-221
1.24558e-222
7.46422e-223
3.65836e-224
1.74007e-224
9.91314e-226
3.758e-226
2.47351e-227
7.47812e-228
5.66577e-229
1.36252e-229
1.18637e-230
2.25638e-231
2.25905e-232
3.36684e-233
3.88655e-234
4.47921e-235
5.99281e-236
5.24457e-237
8.20045e-238
5.31616e-239
9.8356e-240
4.56542e-241
1.01774e-241
3.22432e-243
8.89752e-244
1.79275e-245
6.38646e-246
7.31117e-248
3.60943e-248
1.90834e-250
1.5024e-250
2.16708e-253
4.06655e-253
-1.2171e-256
5.18656e-256
-4.05351e-253
6.2914e-256
-2.61917e-250
4.41021e-253
-9.07186e-248
1.58369e-250
-2.11976e-245
3.77236e-248
-3.71046e-243
6.66636e-246
-5.16692e-241
9.30559e-244
-5.95179e-239
1.06819e-241
-5.82884e-237
1.03693e-239
-4.95311e-235
8.68834e-238
-3.70984e-233
6.38332e-236
-2.47998e-231
4.16321e-234
-1.49484e-229
2.43442e-232
-8.19386e-228
1.28657e-230
-4.11393e-226
6.18637e-229
-1.90363e-224
2.72123e-227
-8.1621e-223
1.09973e-225
-3.2581e-221
4.09708e-224
-1.21585e-219
1.41059e-222
-4.25765e-218
4.49394e-221
-1.40374e-216
1.32471e-219
-4.37069e-215
3.60517e-218
-1.2887e-213
9.0145e-217
-3.60737e-212
2.04733e-215
-9.6089e-211
4.1246e-214
-2.4408e-209
6.95536e-213
-5.92612e-208
8.00507e-212
-1.38221e-206
-1.49964e-208
-3.10464e-205
-2.9023e-206
-6.72325e-204
-1.15023e-204
-1.40533e-202
-3.41369e-203
-2.83873e-201
-8.76278e-202
-5.5482e-200
-2.04948e-200
-1.0506e-198
-4.46943e-199
-1.93056e-197
-9.20139e-198
-3.44946e-196
-1.80381e-196
-6.00931e-195
-3.38944e-195
-1.02479e-193
-6.13805e-194
-1.72018e-192
-1.07771e-192
-2.85972e-191
-1.84735e-191
-4.72411e-190
-3.11527e-190
-7.71596e-189
-5.19244e-189
-1.22579e-187
-8.5235e-188
-1.84992e-186
-1.35636e-186
-2.59439e-185
-2.04288e-185
-3.33332e-184
-2.84696e-184
-3.89792e-183
-3.61821e-183
-4.13842e-182
-4.16618e-182
-3.98428e-181
-4.33618e-181
-3.47532e-180
-4.07516e-180
-2.74493e-179
-3.45568e-179
-1.96283e-178
-2.64338e-178
-1.27104e-177
-1.82425e-177
-7.45831e-177
-1.13649e-176
-3.97009e-176
-6.39824e-176
-1.91997e-175
-3.25986e-175
-8.45284e-175
-1.50592e-174
-3.39706e-174
-6.32223e-174
-1.25081e-173
-2.41931e-173
-4.23953e-173
-8.47182e-173
-1.32969e-172
-2.72863e-172
-3.87633e-172
-8.12999e-172
-1.05284e-171
-2.2518e-171
-2.66532e-171
-5.81208e-171
-6.29127e-171
-1.39834e-170
-1.38838e-170
-3.1364e-170
-2.88192e-170
-6.57607e-170
-5.67208e-170
-1.297e-169
-1.06642e-169
-2.42648e-169
-1.92569e-169
-4.33883e-169
-3.34929e-169
-7.45513e-169
-5.61368e-169
-1.23411e-168
-9.0545e-169
-1.96875e-168
-1.40256e-168
-3.02118e-168
-2.08588e-168
-4.45008e-168
-2.98408e-168
-6.28948e-168
-4.11752e-168
-8.54595e-168
-5.49538e-168
-1.11908e-167
-7.11377e-168
-1.41612e-167
-8.95215e-168
-1.73626e-167
-1.09685e-167
-2.06589e-167
-1.30855e-167
-2.38724e-167
-1.52212e-167
-2.67737e-167
-1.72794e-167
-2.91422e-167
-1.91266e-167
-3.07616e-167
-2.05841e-167
-3.13747e-167
-2.1496e-167
-3.06846e-167
-2.17136e-167
-2.85031e-167
-2.11039e-167
-2.4735e-167
-1.95579e-167
-1.93071e-167
-1.70028e-167
-1.22658e-167
-1.34076e-167
-3.63349e-168
-8.78519e-168
1.20617e-169
-3.23994e-168
3.76242e-169
2.79618e-168
8.70081e-169
8.79731e-168
2.11269e-168
1.29829e-167
5.04393e-168
1.12426e-167
8.86495e-168
3.35099e-168
6.10451e-168
4.09817e-170
2.22831e-169
4.93215e-172
-3.5095e-168
4.9827e-170
-2.20946e-166
2.1171e-167
-6.66843e-166
4.16015e-166
-7.33777e-166
4.36915e-166
-4.77525e-166
7.72642e-167
-1.27476e-166
-5.70353e-165
2.2472e-166
-8.75867e-165
5.48142e-166
-9.46898e-165
8.20768e-166
-9.4119e-165
1.03678e-165
-9.09019e-165
1.19441e-165
-8.64218e-165
1.29452e-165
-8.11099e-165
1.34042e-165
-7.51737e-165
1.33749e-165
-6.87753e-165
1.29256e-165
-6.20838e-165
1.21359e-165
-5.52467e-165
1.10909e-165
-4.84232e-165
9.89579e-166
-4.18506e-165
8.62843e-166
-3.56452e-165
7.34462e-166
-2.98536e-165
6.09506e-166
-2.45276e-165
4.93179e-166
-1.97595e-165
3.88501e-166
-1.5575e-165
2.97276e-166
-1.19794e-165
2.20336e-166
-8.96042e-166
1.57728e-166
-6.49638e-166
1.08753e-166
-4.55093e-166
7.2079e-167
-3.07285e-166
4.59375e-167
-1.99994e-166
2.82138e-167
-1.25724e-166
1.67254e-167
-7.64537e-167
9.56717e-168
-4.49593e-167
5.26641e-168
-2.54992e-167
2.77473e-168
-1.38719e-167
1.3885e-168
-7.18074e-168
6.54408e-169
-3.50579e-168
2.88693e-169
-1.60373e-168
1.18907e-169
-6.85598e-169
4.57236e-170
-2.73927e-169
1.64096e-170
-1.02262e-169
5.48182e-171
-3.55656e-170
1.69619e-171
-1.14601e-170
4.83384e-172
-3.39999e-171
1.26247e-172
-9.23743e-172
3.01031e-173
-2.28887e-172
6.53486e-174
-5.15617e-173
1.28871e-174
-1.05333e-173
2.3048e-175
-1.94711e-174
3.73344e-176
-3.25113e-175
5.47288e-177
-4.89668e-176
7.25732e-178
-6.64658e-177
8.70585e-179
-8.12697e-178
9.45199e-180
-8.95129e-179
9.29567e-181
-8.88444e-180
8.29129e-182
-7.95217e-181
6.72347e-183
-6.43123e-182
4.98801e-184
-4.72793e-183
3.4334e-185
-3.20482e-184
2.24261e-186
-2.0498e-185
1.42484e-187
-1.2682e-186
8.95897e-189
-7.71233e-188
5.60321e-190
-4.62238e-189
3.47291e-191
-2.7129e-190
2.11911e-192
-1.54305e-191
1.26597e-193
-8.42724e-193
7.37584e-195
-4.37162e-194
4.18015e-196
-2.12488e-195
2.3002e-197
-9.45941e-197
1.22718e-198
-3.68363e-198
6.34032e-200
-1.09477e-199
3.16888e-201
-8.63631e-202
1.52879e-202
6.26707e-205
7.08426e-204
6.59365e-206
3.14678e-205
4.65861e-207
1.33757e-206
2.75776e-208
5.43061e-208
1.45416e-209
2.10188e-209
7.00347e-211
7.73867e-211
3.11801e-212
2.70406e-212
1.29106e-213
8.94471e-214
4.98658e-215
2.79327e-215
1.79833e-216
8.20992e-217
6.05386e-218
2.2635e-218
1.90009e-219
5.83188e-220
5.54924e-221