/*--------------------------------*- C++ -*----------------------------------*\
| =========                 |                                                 |
| \\      /  F ield         | OpenFOAM: The Open Source CFD Toolbox           |
|  \\    /   O peration     | Version:  2412                                  |
|   \\  /    A nd           | Website:  www.openfoam.com                      |
|    \\/     M anipulation  |                                                 |
\*---------------------------------------------------------------------------*/
FoamFile
{
    version     2.0;
    format      ascii;
    arch        "LSB;label=32;scalar=64";
    class       volScalarField;
    location    "1.6";
    object      p;
}
// * * * * * * * * * * * * * * * * * * * * * * * * * * * * * * * * * * * * * //

dimensions      [1 -1 -2 0 0 0 0];

internalField   nonuniform List<scalar> 
40000
(
0
0.000195108
0.000483588
0.000919874
0.00150473
0.00224266
0.00313583
0.00418299
0.00538288
0.00673564
0.00824164
0.00990038
0.0117105
0.0136703
0.0157781
0.0180326
0.0204321
0.0229746
0.025658
0.0284799
0.0314379
0.0345294
0.0377516
0.0411018
0.0445769
0.0481738
0.0518893
0.05572
0.0596617
0.0637107
0.0678634
0.0721158
0.0764637
0.0809027
0.0854283
0.0900357
0.0947204
0.0994775
0.104302
0.109189
0.114133
0.119128
0.124171
0.129254
0.134373
0.139522
0.144696
0.149889
0.155095
0.160308
0.165524
0.170736
0.175938
0.181125
0.186292
0.191432
0.196541
0.201612
0.206641
0.211622
0.216549
0.221419
0.226225
0.230963
0.235629
0.240217
0.244723
0.249143
0.253472
0.257707
0.261843
0.265877
0.269805
0.273624
0.277331
0.280921
0.284393
0.287744
0.290971
0.294072
0.297044
0.299886
0.302594
0.305169
0.307607
0.309907
0.312068
0.314089
0.315967
0.317703
0.319295
0.320742
0.322044
0.323199
0.324207
0.325069
0.325782
0.326348
0.326766
0.327036
0.327158
0.327132
0.326959
0.326639
0.326171
0.325557
0.324798
0.323894
0.322845
0.321653
0.320318
0.318842
0.317226
0.31547
0.313577
0.311548
0.309383
0.307086
0.304658
0.302101
0.299417
0.296608
0.293677
0.290626
0.287459
0.284178
0.280785
0.277285
0.273681
0.269976
0.266173
0.262276
0.25829
0.254217
0.250063
0.245831
0.241526
0.237153
0.232716
0.228219
0.223668
0.219068
0.214423
0.209739
0.205021
0.200273
0.195502
0.190713
0.18591
0.181099
0.176285
0.171474
0.166671
0.161881
0.157109
0.152362
0.147644
0.142959
0.138313
0.133712
0.129158
0.124659
0.120218
0.115839
0.111528
0.107289
0.103126
0.0990432
0.0950445
0.091134
0.0873154
0.0835926
0.0799692
0.0764484
0.0730337
0.0697282
0.0665346
0.0634559
0.0604952
0.0576551
0.0549379
0.052346
0.0498815
0.0475468
0.0453436
0.0432738
0.041339
0.0395408
0.0378807
0.03636
0.0349799
0.0337414
0.0326456
0.0316931
0.030884
0.0302184
0.0296962
0.029319
0.029094
0.0290291
-3.92393
-3.92384
-3.92359
-3.92316
-3.92259
-3.92185
-3.92096
-3.91992
-3.91872
-3.91736
-3.91586
-3.9142
-3.91239
-3.91043
-3.90832
-3.90606
-3.90366
-3.90112
-3.89843
-3.89561
-3.89265
-3.88956
-3.88633
-3.88298
-3.8795
-3.87591
-3.87219
-3.86836
-3.86441
-3.86036
-3.8562
-3.85195
-3.8476
-3.84316
-3.83863
-3.83402
-3.82933
-3.82457
-3.81974
-3.81485
-3.8099
-3.80491
-3.79986
-3.79477
-3.78965
-3.7845
-3.77932
-3.77412
-3.76891
-3.7637
-3.75848
-3.75326
-3.74805
-3.74286
-3.73769
-3.73255
-3.72744
-3.72236
-3.71733
-3.71235
-3.70741
-3.70254
-3.69773
-3.69299
-3.68832
-3.68373
-3.67922
-3.6748
-3.67047
-3.66623
-3.66209
-3.65805
-3.65412
-3.6503
-3.64659
-3.643
-3.63953
-3.63618
-3.63295
-3.62984
-3.62687
-3.62403
-3.62132
-3.61874
-3.6163
-3.614
-3.61184
-3.60982
-3.60794
-3.6062
-3.60461
-3.60316
-3.60186
-3.60071
-3.5997
-3.59884
-3.59812
-3.59756
-3.59714
-3.59687
-3.59675
-3.59677
-3.59695
-3.59727
-3.59773
-3.59835
-3.59911
-3.60001
-3.60106
-3.60226
-3.60359
-3.60507
-3.60668
-3.60844
-3.61034
-3.61237
-3.61453
-3.61683
-3.61926
-3.62182
-3.6245
-3.62731
-3.63025
-3.6333
-3.63647
-3.63975
-3.64315
-3.64665
-3.65025
-3.65396
-3.65777
-3.66167
-3.66566
-3.66973
-3.67389
-3.67812
-3.68243
-3.68681
-3.69125
-3.69575
-3.7003
-3.70491
-3.70955
-3.71424
-3.71896
-3.72371
-3.72849
-3.73328
-3.73809
-3.7429
-3.74772
-3.75253
-3.75734
-3.76213
-3.76691
-3.77166
-3.77638
-3.78107
-3.78572
-3.79032
-3.79488
-3.79938
-3.80383
-3.80821
-3.81252
-3.81676
-3.82093
-3.82501
-3.82902
-3.83293
-3.83675
-3.84047
-3.8441
-3.84762
-3.85104
-3.85435
-3.85754
-3.86062
-3.86358
-3.86643
-3.86914
-3.87174
-3.8742
-3.87654
-3.87874
-3.88081
-3.88275
-3.88455
-3.88621
-3.88773
-3.88911
-3.89035
-3.89145
-3.8924
-3.89321
-3.89387
-3.89439
-3.89476
-3.89497
-3.89504
-7.84816
-7.84806
-7.84782
-7.8474
-7.84683
-7.84609
-7.84521
-7.84416
-7.84296
-7.84161
-7.8401
-7.83844
-7.83662
-7.83466
-7.83255
-7.83029
-7.82789
-7.82534
-7.82265
-7.81983
-7.81686
-7.81377
-7.81054
-7.80718
-7.8037
-7.80009
-7.79637
-7.79253
-7.78858
-7.78453
-7.78036
-7.7761
-7.77174
-7.7673
-7.76276
-7.75814
-7.75345
-7.74868
-7.74384
-7.73894
-7.73399
-7.72898
-7.72393
-7.71883
-7.7137
-7.70854
-7.70335
-7.69814
-7.69293
-7.6877
-7.68247
-7.67725
-7.67203
-7.66683
-7.66165
-7.6565
-7.65138
-7.6463
-7.64126
-7.63626
-7.63132
-7.62644
-7.62163
-7.61688
-7.6122
-7.6076
-7.60309
-7.59866
-7.59432
-7.59008
-7.58593
-7.58189
-7.57795
-7.57413
-7.57041
-7.56682
-7.56334
-7.55998
-7.55675
-7.55364
-7.55067
-7.54782
-7.54511
-7.54253
-7.54009
-7.53778
-7.53562
-7.5336
-7.53172
-7.52998
-7.52839
-7.52694
-7.52563
-7.52448
-7.52347
-7.52261
-7.52189
-7.52133
-7.52091
-7.52064
-7.52052
-7.52054
-7.52072
-7.52104
-7.52151
-7.52212
-7.52288
-7.52379
-7.52484
-7.52603
-7.52737
-7.52885
-7.53047
-7.53223
-7.53412
-7.53616
-7.53832
-7.54063
-7.54306
-7.54562
-7.54831
-7.55112
-7.55406
-7.55712
-7.56029
-7.56358
-7.56698
-7.57049
-7.5741
-7.57781
-7.58162
-7.58553
-7.58952
-7.59361
-7.59777
-7.60201
-7.60633
-7.61071
-7.61516
-7.61966
-7.62423
-7.62884
-7.63349
-7.63819
-7.64292
-7.64768
-7.65246
-7.65726
-7.66208
-7.6669
-7.67173
-7.67655
-7.68136
-7.68617
-7.69095
-7.69571
-7.70044
-7.70513
-7.70979
-7.7144
-7.71897
-7.72348
-7.72793
-7.73232
-7.73664
-7.74088
-7.74506
-7.74915
-7.75316
-7.75707
-7.7609
-7.76463
-7.76826
-7.77179
-7.77521
-7.77852
-7.78172
-7.78481
-7.78777
-7.79062
-7.79334
-7.79594
-7.7984
-7.80074
-7.80295
-7.80502
-7.80696
-7.80876
-7.81043
-7.81195
-7.81333
-7.81457
-7.81567
-7.81662
-7.81743
-7.81809
-7.81861
-7.81898
-7.81919
-7.81926
-11.7726
-11.7725
-11.7722
-11.7718
-11.7712
-11.7705
-11.7696
-11.7686
-11.7674
-11.766
-11.7645
-11.7628
-11.761
-11.759
-11.7569
-11.7547
-11.7523
-11.7497
-11.747
-11.7442
-11.7412
-11.7381
-11.7349
-11.7315
-11.728
-11.7244
-11.7207
-11.7168
-11.7129
-11.7088
-11.7046
-11.7004
-11.696
-11.6915
-11.687
-11.6823
-11.6776
-11.6729
-11.668
-11.6631
-11.6581
-11.6531
-11.648
-11.6429
-11.6378
-11.6326
-11.6274
-11.6222
-11.6169
-11.6117
-11.6065
-11.6012
-11.596
-11.5908
-11.5856
-11.5804
-11.5753
-11.5702
-11.5651
-11.5601
-11.5552
-11.5503
-11.5454
-11.5407
-11.536
-11.5314
-11.5269
-11.5224
-11.5181
-11.5138
-11.5097
-11.5056
-11.5017
-11.4978
-11.4941
-11.4905
-11.487
-11.4837
-11.4804
-11.4773
-11.4743
-11.4715
-11.4688
-11.4662
-11.4637
-11.4614
-11.4593
-11.4572
-11.4553
-11.4536
-11.452
-11.4506
-11.4493
-11.4481
-11.4471
-11.4462
-11.4455
-11.4449
-11.4445
-11.4443
-11.4441
-11.4442
-11.4443
-11.4447
-11.4451
-11.4457
-11.4465
-11.4474
-11.4485
-11.4497
-11.451
-11.4525
-11.4541
-11.4559
-11.4578
-11.4598
-11.462
-11.4643
-11.4667
-11.4693
-11.472
-11.4748
-11.4778
-11.4808
-11.484
-11.4873
-11.4907
-11.4942
-11.4978
-11.5016
-11.5054
-11.5093
-11.5133
-11.5174
-11.5216
-11.5258
-11.5302
-11.5345
-11.539
-11.5435
-11.5481
-11.5527
-11.5574
-11.5621
-11.5668
-11.5716
-11.5764
-11.5812
-11.5861
-11.5909
-11.5957
-11.6006
-11.6054
-11.6102
-11.615
-11.6198
-11.6245
-11.6292
-11.6339
-11.6385
-11.6431
-11.6476
-11.6521
-11.6565
-11.6608
-11.6651
-11.6693
-11.6734
-11.6774
-11.6813
-11.6851
-11.6889
-11.6925
-11.6961
-11.6995
-11.7028
-11.706
-11.7091
-11.7121
-11.7149
-11.7177
-11.7203
-11.7227
-11.7251
-11.7273
-11.7294
-11.7313
-11.7331
-11.7348
-11.7363
-11.7377
-11.7389
-11.74
-11.741
-11.7418
-11.7425
-11.743
-11.7433
-11.7436
-11.7436
-15.6971
-15.697
-15.6968
-15.6964
-15.6958
-15.6951
-15.6942
-15.6931
-15.6919
-15.6906
-15.689
-15.6874
-15.6856
-15.6836
-15.6815
-15.6792
-15.6768
-15.6742
-15.6715
-15.6687
-15.6657
-15.6626
-15.6593
-15.656
-15.6525
-15.6488
-15.6451
-15.6412
-15.6373
-15.6332
-15.629
-15.6247
-15.6203
-15.6158
-15.6113
-15.6066
-15.6019
-15.5971
-15.5922
-15.5873
-15.5823
-15.5773
-15.5722
-15.5671
-15.5619
-15.5567
-15.5515
-15.5462
-15.541
-15.5357
-15.5304
-15.5252
-15.5199
-15.5147
-15.5095
-15.5043
-15.4991
-15.494
-15.489
-15.4839
-15.479
-15.4741
-15.4692
-15.4644
-15.4597
-15.4551
-15.4506
-15.4461
-15.4417
-15.4375
-15.4333
-15.4292
-15.4253
-15.4214
-15.4177
-15.4141
-15.4106
-15.4072
-15.404
-15.4008
-15.3979
-15.395
-15.3923
-15.3897
-15.3872
-15.3849
-15.3828
-15.3807
-15.3788
-15.3771
-15.3755
-15.374
-15.3727
-15.3716
-15.3706
-15.3697
-15.369
-15.3684
-15.368
-15.3677
-15.3676
-15.3676
-15.3678
-15.3681
-15.3686
-15.3692
-15.37
-15.3709
-15.372
-15.3732
-15.3745
-15.376
-15.3776
-15.3794
-15.3813
-15.3833
-15.3855
-15.3878
-15.3903
-15.3928
-15.3955
-15.3984
-15.4013
-15.4044
-15.4076
-15.4109
-15.4143
-15.4178
-15.4215
-15.4252
-15.429
-15.433
-15.437
-15.4411
-15.4453
-15.4496
-15.4539
-15.4583
-15.4628
-15.4673
-15.4719
-15.4766
-15.4813
-15.486
-15.4907
-15.4955
-15.5004
-15.5052
-15.51
-15.5149
-15.5197
-15.5246
-15.5294
-15.5343
-15.5391
-15.5439
-15.5487
-15.5534
-15.5581
-15.5627
-15.5673
-15.5718
-15.5763
-15.5807
-15.5851
-15.5894
-15.5936
-15.5977
-15.6017
-15.6056
-15.6095
-15.6132
-15.6169
-15.6204
-15.6239
-15.6272
-15.6304
-15.6335
-15.6365
-15.6394
-15.6421
-15.6447
-15.6472
-15.6496
-15.6518
-15.6539
-15.6558
-15.6576
-15.6593
-15.6608
-15.6622
-15.6634
-15.6646
-15.6655
-15.6663
-15.667
-15.6675
-15.6679
-15.6681
-15.6682
-19.6218
-19.6217
-19.6215
-19.6211
-19.6205
-19.6198
-19.6189
-19.6178
-19.6166
-19.6153
-19.6137
-19.6121
-19.6102
-19.6083
-19.6061
-19.6039
-19.6014
-19.5989
-19.5962
-19.5933
-19.5903
-19.5872
-19.5839
-19.5805
-19.577
-19.5734
-19.5696
-19.5657
-19.5617
-19.5576
-19.5534
-19.5491
-19.5447
-19.5402
-19.5356
-19.531
-19.5262
-19.5214
-19.5165
-19.5116
-19.5066
-19.5015
-19.4964
-19.4912
-19.486
-19.4808
-19.4756
-19.4703
-19.465
-19.4597
-19.4544
-19.4491
-19.4439
-19.4386
-19.4334
-19.4282
-19.423
-19.4178
-19.4127
-19.4077
-19.4027
-19.3978
-19.3929
-19.3881
-19.3834
-19.3787
-19.3742
-19.3697
-19.3653
-19.361
-19.3568
-19.3527
-19.3488
-19.3449
-19.3412
-19.3375
-19.334
-19.3306
-19.3274
-19.3243
-19.3213
-19.3184
-19.3157
-19.3131
-19.3106
-19.3083
-19.3061
-19.3041
-19.3022
-19.3004
-19.2988
-19.2974
-19.2961
-19.2949
-19.2939
-19.293
-19.2923
-19.2917
-19.2913
-19.2911
-19.2909
-19.291
-19.2911
-19.2915
-19.2919
-19.2926
-19.2933
-19.2942
-19.2953
-19.2965
-19.2979
-19.2993
-19.301
-19.3028
-19.3047
-19.3067
-19.3089
-19.3112
-19.3137
-19.3163
-19.319
-19.3218
-19.3248
-19.3279
-19.3311
-19.3344
-19.3378
-19.3414
-19.345
-19.3488
-19.3526
-19.3566
-19.3606
-19.3647
-19.3689
-19.3732
-19.3776
-19.382
-19.3865
-19.3911
-19.3957
-19.4004
-19.4051
-19.4098
-19.4146
-19.4194
-19.4243
-19.4291
-19.434
-19.4389
-19.4438
-19.4486
-19.4535
-19.4584
-19.4632
-19.468
-19.4728
-19.4776
-19.4823
-19.4869
-19.4915
-19.4961
-19.5006
-19.505
-19.5094
-19.5137
-19.5179
-19.5221
-19.5261
-19.5301
-19.5339
-19.5377
-19.5414
-19.5449
-19.5484
-19.5517
-19.555
-19.5581
-19.5611
-19.5639
-19.5667
-19.5693
-19.5718
-19.5742
-19.5764
-19.5785
-19.5804
-19.5822
-19.5839
-19.5855
-19.5869
-19.5881
-19.5892
-19.5902
-19.591
-19.5917
-19.5922
-19.5925
-19.5928
-19.5928
-23.5467
-23.5466
-23.5464
-23.546
-23.5454
-23.5447
-23.5438
-23.5427
-23.5415
-23.5401
-23.5386
-23.5369
-23.5351
-23.5331
-23.531
-23.5287
-23.5262
-23.5237
-23.5209
-23.5181
-23.5151
-23.5119
-23.5086
-23.5052
-23.5017
-23.498
-23.4943
-23.4904
-23.4864
-23.4822
-23.478
-23.4737
-23.4692
-23.4647
-23.4601
-23.4554
-23.4506
-23.4458
-23.4409
-23.4359
-23.4308
-23.4258
-23.4206
-23.4154
-23.4102
-23.4049
-23.3997
-23.3944
-23.3891
-23.3837
-23.3784
-23.3731
-23.3678
-23.3625
-23.3572
-23.352
-23.3468
-23.3416
-23.3365
-23.3314
-23.3264
-23.3214
-23.3165
-23.3117
-23.3069
-23.3023
-23.2977
-23.2932
-23.2888
-23.2845
-23.2803
-23.2762
-23.2722
-23.2683
-23.2645
-23.2609
-23.2574
-23.254
-23.2507
-23.2475
-23.2445
-23.2416
-23.2389
-23.2363
-23.2338
-23.2315
-23.2293
-23.2273
-23.2254
-23.2236
-23.222
-23.2206
-23.2193
-23.2181
-23.2171
-23.2162
-23.2155
-23.2149
-23.2145
-23.2142
-23.2141
-23.2141
-23.2143
-23.2146
-23.2151
-23.2157
-23.2165
-23.2174
-23.2185
-23.2197
-23.2211
-23.2226
-23.2242
-23.226
-23.2279
-23.23
-23.2322
-23.2345
-23.237
-23.2396
-23.2423
-23.2451
-23.2481
-23.2512
-23.2544
-23.2578
-23.2612
-23.2648
-23.2684
-23.2722
-23.2761
-23.2801
-23.2841
-23.2883
-23.2925
-23.2968
-23.3012
-23.3057
-23.3102
-23.3148
-23.3194
-23.3241
-23.3289
-23.3336
-23.3384
-23.3433
-23.3482
-23.3531
-23.358
-23.3629
-23.3678
-23.3727
-23.3776
-23.3825
-23.3873
-23.3922
-23.397
-23.4018
-23.4065
-23.4112
-23.4159
-23.4204
-23.425
-23.4294
-23.4338
-23.4381
-23.4424
-23.4465
-23.4506
-23.4546
-23.4585
-23.4623
-23.466
-23.4695
-23.473
-23.4764
-23.4796
-23.4827
-23.4857
-23.4886
-23.4914
-23.494
-23.4965
-23.4989
-23.5011
-23.5032
-23.5052
-23.507
-23.5087
-23.5103
-23.5116
-23.5129
-23.514
-23.515
-23.5158
-23.5165
-23.517
-23.5174
-23.5176
-23.5177
-27.4718
-27.4717
-27.4714
-27.471
-27.4704
-27.4697
-27.4688
-27.4677
-27.4665
-27.4651
-27.4636
-27.4619
-27.4601
-27.4581
-27.4559
-27.4536
-27.4512
-27.4486
-27.4459
-27.443
-27.4399
-27.4368
-27.4335
-27.4301
-27.4265
-27.4228
-27.419
-27.4151
-27.4111
-27.4069
-27.4027
-27.3983
-27.3939
-27.3893
-27.3847
-27.3799
-27.3751
-27.3702
-27.3653
-27.3603
-27.3552
-27.3501
-27.3449
-27.3397
-27.3344
-27.3291
-27.3238
-27.3185
-27.3131
-27.3077
-27.3024
-27.297
-27.2917
-27.2864
-27.281
-27.2758
-27.2705
-27.2653
-27.2601
-27.255
-27.25
-27.245
-27.2401
-27.2352
-27.2304
-27.2257
-27.2211
-27.2166
-27.2121
-27.2078
-27.2036
-27.1995
-27.1954
-27.1915
-27.1878
-27.1841
-27.1805
-27.1771
-27.1738
-27.1707
-27.1677
-27.1648
-27.162
-27.1594
-27.1569
-27.1546
-27.1524
-27.1503
-27.1484
-27.1467
-27.1451
-27.1436
-27.1423
-27.1411
-27.1401
-27.1392
-27.1385
-27.138
-27.1375
-27.1373
-27.1371
-27.1372
-27.1374
-27.1377
-27.1382
-27.1388
-27.1396
-27.1405
-27.1416
-27.1428
-27.1441
-27.1456
-27.1473
-27.1491
-27.151
-27.1531
-27.1553
-27.1576
-27.1601
-27.1627
-27.1655
-27.1683
-27.1713
-27.1744
-27.1777
-27.181
-27.1845
-27.1881
-27.1918
-27.1956
-27.1995
-27.2035
-27.2076
-27.2117
-27.216
-27.2203
-27.2248
-27.2292
-27.2338
-27.2384
-27.2431
-27.2478
-27.2526
-27.2574
-27.2623
-27.2671
-27.272
-27.277
-27.2819
-27.2868
-27.2918
-27.2967
-27.3017
-27.3066
-27.3115
-27.3164
-27.3212
-27.326
-27.3308
-27.3355
-27.3402
-27.3448
-27.3494
-27.3539
-27.3583
-27.3626
-27.3669
-27.3711
-27.3752
-27.3792
-27.3831
-27.3869
-27.3906
-27.3942
-27.3977
-27.4011
-27.4044
-27.4075
-27.4106
-27.4135
-27.4162
-27.4189
-27.4214
-27.4238
-27.426
-27.4281
-27.4301
-27.4319
-27.4336
-27.4352
-27.4366
-27.4378
-27.439
-27.4399
-27.4408
-27.4414
-27.442
-27.4423
-27.4426
-27.4426
-31.397
-31.3969
-31.3966
-31.3962
-31.3956
-31.3949
-31.394
-31.3929
-31.3917
-31.3903
-31.3888
-31.3871
-31.3852
-31.3832
-31.3811
-31.3787
-31.3763
-31.3737
-31.3709
-31.368
-31.365
-31.3618
-31.3585
-31.355
-31.3515
-31.3477
-31.3439
-31.34
-31.3359
-31.3317
-31.3274
-31.323
-31.3186
-31.314
-31.3093
-31.3045
-31.2997
-31.2948
-31.2898
-31.2847
-31.2796
-31.2744
-31.2692
-31.2639
-31.2586
-31.2533
-31.2479
-31.2426
-31.2372
-31.2318
-31.2264
-31.221
-31.2156
-31.2102
-31.2048
-31.1995
-31.1942
-31.189
-31.1838
-31.1786
-31.1735
-31.1685
-31.1635
-31.1586
-31.1538
-31.1491
-31.1444
-31.1399
-31.1354
-31.131
-31.1268
-31.1226
-31.1186
-31.1147
-31.1109
-31.1072
-31.1036
-31.1002
-31.0969
-31.0937
-31.0907
-31.0878
-31.085
-31.0824
-31.0799
-31.0775
-31.0753
-31.0733
-31.0714
-31.0696
-31.068
-31.0665
-31.0652
-31.064
-31.063
-31.0621
-31.0614
-31.0608
-31.0604
-31.0601
-31.06
-31.0601
-31.0602
-31.0606
-31.0611
-31.0617
-31.0625
-31.0634
-31.0645
-31.0657
-31.0671
-31.0686
-31.0702
-31.072
-31.074
-31.0761
-31.0783
-31.0806
-31.0831
-31.0857
-31.0885
-31.0914
-31.0944
-31.0975
-31.1008
-31.1042
-31.1077
-31.1113
-31.115
-31.1188
-31.1228
-31.1268
-31.1309
-31.1351
-31.1394
-31.1438
-31.1482
-31.1528
-31.1573
-31.162
-31.1667
-31.1715
-31.1763
-31.1811
-31.186
-31.191
-31.1959
-31.2009
-31.2058
-31.2108
-31.2158
-31.2208
-31.2258
-31.2307
-31.2357
-31.2406
-31.2455
-31.2503
-31.2552
-31.2599
-31.2646
-31.2693
-31.2739
-31.2784
-31.2829
-31.2872
-31.2915
-31.2958
-31.2999
-31.3039
-31.3079
-31.3117
-31.3154
-31.3191
-31.3226
-31.326
-31.3293
-31.3324
-31.3355
-31.3384
-31.3412
-31.3439
-31.3464
-31.3488
-31.351
-31.3532
-31.3552
-31.357
-31.3587
-31.3603
-31.3617
-31.3629
-31.3641
-31.365
-31.3659
-31.3665
-31.3671
-31.3674
-31.3677
-31.3678
-35.3223
-35.3223
-35.322
-35.3216
-35.321
-35.3203
-35.3194
-35.3183
-35.3171
-35.3157
-35.3141
-35.3124
-35.3105
-35.3085
-35.3063
-35.304
-35.3015
-35.2989
-35.2961
-35.2932
-35.2901
-35.2869
-35.2836
-35.2801
-35.2765
-35.2728
-35.2689
-35.2649
-35.2608
-35.2566
-35.2523
-35.2479
-35.2434
-35.2387
-35.234
-35.2292
-35.2243
-35.2194
-35.2143
-35.2092
-35.2041
-35.1988
-35.1936
-35.1882
-35.1829
-35.1775
-35.1721
-35.1667
-35.1612
-35.1558
-35.1503
-35.1449
-35.1394
-35.134
-35.1286
-35.1232
-35.1179
-35.1126
-35.1074
-35.1022
-35.097
-35.0919
-35.0869
-35.082
-35.0771
-35.0724
-35.0677
-35.0631
-35.0586
-35.0542
-35.0499
-35.0457
-35.0416
-35.0377
-35.0339
-35.0301
-35.0266
-35.0231
-35.0198
-35.0166
-35.0135
-35.0106
-35.0078
-35.0052
-35.0027
-35.0003
-34.9981
-34.996
-34.9941
-34.9924
-34.9907
-34.9893
-34.9879
-34.9868
-34.9857
-34.9849
-34.9841
-34.9836
-34.9832
-34.9829
-34.9828
-34.9828
-34.983
-34.9833
-34.9838
-34.9844
-34.9852
-34.9862
-34.9872
-34.9885
-34.9898
-34.9914
-34.993
-34.9948
-34.9968
-34.9989
-35.0011
-35.0035
-35.006
-35.0087
-35.0114
-35.0143
-35.0174
-35.0205
-35.0238
-35.0272
-35.0307
-35.0344
-35.0381
-35.042
-35.0459
-35.05
-35.0541
-35.0584
-35.0627
-35.0671
-35.0716
-35.0762
-35.0808
-35.0855
-35.0903
-35.0951
-35.1
-35.1049
-35.1098
-35.1148
-35.1197
-35.1248
-35.1298
-35.1348
-35.1398
-35.1449
-35.1499
-35.1549
-35.1599
-35.1649
-35.1698
-35.1747
-35.1795
-35.1843
-35.1891
-35.1938
-35.1984
-35.203
-35.2075
-35.2119
-35.2162
-35.2205
-35.2247
-35.2287
-35.2327
-35.2366
-35.2403
-35.244
-35.2475
-35.251
-35.2543
-35.2575
-35.2605
-35.2635
-35.2663
-35.269
-35.2715
-35.2739
-35.2762
-35.2783
-35.2803
-35.2822
-35.2839
-35.2855
-35.2869
-35.2882
-35.2893
-35.2903
-35.2911
-35.2918
-35.2923
-35.2927
-35.2929
-35.293
-39.2479
-39.2478
-39.2475
-39.2471
-39.2465
-39.2458
-39.2449
-39.2438
-39.2426
-39.2412
-39.2396
-39.2379
-39.236
-39.234
-39.2318
-39.2294
-39.2269
-39.2243
-39.2215
-39.2185
-39.2154
-39.2122
-39.2088
-39.2053
-39.2017
-39.1979
-39.1941
-39.19
-39.1859
-39.1817
-39.1773
-39.1728
-39.1682
-39.1636
-39.1588
-39.154
-39.149
-39.144
-39.1389
-39.1338
-39.1286
-39.1233
-39.118
-39.1126
-39.1072
-39.1018
-39.0963
-39.0908
-39.0853
-39.0798
-39.0743
-39.0688
-39.0633
-39.0578
-39.0524
-39.0469
-39.0415
-39.0362
-39.0309
-39.0256
-39.0204
-39.0153
-39.0103
-39.0053
-39.0004
-38.9955
-38.9908
-38.9862
-38.9817
-38.9772
-38.9729
-38.9687
-38.9646
-38.9606
-38.9567
-38.953
-38.9494
-38.9459
-38.9426
-38.9393
-38.9363
-38.9333
-38.9305
-38.9279
-38.9253
-38.923
-38.9208
-38.9187
-38.9168
-38.915
-38.9133
-38.9119
-38.9105
-38.9094
-38.9083
-38.9075
-38.9067
-38.9062
-38.9057
-38.9055
-38.9054
-38.9054
-38.9056
-38.9059
-38.9064
-38.907
-38.9078
-38.9088
-38.9099
-38.9111
-38.9125
-38.914
-38.9157
-38.9175
-38.9195
-38.9216
-38.9238
-38.9262
-38.9288
-38.9314
-38.9342
-38.9372
-38.9402
-38.9434
-38.9467
-38.9501
-38.9537
-38.9574
-38.9611
-38.965
-38.969
-38.9731
-38.9773
-38.9816
-38.986
-38.9904
-38.995
-38.9996
-39.0043
-39.009
-39.0138
-39.0187
-39.0236
-39.0285
-39.0335
-39.0385
-39.0436
-39.0486
-39.0537
-39.0588
-39.0639
-39.069
-39.074
-39.0791
-39.0841
-39.0892
-39.0941
-39.0991
-39.104
-39.1088
-39.1136
-39.1184
-39.1231
-39.1277
-39.1322
-39.1367
-39.141
-39.1453
-39.1495
-39.1536
-39.1576
-39.1615
-39.1653
-39.169
-39.1726
-39.1761
-39.1794
-39.1826
-39.1857
-39.1887
-39.1915
-39.1942
-39.1968
-39.1992
-39.2015
-39.2037
-39.2057
-39.2075
-39.2093
-39.2109
-39.2123
-39.2136
-39.2147
-39.2157
-39.2165
-39.2172
-39.2177
-39.2181
-39.2184
-39.2184
-43.1736
-43.1735
-43.1732
-43.1728
-43.1722
-43.1715
-43.1706
-43.1695
-43.1682
-43.1668
-43.1652
-43.1635
-43.1616
-43.1596
-43.1574
-43.155
-43.1525
-43.1498
-43.147
-43.144
-43.1409
-43.1376
-43.1342
-43.1307
-43.127
-43.1232
-43.1193
-43.1152
-43.1111
-43.1068
-43.1024
-43.0979
-43.0932
-43.0885
-43.0837
-43.0788
-43.0738
-43.0688
-43.0636
-43.0584
-43.0531
-43.0478
-43.0424
-43.037
-43.0315
-43.026
-43.0205
-43.015
-43.0094
-43.0038
-42.9982
-42.9927
-42.9871
-42.9816
-42.9761
-42.9706
-42.9651
-42.9597
-42.9544
-42.949
-42.9438
-42.9386
-42.9335
-42.9285
-42.9235
-42.9187
-42.9139
-42.9092
-42.9046
-42.9001
-42.8958
-42.8915
-42.8874
-42.8834
-42.8795
-42.8757
-42.8721
-42.8686
-42.8652
-42.8619
-42.8589
-42.8559
-42.8531
-42.8504
-42.8479
-42.8455
-42.8433
-42.8412
-42.8392
-42.8374
-42.8358
-42.8343
-42.833
-42.8318
-42.8308
-42.8299
-42.8292
-42.8286
-42.8282
-42.8279
-42.8278
-42.8278
-42.828
-42.8284
-42.8289
-42.8295
-42.8303
-42.8312
-42.8323
-42.8336
-42.835
-42.8365
-42.8382
-42.84
-42.842
-42.8442
-42.8464
-42.8488
-42.8514
-42.8541
-42.8569
-42.8598
-42.8629
-42.8661
-42.8695
-42.8729
-42.8765
-42.8802
-42.884
-42.888
-42.892
-42.8961
-42.9004
-42.9047
-42.9091
-42.9136
-42.9182
-42.9229
-42.9276
-42.9324
-42.9373
-42.9422
-42.9471
-42.9521
-42.9572
-42.9623
-42.9674
-42.9725
-42.9776
-42.9828
-42.9879
-42.9931
-42.9982
-43.0033
-43.0084
-43.0135
-43.0185
-43.0235
-43.0285
-43.0334
-43.0382
-43.043
-43.0477
-43.0524
-43.057
-43.0615
-43.0659
-43.0702
-43.0745
-43.0786
-43.0827
-43.0866
-43.0905
-43.0942
-43.0978
-43.1013
-43.1046
-43.1079
-43.111
-43.114
-43.1169
-43.1196
-43.1222
-43.1246
-43.1269
-43.1291
-43.1311
-43.133
-43.1348
-43.1364
-43.1378
-43.1391
-43.1403
-43.1412
-43.1421
-43.1428
-43.1433
-43.1437
-43.1439
-43.144
-47.0995
-47.0994
-47.0991
-47.0987
-47.0981
-47.0973
-47.0964
-47.0953
-47.0941
-47.0926
-47.0911
-47.0893
-47.0874
-47.0853
-47.0831
-47.0807
-47.0782
-47.0755
-47.0726
-47.0696
-47.0665
-47.0632
-47.0598
-47.0562
-47.0525
-47.0486
-47.0447
-47.0406
-47.0364
-47.032
-47.0276
-47.023
-47.0183
-47.0136
-47.0087
-47.0037
-46.9987
-46.9936
-46.9884
-46.9831
-46.9778
-46.9724
-46.9669
-46.9614
-46.9559
-46.9503
-46.9447
-46.9391
-46.9335
-46.9278
-46.9222
-46.9166
-46.9109
-46.9053
-46.8997
-46.8942
-46.8887
-46.8832
-46.8778
-46.8724
-46.8671
-46.8619
-46.8567
-46.8516
-46.8466
-46.8417
-46.8368
-46.8321
-46.8275
-46.823
-46.8186
-46.8143
-46.8101
-46.806
-46.8021
-46.7983
-46.7946
-46.7911
-46.7877
-46.7844
-46.7813
-46.7783
-46.7755
-46.7728
-46.7702
-46.7678
-46.7656
-46.7635
-46.7616
-46.7598
-46.7581
-46.7566
-46.7553
-46.7541
-46.7531
-46.7522
-46.7514
-46.7509
-46.7505
-46.7502
-46.7501
-46.7501
-46.7503
-46.7507
-46.7512
-46.7518
-46.7526
-46.7536
-46.7547
-46.7559
-46.7573
-46.7589
-46.7606
-46.7624
-46.7644
-46.7666
-46.7689
-46.7713
-46.7739
-46.7766
-46.7794
-46.7824
-46.7855
-46.7888
-46.7921
-46.7956
-46.7992
-46.803
-46.8068
-46.8108
-46.8149
-46.8191
-46.8233
-46.8277
-46.8322
-46.8368
-46.8414
-46.8461
-46.8509
-46.8558
-46.8607
-46.8656
-46.8707
-46.8757
-46.8808
-46.886
-46.8911
-46.8963
-46.9015
-46.9067
-46.9119
-46.9172
-46.9224
-46.9275
-46.9327
-46.9378
-46.9429
-46.948
-46.953
-46.958
-46.9629
-46.9677
-46.9725
-46.9772
-46.9819
-46.9864
-46.9909
-46.9953
-46.9995
-47.0037
-47.0078
-47.0118
-47.0157
-47.0194
-47.0231
-47.0266
-47.03
-47.0333
-47.0364
-47.0395
-47.0424
-47.0451
-47.0477
-47.0502
-47.0525
-47.0547
-47.0568
-47.0587
-47.0604
-47.062
-47.0635
-47.0648
-47.0659
-47.067
-47.0678
-47.0685
-47.069
-47.0694
-47.0697
-47.0697
-51.0255
-51.0254
-51.0252
-51.0247
-51.0241
-51.0234
-51.0224
-51.0213
-51.0201
-51.0186
-51.017
-51.0153
-51.0133
-51.0112
-51.009
-51.0066
-51.004
-51.0013
-50.9984
-50.9954
-50.9922
-50.9889
-50.9854
-50.9818
-50.9781
-50.9742
-50.9702
-50.966
-50.9618
-50.9574
-50.9529
-50.9483
-50.9435
-50.9387
-50.9338
-50.9288
-50.9236
-50.9185
-50.9132
-50.9078
-50.9024
-50.897
-50.8915
-50.8859
-50.8803
-50.8746
-50.869
-50.8633
-50.8576
-50.8519
-50.8461
-50.8404
-50.8347
-50.8291
-50.8234
-50.8178
-50.8122
-50.8066
-50.8011
-50.7957
-50.7903
-50.785
-50.7798
-50.7746
-50.7696
-50.7646
-50.7597
-50.7549
-50.7502
-50.7457
-50.7412
-50.7369
-50.7327
-50.7286
-50.7246
-50.7208
-50.7171
-50.7135
-50.7101
-50.7068
-50.7036
-50.7006
-50.6978
-50.695
-50.6925
-50.6901
-50.6878
-50.6857
-50.6837
-50.6819
-50.6803
-50.6788
-50.6774
-50.6762
-50.6752
-50.6743
-50.6736
-50.673
-50.6726
-50.6723
-50.6722
-50.6722
-50.6724
-50.6728
-50.6733
-50.674
-50.6748
-50.6757
-50.6768
-50.6781
-50.6795
-50.6811
-50.6828
-50.6847
-50.6867
-50.6889
-50.6912
-50.6936
-50.6962
-50.6989
-50.7018
-50.7048
-50.708
-50.7112
-50.7146
-50.7182
-50.7218
-50.7256
-50.7295
-50.7335
-50.7377
-50.7419
-50.7462
-50.7507
-50.7552
-50.7598
-50.7645
-50.7693
-50.7741
-50.779
-50.784
-50.7891
-50.7942
-50.7993
-50.8045
-50.8097
-50.8149
-50.8202
-50.8254
-50.8307
-50.836
-50.8413
-50.8465
-50.8518
-50.857
-50.8622
-50.8674
-50.8725
-50.8776
-50.8826
-50.8876
-50.8925
-50.8973
-50.9021
-50.9068
-50.9114
-50.9159
-50.9204
-50.9247
-50.9289
-50.9331
-50.9371
-50.941
-50.9448
-50.9485
-50.9521
-50.9555
-50.9588
-50.962
-50.9651
-50.968
-50.9708
-50.9734
-50.9759
-50.9783
-50.9805
-50.9825
-50.9845
-50.9862
-50.9878
-50.9893
-50.9906
-50.9918
-50.9928
-50.9937
-50.9944
-50.9949
-50.9953
-50.9955
-50.9956
-54.9517
-54.9516
-54.9514
-54.9509
-54.9503
-54.9496
-54.9486
-54.9475
-54.9462
-54.9448
-54.9432
-54.9414
-54.9394
-54.9373
-54.9351
-54.9326
-54.93
-54.9273
-54.9244
-54.9213
-54.9181
-54.9147
-54.9112
-54.9076
-54.9038
-54.8999
-54.8958
-54.8916
-54.8873
-54.8829
-54.8783
-54.8736
-54.8688
-54.8639
-54.8589
-54.8539
-54.8487
-54.8434
-54.8381
-54.8327
-54.8272
-54.8216
-54.8161
-54.8104
-54.8047
-54.799
-54.7932
-54.7875
-54.7817
-54.7759
-54.7701
-54.7643
-54.7585
-54.7528
-54.747
-54.7413
-54.7356
-54.73
-54.7244
-54.7189
-54.7135
-54.7081
-54.7028
-54.6976
-54.6925
-54.6874
-54.6825
-54.6776
-54.6729
-54.6683
-54.6638
-54.6594
-54.6551
-54.651
-54.647
-54.6431
-54.6393
-54.6357
-54.6323
-54.629
-54.6258
-54.6228
-54.6199
-54.6171
-54.6146
-54.6121
-54.6099
-54.6077
-54.6058
-54.6039
-54.6023
-54.6008
-54.5994
-54.5982
-54.5972
-54.5963
-54.5956
-54.595
-54.5946
-54.5943
-54.5942
-54.5942
-54.5944
-54.5948
-54.5953
-54.596
-54.5968
-54.5977
-54.5989
-54.6002
-54.6016
-54.6032
-54.6049
-54.6068
-54.6088
-54.611
-54.6133
-54.6158
-54.6184
-54.6212
-54.6241
-54.6271
-54.6303
-54.6336
-54.637
-54.6406
-54.6443
-54.6481
-54.6521
-54.6562
-54.6603
-54.6646
-54.669
-54.6735
-54.6781
-54.6828
-54.6875
-54.6924
-54.6973
-54.7023
-54.7073
-54.7124
-54.7176
-54.7228
-54.7281
-54.7333
-54.7386
-54.744
-54.7493
-54.7547
-54.76
-54.7654
-54.7707
-54.7761
-54.7814
-54.7866
-54.7919
-54.7971
-54.8022
-54.8073
-54.8124
-54.8173
-54.8222
-54.8271
-54.8318
-54.8365
-54.8411
-54.8456
-54.85
-54.8543
-54.8584
-54.8625
-54.8665
-54.8703
-54.8741
-54.8777
-54.8811
-54.8845
-54.8877
-54.8908
-54.8937
-54.8966
-54.8992
-54.9017
-54.9041
-54.9064
-54.9085
-54.9104
-54.9122
-54.9138
-54.9153
-54.9166
-54.9178
-54.9188
-54.9197
-54.9204
-54.921
-54.9213
-54.9216
-54.9217
-58.8781
-58.878
-58.8777
-58.8773
-58.8767
-58.8759
-58.875
-58.8738
-58.8726
-58.8711
-58.8695
-58.8677
-58.8657
-58.8636
-58.8613
-58.8588
-58.8562
-58.8534
-58.8505
-58.8474
-58.8441
-58.8407
-58.8372
-58.8335
-58.8297
-58.8257
-58.8216
-58.8173
-58.8129
-58.8084
-58.8038
-58.7991
-58.7942
-58.7893
-58.7842
-58.7791
-58.7738
-58.7685
-58.763
-58.7576
-58.752
-58.7464
-58.7407
-58.735
-58.7292
-58.7234
-58.7175
-58.7117
-58.7058
-58.6999
-58.694
-58.6881
-58.6823
-58.6764
-58.6706
-58.6648
-58.6591
-58.6533
-58.6477
-58.6421
-58.6366
-58.6311
-58.6257
-58.6204
-58.6152
-58.6101
-58.6051
-58.6002
-58.5954
-58.5907
-58.5862
-58.5817
-58.5774
-58.5732
-58.5692
-58.5653
-58.5615
-58.5579
-58.5544
-58.551
-58.5478
-58.5448
-58.5418
-58.5391
-58.5365
-58.534
-58.5318
-58.5296
-58.5276
-58.5258
-58.5241
-58.5226
-58.5213
-58.5201
-58.519
-58.5181
-58.5174
-58.5168
-58.5164
-58.5161
-58.516
-58.5161
-58.5163
-58.5166
-58.5171
-58.5178
-58.5186
-58.5196
-58.5208
-58.522
-58.5235
-58.5251
-58.5268
-58.5287
-58.5308
-58.533
-58.5353
-58.5378
-58.5405
-58.5432
-58.5462
-58.5493
-58.5525
-58.5558
-58.5593
-58.5629
-58.5667
-58.5705
-58.5745
-58.5787
-58.5829
-58.5872
-58.5917
-58.5962
-58.6009
-58.6056
-58.6105
-58.6154
-58.6204
-58.6254
-58.6306
-58.6358
-58.641
-58.6463
-58.6516
-58.657
-58.6624
-58.6678
-58.6732
-58.6786
-58.6841
-58.6895
-58.6949
-58.7004
-58.7057
-58.7111
-58.7164
-58.7217
-58.7269
-58.7321
-58.7372
-58.7422
-58.7472
-58.7521
-58.7569
-58.7617
-58.7663
-58.7709
-58.7753
-58.7797
-58.7839
-58.788
-58.7921
-58.796
-58.7997
-58.8034
-58.8069
-58.8103
-58.8135
-58.8167
-58.8196
-58.8225
-58.8252
-58.8277
-58.8301
-58.8324
-58.8345
-58.8365
-58.8383
-58.8399
-58.8414
-58.8428
-58.844
-58.845
-58.8459
-58.8466
-58.8471
-58.8475
-58.8478
-58.8479
-62.8047
-62.8045
-62.8043
-62.8038
-62.8032
-62.8024
-62.8015
-62.8004
-62.7991
-62.7976
-62.7959
-62.7941
-62.7921
-62.79
-62.7877
-62.7852
-62.7825
-62.7797
-62.7767
-62.7736
-62.7703
-62.7669
-62.7633
-62.7595
-62.7557
-62.7516
-62.7475
-62.7432
-62.7387
-62.7342
-62.7295
-62.7247
-62.7197
-62.7147
-62.7096
-62.7043
-62.699
-62.6936
-62.6881
-62.6825
-62.6769
-62.6712
-62.6654
-62.6596
-62.6537
-62.6478
-62.6419
-62.6359
-62.6299
-62.6239
-62.618
-62.612
-62.606
-62.6001
-62.5942
-62.5883
-62.5824
-62.5766
-62.5709
-62.5652
-62.5596