/*--------------------------------*- C++ -*----------------------------------*\
| =========                 |                                                 |
| \\      /  F ield         | OpenFOAM: The Open Source CFD Toolbox           |
|  \\    /   O peration     | Version:  2412                                  |
|   \\  /    A nd           | Website:  www.openfoam.com                      |
|    \\/     M anipulation  |                                                 |
\*---------------------------------------------------------------------------*/
FoamFile
{
    version     2.0;
    format      ascii;
    arch        "LSB;label=32;scalar=64";
    class       volScalarField;
    location    "1.6";
    object      p_rgh;
}
// * * * * * * * * * * * * * * * * * * * * * * * * * * * * * * * * * * * * * //

dimensions      [1 -1 -2 0 0 0 0];

internalField   nonuniform List<scalar> 
40000
(
1.962
1.9622
1.96248
1.96292
1.9635
1.96424
1.96514
1.96618
1.96738
1.96874
1.97024
1.9719
1.97371
1.97567
1.97778
1.98003
1.98243
1.98497
1.98766
1.99048
1.99344
1.99653
1.99975
2.0031
2.00658
2.01017
2.01389
2.01772
2.02166
2.02571
2.02986
2.03412
2.03846
2.0429
2.04743
2.05204
2.05672
2.06148
2.0663
2.07119
2.07613
2.08113
2.08617
2.09125
2.09637
2.10152
2.1067
2.11189
2.11709
2.12231
2.12752
2.13274
2.13794
2.14313
2.14829
2.15343
2.15854
2.16361
2.16864
2.17362
2.17855
2.18342
2.18823
2.19296
2.19763
2.20222
2.20672
2.21114
2.21547
2.21971
2.22384
2.22788
2.23181
2.23562
2.23933
2.24292
2.24639
2.24974
2.25297
2.25607
2.25904
2.26189
2.26459
2.26717
2.26961
2.27191
2.27407
2.27609
2.27797
2.2797
2.2813
2.28274
2.28404
2.2852
2.28621
2.28707
2.28778
2.28835
2.28877
2.28904
2.28916
2.28913
2.28896
2.28864
2.28817
2.28756
2.2868
2.28589
2.28484
2.28365
2.28232
2.28084
2.27923
2.27747
2.27558
2.27355
2.27138
2.26909
2.26666
2.2641
2.26142
2.25861
2.25568
2.25263
2.24946
2.24618
2.24279
2.23929
2.23568
2.23198
2.22817
2.22428
2.22029
2.21622
2.21206
2.20783
2.20353
2.19915
2.19472
2.19022
2.18567
2.18107
2.17642
2.17174
2.16702
2.16227
2.1575
2.15271
2.14791
2.1431
2.13828
2.13347
2.12867
2.12388
2.11911
2.11436
2.10964
2.10496
2.10031
2.09571
2.09116
2.08666
2.08222
2.07784
2.07353
2.06929
2.06513
2.06104
2.05704
2.05313
2.04932
2.04559
2.04197
2.03845
2.03503
2.03173
2.02853
2.02546
2.0225
2.01966
2.01694
2.01435
2.01188
2.00955
2.00734
2.00527
2.00334
2.00154
1.99988
1.99836
1.99698
1.99574
1.99465
1.99369
1.99288
1.99222
1.9917
1.99132
1.99109
1.99103
1.96207
1.96216
1.96241
1.96284
1.96341
1.96415
1.96504
1.96608
1.96728
1.96864
1.97014
1.9718
1.97361
1.97557
1.97768
1.97994
1.98234
1.98488
1.98757
1.99039
1.99335
1.99644
1.99967
2.00302
2.0065
2.01009
2.01381
2.01764
2.02159
2.02564
2.0298
2.03405
2.0384
2.04284
2.04737
2.05198
2.05667
2.06143
2.06626
2.07115
2.0761
2.08109
2.08614
2.09123
2.09635
2.1015
2.10668
2.11188
2.11709
2.1223
2.12752
2.13274
2.13795
2.14314
2.14831
2.15345
2.15856
2.16364
2.16867
2.17365
2.17859
2.18346
2.18827
2.19301
2.19768
2.20227
2.20678
2.2112
2.21553
2.21977
2.22391
2.22795
2.23188
2.2357
2.23941
2.243
2.24647
2.24982
2.25305
2.25616
2.25913
2.26197
2.26468
2.26726
2.2697
2.272
2.27416
2.27618
2.27806
2.2798
2.28139
2.28284
2.28414
2.28529
2.2863
2.28716
2.28788
2.28844
2.28886
2.28913
2.28925
2.28923
2.28905
2.28873
2.28827
2.28765
2.28689
2.28599
2.28494
2.28374
2.28241
2.28093
2.27932
2.27756
2.27566
2.27363
2.27147
2.26917
2.26674
2.26418
2.2615
2.25869
2.25575
2.2527
2.24953
2.24625
2.24285
2.23935
2.23575
2.23204
2.22823
2.22433
2.22034
2.21627
2.21211
2.20788
2.20357
2.19919
2.19475
2.19025
2.1857
2.18109
2.17645
2.17176
2.16704
2.16229
2.15751
2.15272
2.14791
2.1431
2.13828
2.13347
2.12866
2.12387
2.11909
2.11434
2.10962
2.10493
2.10028
2.09568
2.09112
2.08662
2.08217
2.07779
2.07348
2.06924
2.06507
2.06099
2.05698
2.05307
2.04925
2.04553
2.0419
2.03838
2.03496
2.03165
2.02846
2.02538
2.02242
2.01957
2.01686
2.01426
2.0118
2.00946
2.00726
2.00519
2.00325
2.00145
1.99979
1.99827
1.99689
1.99565
1.99455
1.9936
1.99279
1.99213
1.99161
1.99124
1.99103
1.99096
1.96184
1.96194
1.96218
1.9626
1.96317
1.96391
1.96479
1.96584
1.96704
1.96839
1.9699
1.97156
1.97338
1.97534
1.97745
1.97971
1.98211
1.98466
1.98735
1.99017
1.99314
1.99623
1.99946
2.00282
2.0063
2.00991
2.01363
2.01747
2.02142
2.02547
2.02964
2.0339
2.03826
2.0427
2.04724
2.05186
2.05655
2.06132
2.06616
2.07106
2.07601
2.08102
2.08607
2.09117
2.0963
2.10146
2.10665
2.11186
2.11707
2.1223
2.12753
2.13275
2.13797
2.14317
2.14835
2.1535
2.15862
2.1637
2.16874
2.17374
2.17868
2.18356
2.18837
2.19312
2.1978
2.2024
2.20691
2.21134
2.21568
2.21992
2.22407
2.22811
2.23205
2.23587
2.23959
2.24318
2.24666
2.25002
2.25325
2.25636
2.25933
2.26218
2.26489
2.26747
2.26991
2.27222
2.27438
2.2764
2.27828
2.28002
2.28161
2.28306
2.28437
2.28552
2.28653
2.28739
2.28811
2.28867
2.28909
2.28936
2.28948
2.28946
2.28928
2.28896
2.28849
2.28788
2.28712
2.28621
2.28516
2.28397
2.28263
2.28115
2.27953
2.27777
2.27588
2.27384
2.27168
2.26937
2.26694
2.26438
2.26169
2.25888
2.25594
2.25288
2.24971
2.24642
2.24302
2.23951
2.2359
2.23219
2.22838
2.22447
2.22048
2.21639
2.21223
2.20799
2.20367
2.19929
2.19484
2.19034
2.18577
2.18116
2.17651
2.17181
2.16708
2.16232
2.15754
2.15274
2.14792
2.1431
2.13827
2.13345
2.12864
2.12383
2.11905
2.11429
2.10956
2.10487
2.10021
2.0956
2.09103
2.08652
2.08207
2.07768
2.07336
2.06912
2.06494
2.06085
2.05684
2.05293
2.0491
2.04537
2.04174
2.03821
2.03479
2.03148
2.02828
2.02519
2.02223
2.01938
2.01666
2.01406
2.0116
2.00926
2.00705
2.00498
2.00304
2.00124
1.99957
1.99805
1.99667
1.99543
1.99433
1.99338
1.99257
1.99191
1.99139
1.99102
1.99081
1.99074
1.96145
1.96154
1.96179
1.9622
1.96277
1.9635
1.96439
1.96544
1.96664
1.968
1.96951
1.97117
1.97299
1.97495
1.97707
1.97933
1.98174
1.98429
1.98699
1.98982
1.99279
1.99589
1.99913
2.0025
2.00599
2.0096
2.01333
2.01718
2.02114
2.0252
2.02937
2.03365
2.03802
2.04248
2.04703
2.05166
2.05636
2.06115
2.06599
2.07091
2.07588
2.0809
2.08597
2.09108
2.09622
2.1014
2.1066
2.11182
2.11705
2.12229
2.12754
2.13278
2.13801
2.14322
2.14841
2.15358
2.15872
2.16381
2.16887
2.17387
2.17883
2.18372
2.18855
2.19331
2.198
2.20261
2.20714
2.21158
2.21593
2.22018
2.22433
2.22838
2.23233
2.23616
2.23988
2.24349
2.24698
2.25034
2.25358
2.25669
2.25967
2.26252
2.26524
2.26782
2.27027
2.27258
2.27474
2.27677
2.27865
2.28039
2.28199
2.28344
2.28474
2.2859
2.28691
2.28777
2.28849
2.28905
2.28947
2.28974
2.28986
2.28984
2.28966
2.28934
2.28887
2.28825
2.28749
2.28658
2.28553
2.28433
2.28299
2.28151
2.27989
2.27813
2.27623
2.27419
2.27202
2.26971
2.26727
2.26471
2.26201
2.25919
2.25625
2.25318
2.25
2.24671
2.2433
2.23978
2.23616
2.23244
2.22862
2.2247
2.2207
2.2166
2.21243
2.20818
2.20385
2.19945
2.19499
2.19047
2.1859
2.18128
2.17661
2.1719
2.16715
2.16238
2.15758
2.15277
2.14794
2.1431
2.13826
2.13343
2.1286
2.12379
2.11899
2.11422
2.10947
2.10476
2.1001
2.09547
2.09089
2.08637
2.08191
2.07751
2.07318
2.06892
2.06473
2.06063
2.05662
2.05269
2.04885
2.04511
2.04147
2.03794
2.03451
2.03119
2.02798
2.02489
2.02192
2.01906
2.01634
2.01373
2.01126
2.00892
2.00671
2.00463
2.00269
2.00088
1.99921
1.99769
1.9963
1.99506
1.99396
1.99301
1.9922
1.99154
1.99102
1.99065
1.99043
1.99036
1.96089
1.96098
1.96123
1.96164
1.96221
1.96294
1.96383
1.96488
1.96608
1.96744
1.96896
1.97063
1.97245
1.97442
1.97654
1.97881
1.98123
1.98379
1.98649
1.98933
1.99231
1.99542
1.99867
2.00204
2.00555
2.00917
2.01291
2.01678
2.02075
2.02483
2.02902
2.03331
2.03769
2.04217
2.04673
2.05138
2.0561
2.0609
2.06577
2.0707
2.07569
2.08073
2.08582
2.09095
2.09611
2.10131
2.10653
2.11177
2.11703
2.12229
2.12755
2.13281
2.13806
2.1433
2.14851
2.1537
2.15885
2.16397
2.16904
2.17407
2.17904
2.18395
2.1888
2.19357
2.19828
2.2029
2.20745
2.2119
2.21627
2.22053
2.2247
2.22876
2.23272
2.23657
2.2403
2.24391
2.24741
2.25078
2.25403
2.25715
2.26014
2.263
2.26572
2.26831
2.27076
2.27308
2.27525
2.27728
2.27916
2.28091
2.2825
2.28396
2.28526
2.28642
2.28743
2.2883
2.28901
2.28958
2.29
2.29027
2.29039
2.29036
2.29019
2.28986
2.28939
2.28877
2.28801
2.2871
2.28604
2.28484
2.2835
2.28201
2.28039
2.27862
2.27671
2.27467
2.27249
2.27018
2.26773
2.26516
2.26246
2.25963
2.25668
2.2536
2.25041
2.2471
2.24369
2.24016
2.23652
2.23279
2.22895
2.22502
2.221
2.2169
2.21271
2.20844
2.20409
2.19968
2.19521
2.19067
2.18608
2.18143
2.17675
2.17202
2.16726
2.16247
2.15765
2.15282
2.14797
2.14311
2.13825
2.1334
2.12855
2.12372
2.1189
2.11411
2.10935
2.10462
2.09994
2.09529
2.0907
2.08616
2.08168
2.07727
2.07292
2.06864
2.06444
2.06033
2.0563
2.05236
2.04851
2.04476
2.0411
2.03756
2.03411
2.03078
2.02757
2.02447
2.02148
2.01862
2.01589
2.01328
2.0108
2.00845
2.00623
2.00414
2.0022
2.00039
1.99871
1.99718
1.9958
1.99455
1.99345
1.99249
1.99168
1.99102
1.9905
1.99013
1.98991
1.98983
1.96016
1.96026
1.96051
1.96092
1.96149
1.96222
1.96312
1.96417
1.96537
1.96674
1.96826
1.96993
1.97176
1.97374
1.97587
1.97814
1.98057
1.98314
1.98585
1.9887
1.99169
1.99482
1.99808
2.00147
2.00498
2.00862
2.01238
2.01626
2.02025
2.02435
2.02856
2.03287
2.03727
2.04177
2.04635
2.05102
2.05577
2.06059
2.06548
2.07043
2.07545
2.08051
2.08563
2.09078
2.09597
2.1012
2.10644
2.11171
2.11699
2.12228
2.12757
2.13285
2.13813
2.14339
2.14863
2.15384
2.15902
2.16416
2.16926
2.17431
2.17931
2.18424
2.18911
2.19391
2.19864
2.20328
2.20784
2.21232
2.2167
2.22099
2.22517
2.22925
2.23322
2.23708
2.24083
2.24446
2.24797
2.25135
2.25461
2.25774
2.26074
2.26361
2.26634
2.26894
2.2714
2.27371
2.27589
2.27793
2.27982
2.28156
2.28317
2.28462
2.28593
2.28709
2.2881
2.28897
2.28969
2.29025
2.29067
2.29094
2.29106
2.29104
2.29086
2.29053
2.29006
2.28944
2.28867
2.28776
2.2867
2.2855
2.28415
2.28266
2.28102
2.27925
2.27734
2.27529
2.2731
2.27078
2.26832
2.26574
2.26303
2.26019
2.25722
2.25414
2.25093
2.24761
2.24418
2.24064
2.23699
2.23324
2.22938
2.22544
2.2214
2.21727
2.21306
2.20877
2.20441
2.19997
2.19548
2.19092
2.1863
2.18164
2.17693
2.17217
2.16739
2.16257
2.15773
2.15287
2.148
2.14312
2.13824
2.13336
2.12849
2.12363
2.11879
2.11398
2.10919
2.10444
2.09973
2.09507
2.09045
2.08589
2.08139
2.07695
2.07258
2.06829
2.06407
2.05994
2.05589
2.05193
2.04806
2.0443
2.04063
2.03707
2.03361
2.03027
2.02704
2.02392
2.02093
2.01806
2.01531
2.01269
2.0102
2.00784
2.00561
2.00352
2.00157
1.99975
1.99807
1.99654
1.99515
1.9939
1.99279
1.99183
1.99102
1.99035
1.98983
1.98946
1.98924
1.98915
1.95928
1.95938
1.95963
1.96004
1.96061
1.96135
1.96224
1.96329
1.9645
1.96587
1.9674
1.96908
1.97091
1.9729
1.97504
1.97733
1.97976
1.98234
1.98507
1.98794
1.99094
1.99408
1.99736
2.00076
2.0043
2.00796
2.01174
2.01563
2.01965
2.02377
2.028
2.03233
2.03676
2.04128
2.04589
2.05058
2.05536
2.06021
2.06513
2.07011
2.07515
2.08025
2.08539
2.09058
2.0958
2.10106
2.10634
2.11163
2.11695
2.12227
2.12759
2.13291
2.13822
2.14351
2.14878
2.15402
2.15923
2.16441
2.16953
2.17461
2.17963
2.1846
2.18949
2.19432
2.19907
2.20374
2.20833
2.21283
2.21723
2.22154
2.22575
2.22985
2.23384
2.23772
2.24148
2.24512
2.24865
2.25205
2.25532
2.25846
2.26147
2.26435
2.26709
2.2697
2.27217
2.27449
2.27668
2.27872
2.28061
2.28237
2.28397
2.28543
2.28674
2.28791
2.28892
2.28979
2.29051
2.29108
2.29149
2.29176
2.29188
2.29186
2.29168
2.29135
2.29088
2.29025
2.28948
2.28856
2.2875
2.28629
2.28494
2.28344
2.2818
2.28002
2.2781
2.27604
2.27384
2.27151
2.26904
2.26645
2.26372
2.26087
2.25789
2.25479
2.25157
2.24823
2.24478
2.24122
2.23755
2.23378
2.22991
2.22594
2.22188
2.21773
2.2135
2.20918
2.20479
2.20033
2.19581
2.19122
2.18658
2.18188
2.17715
2.17237
2.16755
2.16271
2.15784
2.15295
2.14805
2.14313
2.13822
2.13331
2.12841
2.12352
2.11866
2.11381
2.109
2.10422
2.09948
2.09479
2.09015
2.08556
2.08103
2.07657
2.07218
2.06786
2.06362
2.05946
2.05539
2.05141
2.04752
2.04374
2.04005
2.03647
2.033
2.02963
2.02639
2.02326
2.02025
2.01737
2.01461
2.01197
2.00947
2.0071
2.00486
2.00276
2.0008
1.99898
1.99729
1.99575
1.99435
1.9931
1.99199
1.99102
1.9902
1.98954
1.98901
1.98864
1.98842
1.98833
1.95824
1.95833
1.95858
1.95899
1.95957
1.96031
1.9612
1.96226
1.96348
1.96485
1.96639
1.96808
1.96992
1.97192
1.97407
1.97637
1.97881
1.98141
1.98415
1.98703
1.99005
1.99321
1.99651
1.99993
2.00349
2.00717
2.01097
2.01489
2.01893
2.02308
2.02733
2.03169
2.03615
2.0407
2.04534
2.05007
2.05488
2.05976
2.06471
2.06973
2.07481
2.07994
2.08512
2.09034
2.0956
2.10089
2.10621
2.11155
2.1169
2.12225
2.12761
2.13297
2.13832
2.14365
2.14895
2.15423
2.15948
2.16469
2.16985
2.17497
2.18002
2.18502
2.18995
2.19481
2.19959
2.20429
2.20891
2.21343
2.21786
2.2222
2.22643
2.23055
2.23456
2.23846
2.24225
2.24591
2.24945
2.25287
2.25616
2.25931
2.26234
2.26523
2.26798
2.2706
2.27308
2.27541
2.2776
2.27965
2.28156
2.28331
2.28492
2.28639
2.2877
2.28887
2.28989
2.29076
2.29148
2.29204
2.29246
2.29273
2.29285
2.29282
2.29264
2.29231
2.29184
2.29121
2.29043
2.28951
2.28844
2.28723
2.28587
2.28436
2.28271
2.28092
2.27899
2.27692
2.27472
2.27237
2.26989
2.26728
2.26454
2.26168
2.25868
2.25556
2.25232
2.24897
2.2455
2.24192
2.23822
2.23443
2.23053
2.22654
2.22245
2.21827
2.21401
2.20967
2.20525
2.20076
2.1962
2.19158
2.18691
2.18218
2.17741
2.17259
2.16774
2.16286
2.15796
2.15303
2.1481
2.14315
2.1382
2.13326
2.12832
2.1234
2.1185
2.11362
2.10877
2.10396
2.09919
2.09446
2.08979
2.08517
2.08061
2.07612
2.0717
2.06735
2.06308
2.0589
2.0548
2.0508
2.04688
2.04307
2.03936
2.03576
2.03227
2.02889
2.02562
2.02248
2.01945
2.01655
2.01377
2.01113
2.00861
2.00623
2.00398
2.00187
1.99989
1.99806
1.99637
1.99482
1.99341
1.99215
1.99104
1.99007
1.98925
1.98857
1.98805
1.98767
1.98745
1.98736
1.95703
1.95712
1.95737
1.95779
1.95836
1.9591
1.96001
1.96107
1.96229
1.96368
1.96522
1.96691
1.96877
1.97078
1.97294
1.97525
1.97772
1.98033
1.98308
1.98598
1.98903
1.99221
1.99552
1.99897
2.00255
2.00625
2.01008
2.01403
2.0181
2.02228
2.02656
2.03095
2.03544
2.04003
2.04471
2.04947
2.05432
2.05924
2.06423
2.06929
2.0744
2.07958
2.0848
2.09006
2.09537
2.1007
2.10606
2.11144
2.11684
2.12224
2.12764
2.13304
2.13843
2.14381
2.14916
2.15448
2.15977
2.16502
2.17022
2.17538
2.18047
2.18551
2.19048
2.19537
2.20019
2.20492
2.20957
2.21413
2.21859
2.22295
2.22721
2.23136
2.2354
2.23933
2.24313
2.24682
2.25038
2.25382
2.25712
2.2603
2.26334
2.26624
2.26901
2.27164
2.27413
2.27647
2.27867
2.28073
2.28264
2.28441
2.28602
2.28749
2.28881
2.28998
2.291
2.29187
2.29259
2.29316
2.29358
2.29385
2.29397
2.29394
2.29376
2.29342
2.29294
2.29231
2.29153
2.2906
2.28953
2.28831
2.28694
2.28543
2.28377
2.28197
2.28003
2.27795
2.27573
2.27337
2.27088
2.26825
2.26549
2.26261
2.25959
2.25646
2.2532
2.24982
2.24632
2.24271
2.239
2.23517
2.23125
2.22723
2.22311
2.2189
2.2146
2.21023
2.20577
2.20125
2.19665
2.192
2.18728
2.18252
2.17771
2.17285
2.16796
2.16304
2.1581
2.15313
2.14815
2.14317
2.13818
2.13319
2.12822
2.12325
2.11831
2.11339
2.10851
2.10365
2.09884
2.09408
2.08937
2.08472
2.08012
2.0756
2.07114
2.06676
2.06246
2.05825
2.05412
2.05008
2.04615
2.04231
2.03857
2.03495
2.03143
2.02802
2.02474
2.02157
2.01852
2.0156
2.01281
2.01015
2.00762
2.00522
2.00296
2.00083
1.99885
1.997
1.9953
1.99374
1.99233
1.99106
1.98994
1.98896
1.98814
1.98746
1.98693
1.98656
1.98633
1.98624
1.95565
1.95575
1.956
1.95642
1.957
1.95774
1.95865
1.95972
1.96095
1.96234
1.96389
1.9656
1.96746
1.96949
1.97166
1.97399
1.97647
1.9791
1.98188
1.9848
1.98786
1.99106
1.9944
1.99788
2.00148
2.00522
2.00908
2.01306
2.01716
2.02137
2.02569
2.03012
2.03465
2.03927
2.04399
2.04879
2.05368
2.05865
2.06368
2.06878
2.07395
2.07917
2.08444
2.08975
2.0951
2.10049
2.10589
2.11132
2.11677
2.12222
2.12768
2.13313
2.13857
2.14399
2.14939
2.15476
2.1601
2.1654
2.17065
2.17584
2.18099
2.18606
2.19107
2.19601
2.20087
2.20564
2.21033
2.21492
2.21942
2.22382
2.22811
2.23229
2.23636
2.24031
2.24414
2.24785
2.25144
2.25489
2.25822
2.26141
2.26447
2.26739
2.27018
2.27282
2.27532
2.27767
2.27989
2.28195
2.28387
2.28564
2.28727
2.28874
2.29006
2.29124
2.29226
2.29314
2.29386
2.29443
2.29485
2.29512
2.29523
2.2952
2.29502
2.29468
2.2942
2.29356
2.29278
2.29184
2.29076
2.28953
2.28816
2.28663
2.28497
2.28316
2.2812
2.27911
2.27687
2.2745
2.27199
2.26935
2.26657
2.26366
2.26063
2.25747
2.25418
2.25078
2.24726
2.24362
2.23988
2.23602
2.23207
2.22801
2.22386
2.21961
2.21528
2.21086
2.20637
2.2018
2.19717
2.19247
2.18771
2.1829
2.17805
2.17315
2.16821
2.16325
2.15826
2.15325
2.14822
2.14319
2.13815
2.13312
2.1281
2.12309
2.1181
2.11314
2.1082
2.10331
2.09846
2.09365
2.0889
2.0842
2.07957
2.075
2.07051
2.06609
2.06176
2.05751
2.05334
2.04928
2.04531
2.04144
2.03767
2.03402
2.03047
2.02704
2.02373
2.02054
2.01747
2.01453
2.01172
2.00904
2.00649
2.00407
2.00179
1.99965
1.99766
1.9958
1.99409
1.99252
1.9911
1.98982
1.98869
1.98771
1.98688
1.9862
1.98567
1.98529
1.98506
1.98497
1.95411
1.95421
1.95446
1.95488
1.95546
1.95621
1.95713
1.9582
1.95944
1.96084
1.9624
1.96412
1.966
1.96804
1.97023
1.97258
1.97508
1.97773
1.98052
1.98347
1.98655
1.98978
1.99315
1.99665
2.00029
2.00406
2.00795
2.01197
2.0161
2.02035
2.02471
2.02918
2.03375
2.03842
2.04318
2.04803
2.05297
2.05798
2.06307
2.06822
2.07344
2.07871
2.08403
2.0894
2.0948
2.10024
2.10571
2.11119
2.11669
2.1222
2.12771
2.13322
2.13871
2.14419
2.14965
2.15508
2.16047
2.16582
2.17112
2.17637
2.18156
2.18669
2.19175
2.19673
2.20163
2.20645
2.21118
2.21581
2.22035
2.22478
2.22911
2.23332
2.23742
2.24141
2.24527
2.24901
2.25262
2.2561
2.25945
2.26266
2.26574
2.26868
2.27148
2.27414
2.27665
2.27902
2.28124
2.28332
2.28525
2.28703
2.28866
2.29014
2.29147
2.29265
2.29367
2.29455
2.29527
2.29584
2.29626
2.29653
2.29665
2.29661
2.29643
2.29609
2.2956
2.29496
2.29417
2.29323
2.29214
2.2909
2.28952
2.28798
2.28631
2.28448
2.28252
2.28041
2.27816
2.27577
2.27324
2.27058
2.26778
2.26485
2.26179
2.2586
2.25529
2.25186
2.24831
2.24464
2.24086
2.23697
2.23298
2.22889
2.22469
2.22041
2.21604
2.21158
2.20704
2.20243
2.19775
2.193
2.1882
2.18334
2.17843
2.17348
2.1685
2.16348
2.15844
2.15337
2.1483
2.14321
2.13812
2.13304
2.12796
2.1229
2.11786
2.11285
2.10787
2.10292
2.09802
2.09317
2.08837
2.08362
2.07895
2.07434
2.0698
2.06534
2.06096
2.05667
2.05248
2.04837
2.04437
2.04046
2.03667
2.03298
2.0294
2.02594
2.02261
2.01939
2.0163
2.01333
2.01049
2.00779
2.00522
2.00279
2.00049
1.99834
1.99633
1.99446
1.99273
1.99115
1.98972
1.98843
1.9873
1.98631
1.98547
1.98478
1.98425
1.98387
1.98364
1.98355
1.95241
1.95251
1.95276
1.95318
1.95377
1.95452
1.95544
1.95653
1.95777
1.95918
1.96076
1.96249
1.96439
1.96644
1.96865
1.97101
1.97353
1.9762
1.97902
1.98199
1.98511
1.98836
1.99176
1.9953
1.99897
2.00277
2.0067
2.01075
2.01493
2.01922
2.02363
2.02814
2.03276
2.03747
2.04229
2.04719
2.05218
2.05724
2.06238
2.06759
2.07287
2.0782
2.08358
2.08901
2.09447
2.09997
2.1055
2.11105
2.11661
2.12218
2.12776
2.13332
2.13888
2.14442
2.14994
2.15543
2.16088
2.16629
2.17165
2.17695
2.1822
2.18738
2.19249
2.19753
2.20248
2.20735
2.21212
2.2168
2.22138
2.22586
2.23022
2.23447
2.23861
2.24263
2.24652
2.25029
2.25393
2.25744
2.26081
2.26405
2.26715
2.27011
2.27293
2.2756
2.27813
2.28051
2.28275
2.28484
2.28677
2.28856
2.2902
2.29169
2.29302
2.2942
2.29523
2.29611
2.29684
2.29741
2.29783
2.2981
2.29821
2.29818
2.29798
2.29764
2.29715
2.2965
2.29571
2.29476
2.29366
2.29242
2.29102
2.28948
2.28779
2.28595
2.28397
2.28185
2.27958
2.27717
2.27462
2.27194
2.26912
2.26616
2.26308
2.25986
2.25652
2.25306
2.24947
2.24577
2.24196
2.23803
2.234
2.22986
2.22563
2.2213
2.21688
2.21237
2.20779
2.20312
2.19839
2.19359
2.18873
2.18382
2.17886
2.17385
2.16881
2.16374
2.15863
2.15351
2.14838
2.14323
2.13809
2.13295
2.12781
2.12269
2.1176
2.11253
2.10749
2.10249
2.09753
2.09263
2.08778
2.08298
2.07826
2.0736
2.06901
2.06451
2.06009
2.05575
2.05151
2.04737
2.04332
2.03938
2.03555
2.03182
2.02822
2.02473
2.02136
2.01811
2.01499
2.012
2.00914
2.00641
2.00382
2.00137
1.99905
1.99688
1.99485
1.99297
1.99123
1.98963
1.98819
1.98689
1.98575
1.98475
1.98391
1.98322
1.98268
1.9823
1.98207
1.98198
1.95053
1.95063
1.95089
1.95131
1.95191
1.95266
1.95359
1.95468
1.95594
1.95736
1.95895
1.9607
1.96261
1.96468
1.96691
1.96929
1.97183
1.97453
1.97738
1.98037
1.98352
1.98681
1.99024
1.99381
1.99751
2.00135
2.00532
2.00942
2.01364
2.01798
2.02243
2.02699
2.03166
2.03643
2.0413
2.04626
2.0513
2.05643
2.06163
2.0669
2.07224
2.07764
2.08308
2.08858
2.09411
2.09968
2.10527
2.11089
2.11652
2.12216
2.1278
2.13344
2.13907
2.14467
2.15026
2.15581
2.16133
2.1668
2.17223
2.1776
2.1829
2.18815
2.19332
2.19841
2.20342
2.20834
2.21316
2.21789
2.22252
2.22704
2.23145
2.23574
2.23992
2.24397
2.2479
2.2517
2.25537
2.25891
2.26231
2.26557
2.2687
2.27168
2.27452
2.27721
2.27975
2.28215
2.2844
2.2865
2.28845
2.29024
2.29189
2.29338
2.29472
2.29591
2.29694
2.29783
2.29855
2.29913
2.29955
2.29981
2.29993
2.29989
2.29969
2.29935
2.29885
2.2982
2.2974
2.29644
2.29534
2.29408
2.29267
2.29112
2.28942
2.28757
2.28557
2.28343
2.28114
2.27871
2.27614
2.27343
2.27059
2.26761
2.26449
2.26125
2.25788
2.25438
2.25076
2.24702
2.24316
2.23919
2.23512
2.23094
2.22665
2.22227
2.2178
2.21325
2.20861
2.20389
2.1991
2.19424
2.18933
2.18435
2.17933
2.17426
2.16916
2.16402
2.15885
2.15367
2.14847
2.14326
2.13805
2.13284
2.12765
2.12247
2.11731
2.11217
2.10708
2.10202
2.097
2.09204
2.08713
2.08228
2.07749
2.07278
2.06815
2.06359
2.05912
2.05474
2.05045
2.04626
2.04217
2.03819
2.03432
2.03056
2.02691
2.02339
2.01998
2.01671
2.01356
2.01053
2.00765
2.00489
2.00228
1.9998
1.99747
1.99528
1.99323
1.99133
1.98957
1.98797
1.98651
1.98521
1.98405
1.98305
1.9822
1.9815
1.98096
1.98057
1.98034
1.98025
1.94849
1.94859
1.94885
1.94928
1.94987
1.95064
1.95157
1.95268
1.95394
1.95538
1.95698
1.95874
1.96067
1.96276
1.96501
1.96742
1.96998
1.9727
1.97558
1.9786
1.98178
1.9851
1.98857
1.99218
1.99592
1.99981
2.00382
2.00796
2.01223
2.01662
2.02113
2.02574
2.03047
2.0353
2.04022
2.04524
2.05035
2.05554
2.06081
2.06615
2.07156
2.07702
2.08254
2.08811
2.09371
2.09935
2.10502
2.11072
2.11642
2.12214
2.12785
2.13357
2.13927
2.14495
2.15061
2.15623
2.16182
2.16737
2.17286
2.1783
2.18368
2.18898
2.19422
2.19937
2.20444
2.20942
2.2143
2.21908
2.22376
2.22833
2.23279
2.23713
2.24135
2.24544
2.24941
2.25325
2.25695
2.26052
2.26395
2.26724
2.27039
2.27339
2.27625
2.27896
2.28152
2.28394
2.2862
2.28831
2.29027
2.29208
2.29373
2.29523
2.29658
2.29777
2.29881
2.29969
2.30042
2.30099
2.30142
2.30168
2.30179
2.30175
2.30155
2.3012
2.3007
2.30004
2.29923
2.29827
2.29716
2.29589
2.29447
2.29291
2.29119
2.28932
2.28731
2.28515
2.28284
2.28039
2.2778
2.27507
2.27219
2.26918
2.26604
2.26276
2.25935
2.25582
2.25216
2.24838
2.24448
2.24047
2.23634
2.23211
2.22778
2.22334
2.21882
2.2142
2.2095
2.20473
2.19987
2.19495
2.18997
2.18493
2.17984
2.17471
2.16953
2.16433
2.15909
2.15384
2.14857
2.14329
2.13801
2.13273
2.12747
2.12222
2.11699
2.11179
2.10662
2.1015
2.09642
2.09139
2.08642
2.08151
2.07666
2.07189
2.0672
2.06259
2.05806
2.05363
2.04929
2.04505
2.04092
2.03689
2.03297
2.02917
2.02549
2.02192
2.01849
2.01517
2.01199
2.00894
2.00602
2.00324
2.0006
1.9981
1.99574
1.99353
1.99146
1.98954
1.98777
1.98615
1.98468
1.98337
1.9822
1.98119
1.98033
1.97963
1.97908
1.97869
1.97846
1.97837
1.94628
1.94638
1.94664
1.94707
1.94768
1.94845
1.94939
1.9505
1.95178
1.95323
1.95484
1.95662
1.95857
1.96068
1.96295
1.96538
1.96797
1.97072
1.97363
1.97669
1.9799
1.98326
1.98676
1.99041
1.9942
1.99813
2.00219
2.00638
2.0107
2.01515
2.01971
2.02438
2.02917
2.03406
2.03905
2.04414
2.04932
2.05458
2.05992
2.06533
2.07081
2.07635
2.08195
2.08759
2.09328
2.099
2.10475
2.11053
2.11631
2.12211
2.12791
2.1337
2.13949
2.14525
2.15099
2.15669
2.16236
2.16798
2.17355
2.17907
2.18451
2.18989
2.1952
2.20042
2.20555
2.21059
2.21554
2.22038
2.22511
2.22973
2.23424
2.23863
2.2429
2.24704
2.25104
2.25492
2.25866
2.26226
2.26572
2.26904
2.27222
2.27525
2.27813
2.28086
2.28344
2.28587
2.28815
2.29027
2.29224
2.29406
2.29572
2.29723
2.29858
2.29978
2.30082
2.30171
2.30244
2.30301
2.30344
2.3037
2.30381
2.30377
2.30357
2.30321
2.3027
2.30204
2.30122
2.30025
2.29913
2.29785
2.29642
2.29484
2.29311
2.29123
2.2892
2.28702
2.28469
2.28222
2.2796
2.27684
2.27394
2.2709
2.26772
2.26441
2.26096
2.25738
2.25368
2.24986
2.24591
2.24185
2.23767
2.23339
2.229
2.22451
2.21992
2.21524
2.21048
2.20564
2.20072
2.19573
2.19068
2.18557
2.1804
2.17519
2.16994
2.16466
2.15935
2.15402
2.14867
2.14332
2.13796
2.13261
2.12727
2.12194
2.11664
2.11137
2.10613
2.10093
2.09578
2.09068
2.08564
2.08066
2.07576
2.07092
2.06617
2.0615
2.05691
2.05242
2.04803
2.04374
2.03955
2.03548
2.03152
2.02767
2.02394
2.02034
2.01686
2.01351
2.01029
2.00721
2.00426
2.00145
1.99878
1.99625
1.99387
1.99164
1.98955
1.98761
1.98582
1.98419
1.9827
1.98137
1.98019
1.97917
1.97831
1.9776
1.97705
1.97665
1.97642
1.97633
1.9439
1.944
1.94426
1.9447
1.94531
1.94609
1.94704
1.94816
1.94945
1.95091
1.95254
1.95434
1.9563
1.95843
1.96073
1.96319
1.96581
1.96859
1.97152
1.97462
1.97786
1.98126
1.98481
1.9885
1.99234
1.99632
2.00043
2.00468
2.00905
2.01355
2.01817
2.02291
2.02777
2.03272
2.03779
2.04295
2.0482
2.05353
2.05895
2.06444
2.07001
2.07563
2.08131
2.08704
2.09281
2.09862
2.10446
2.11032
2.1162
2.12208
2.12797
2.13385
2.13972
2.14558
2.1514
2.15719
2.16294
2.16865
2.1743
2.1799
2.18542
2.19088
2.19626
2.20155
2.20675
2.21186
2.21687
2.22178
2.22657
2.23126
2.23582
2.24026
2.24457
2.24876
2.25281
2.25673
2.26051
2.26415
2.26764
2.27099
2.2742
2.27725
2.28015
2.28291
2.28551
2.28795
2.29025
2.29238
2.29437
2.29619
2.29787
2.29938
2.30074
2.30194
2.30299
2.30388
2.30461
2.30519
2.30561
2.30587
2.30598
2.30593
2.30573
2.30537
2.30486
2.30419
2.30336
2.30238
2.30125
2.29996
2.29852
2.29692
2.29518
2.29328
2.29123
2.28903
2.28668
2.28418
2.28154
2.27875
2.27582
2.27274
2.26953
2.26618
2.26269
2.25908
2.25533
2.25145
2.24746
2.24334
2.23911
2.23477
2.23032
2.22576
2.22111
2.21637
2.21154
2.20662
2.20163
2.19657
2.19144
2.18625
2.18101
2.17572
2.17039
2.16502
2.15963
2.15422
2.14879
2.14335
2.13791
2.13248
2.12705
2.12165
2.11626
2.11091
2.10559
2.10032
2.09509
2.08992
2.0848
2.07976
2.07478
2.06988
2.06505
2.06032
2.05567
2.05112
2.04667
2.04232
2.03808
2.03395
2.02994
2.02604
2.02227
2.01862
2.0151
2.01171
2.00846
2.00534
2.00236
1.99951
1.99682
1.99426
1.99186
1.9896
1.98749
1.98553
1.98372
1.98207
1.98057
1.97922
1.97803
1.977
1.97613
1.97541
1.97485
1.97446
1.97422
1.97413
1.94135
1.94145
1.94171
1.94215
1.94276
1.94355
1.94451
1.94564
1.94695
1.94842
1.95007
1.95189
1.95387
1.95603
1.95835
1.96083
1.96348
1.96629
1.96926
1.97239
1.97568
1.97912
1.98271
1.98645
1.99034
1.99437
1.99853
2.00284
2.00727
2.01184
2.01653
2.02133
2.02625
2.03129
2.03642
2.04166
2.04699
2.05241
2.05791
2.06349
2.06914
2.07485
2.08062
2.08644
2.09231
2.09821
2.10414
2.1101
2.11607
2.12205
2.12804
2.13402
2.13998
2.14593
2.15185
2.15773
2.16357
2.16937
2.17511
2.18079
2.1864
2.19194
2.1974
2.20277
2.20805
2.21324
2.21832
2.22329
2.22815
2.23289
2.23752
2.24201
2.24638
2.25062
2.25472
2.25868
2.2625
2.26617
2.2697
2.27309
2.27632
2.2794
2.28233
2.2851
2.28773
2.29019
2.2925
2.29465
2.29665
2.29848
2.30016
2.30169
2.30305
2.30426
2.30531
2.3062
2.30694
2.30751
2.30793
2.3082
2.3083
2.30825
2.30805
2.30768
2.30716
2.30649
2.30565
2.30466
2.30352
2.30222
2.30077
2.29916
2.2974
2.29548
2.29341
2.29119
2.28882
2.28629
2.28362
2.2808
2.27784
2.27473
2.27148
2.26809
2.26456
2.2609
2.2571
2.25317
2.24912
2.24495
2.24066
2.23625
2.23174
2.22712
2.2224
2.21758
2.21268
2.20768
2.20261
2.19747
2.19226
2.18699
2.18166
2.17628
2.17087
2.16541
2.15993
2.15443
2.14891
2.14338
2.13786
2.13233
2.12682
2.12132
2.11585
2.11042
2.10501
2.09966
2.09435
2.08909
2.0839
2.07877
2.07372
2.06875
2.06385
2.05905
2.05434
2.04972
2.0452
2.0408
2.0365
2.03231
2.02825
2.0243
2.02048
2.01678
2.01322
2.00978
2.00649
2.00333
2.00031
1.99744
1.99471
1.99212
1.98969
1.9874
1.98527
1.98329
1.98146
1.97979
1.97827
1.97692
1.97571
1.97467
1.97379
1.97307
1.9725
1.9721
1.97186
1.97177
1.93862
1.93872
1.93899
1.93943
1.94005
1.94084
1.94181
1.94296
1.94427
1.94577
1.94743
1.94927
1.95127
1.95345
1.9558
1.95831
1.96099
1.96384
1.96684
1.97001
1.97334
1.97683
1.98046
1.98426
1.98819
1.99228
1.9965
2.00087
2.00537
2.01
2.01476
2.01964
2.02463
2.02974
2.03496
2.04028
2.04569
2.0512
2.05679
2.06246
2.0682
2.07401
2.07988
2.0858
2.09176
2.09777
2.1038
2.10986
2.11594
2.12202
2.12811
2.13419
2.14026
2.1463
2.15232
2.15831
2.16425
2.17014
2.17598
2.18175
2.18746
2.19309
2.19863
2.20409
2.20945
2.21471
2.21987
2.22491
2.22984
2.23465
2.23934
2.24389
2.24832
2.25261
2.25676
2.26077
2.26463
2.26835
2.27191
2.27533
2.27859
2.2817
2.28466
2.28746
2.2901
2.29258
2.29491
2.29707
2.29908
2.30093
2.30262
2.30415
2.30552
2.30673
2.30779
2.30868
2.30942
2.31
2.31042
2.31068
2.31078
2.31073
2.31052
2.31015
2.30962
2.30894
2.3081
2.3071
2.30595
2.30463
2.30317
2.30154
2.29976
2.29783
2.29574
2.2935
2.2911
2.28855
2.28585
2.283
2.28
2.27686
2.27357
2.27013
2.26656
2.26285
2.259
2.25502
2.25091
2.24668
2.24232
2.23785
2.23327
2.22857
2.22378
2.21888
2.2139
2.20882
2.20367
2.19844
2.19314
2.18778
2.18236
2.17689
2.17138
2.16583
2.16026
2.15466
2.14904
2.14342
2.13779
2.13218
2.12657
2.12098
2.11542
2.10988
2.10439
2.09894
2.09355
2.08821
2.08293
2.07772
2.07259
2.06753
2.06256
2.05768
2.0529
2.04821
2.04363
2.03916
2.0348
2.03055
2.02643
2.02243
2.01855
2.01481
2.01119
2.00772
2.00438
2.00118
1.99813
1.99521
1.99245
1.98984
1.98737
1.98506
1.9829
1.9809
1.97905
1.97736
1.97582
1.97445
1.97324
1.97218
1.97129
1.97056
1.96999
1.96959
1.96934
1.96925
1.93572
1.93582
1.93609
1.93653
1.93716
1.93796
1.93894
1.9401
1.94143
1.94294
1.94462
1.94647
1.9485
1.95071
1.95308
1.95562
1.95834
1.96122
1.96426
1.96747
1.97085
1.97438
1.97807
1.98191
1.9859
1.99005
1.99433
1.99876
2.00333
2.00803
2.01287
2.01782
2.0229
2.02809
2.03339
2.0388
2.04431
2.04991
2.05559
2.06136
2.0672
2.07311
2.07909
2.08511
2.09118
2.09729
2.10344
2.10961
2.11579
2.12199
2.12818
2.13437
2.14055
2.14671
2.15284
2.15893
2.16498
2.17097
2.17691
2.18279
2.18859
2.19431
2.19995
2.2055
2.21095
2.21629
2.22153
2.22665
2.23166
2.23654
2.24129
2.24591
2.25039
2.25474
2.25894
2.263
2.26691
2.27066
2.27427
2.27772
2.28102
2.28416
2.28714
2.28996
2.29263
2.29513
2.29747