/*--------------------------------*- C++ -*----------------------------------*\
| =========                 |                                                 |
| \\      /  F ield         | OpenFOAM: The Open Source CFD Toolbox           |
|  \\    /   O peration     | Version:  2412                                  |
|   \\  /    A nd           | Website:  www.openfoam.com                      |
|    \\/     M anipulation  |                                                 |
\*---------------------------------------------------------------------------*/
FoamFile
{
    version     2.0;
    format      ascii;
    arch        "LSB;label=32;scalar=64";
    class       surfaceScalarField;
    location    "1.6";
    object      phi;
}
// * * * * * * * * * * * * * * * * * * * * * * * * * * * * * * * * * * * * * //

dimensions      [0 3 -1 0 0 0 0];

oriented        oriented;

internalField   nonuniform List<scalar> 
79600
(
-3.16373e-11
1.87022e-11
-5.91587e-11
2.75211e-11
-8.43069e-11
2.51689e-11
-1.06618e-10
2.23163e-11
-1.27561e-10
2.09072e-11
-1.48001e-10
2.04069e-11
-1.68244e-10
2.02479e-11
-1.88378e-10
2.01566e-11
-2.08408e-10
2.00432e-11
-2.28313e-10
1.99008e-11
-2.48058e-10
1.97356e-11
-2.67613e-10
1.95506e-11
-2.86948e-10
1.93388e-11
-3.06048e-10
1.91056e-11
-3.24891e-10
1.88462e-11
-3.43459e-10
1.85695e-11
-3.61731e-10
1.82723e-11
-3.79685e-10
1.79554e-11
-3.97302e-10
1.76188e-11
-4.14562e-10
1.72624e-11
-4.31447e-10
1.68868e-11
-4.47937e-10
1.64922e-11
-4.64014e-10
1.60782e-11
-4.79658e-10
1.56453e-11
-4.94848e-10
1.51923e-11
-5.0957e-10
1.47231e-11
-5.23803e-10
1.42352e-11
-5.37531e-10
1.37288e-11
-5.50735e-10
1.32057e-11
-5.63401e-10
1.26662e-11
-5.7551e-10
1.21092e-11
-5.87047e-10
1.1537e-11
-5.97998e-10
1.0949e-11
-6.08346e-10
1.03464e-11
-6.1808e-10
9.73303e-12
-6.27179e-10
9.09648e-12
-6.35639e-10
8.45759e-12
-6.43445e-10
7.80426e-12
-6.50589e-10
7.14182e-12
-6.57061e-10
6.47046e-12
-6.62846e-10
5.78319e-12
-6.67945e-10
5.09753e-12
-6.72347e-10
4.40095e-12
-6.7605e-10
3.70162e-12
-6.7905e-10
2.99938e-12
-6.81341e-10
2.28942e-12
-6.82917e-10
1.57614e-12
-6.83776e-10
8.58486e-13
-6.8391e-10
1.3316e-13
-6.8334e-10
-5.69231e-13
-6.82062e-10
-1.27733e-12
-6.80081e-10
-1.97993e-12
-6.77405e-10
-2.67495e-12
-6.74037e-10
-3.36622e-12
-6.69985e-10
-4.05022e-12
-6.65261e-10
-4.72277e-12
-6.59869e-10
-5.38947e-12
-6.53817e-10
-6.04993e-12
-6.47118e-10
-6.69625e-12
-6.39785e-10
-7.33122e-12
-6.31825e-10
-7.95775e-12
-6.23256e-10
-8.56638e-12
-6.14092e-10
-9.16191e-12
-6.04349e-10
-9.74162e-12
-5.94045e-10
-1.03018e-11
-5.83174e-10
-1.08687e-11
-5.71776e-10
-1.13952e-11
-5.59863e-10
-1.19109e-11
-5.47447e-10
-1.24131e-11
-5.34551e-10
-1.28937e-11
-5.21189e-10
-1.33592e-11
-5.07378e-10
-1.38078e-11
-4.93139e-10
-1.42378e-11
-4.78487e-10
-1.46498e-11
-4.63442e-10
-1.50445e-11
-4.48022e-10
-1.54197e-11
-4.32245e-10
-1.57778e-11
-4.16124e-10
-1.61223e-11
-3.99683e-10
-1.64432e-11
-3.82937e-10
-1.67476e-11
-3.65904e-10
-1.70362e-11
-3.48598e-10
-1.73084e-11
-3.31039e-10
-1.75622e-11
-3.13243e-10
-1.77987e-11
-2.95227e-10
-1.8019e-11
-2.77005e-10
-1.82243e-11
-2.58593e-10
-1.84144e-11
-2.40007e-10
-1.85875e-11
-2.21262e-10
-1.87457e-11
-2.02374e-10
-1.88882e-11
-1.83356e-10
-1.90175e-11
-1.64223e-10
-1.9132e-11
-1.44991e-10
-1.9231e-11
-1.25673e-10
-1.93164e-11
-1.06281e-10
-1.93902e-11
-8.68327e-11
-1.94477e-11
-6.73394e-11
-1.94928e-11
-4.7814e-11
-1.95254e-11
-2.82703e-11
-1.95444e-11
-8.7218e-12
-1.95496e-11
1.08183e-11
-1.95417e-11
3.03375e-11
-1.9521e-11
4.98214e-11
-1.94862e-11
6.92573e-11
-1.94381e-11
8.86314e-11
-1.93762e-11
1.07932e-10
-1.93026e-11
1.27146e-10
-1.92161e-11
1.46258e-10
-1.91126e-11
1.65256e-10
-1.89987e-11
1.84125e-10
-1.88692e-11
2.02851e-10
-1.87255e-11
2.21421e-10
-1.85699e-11
2.39823e-10
-1.84008e-11
2.58036e-10
-1.82113e-11
2.76047e-10
-1.80106e-11
2.93844e-10
-1.7797e-11
3.1141e-10
-1.7567e-11
3.28731e-10
-1.73223e-11
3.4579e-10
-1.70612e-11
3.62569e-10
-1.6783e-11
3.79055e-10
-1.64891e-11
3.95231e-10
-1.61795e-11
4.11079e-10
-1.58521e-11
4.26585e-10
-1.55085e-11
4.41733e-10
-1.51492e-11
4.56503e-10
-1.47716e-11
4.70882e-10
-1.43782e-11
4.84851e-10
-1.39686e-11
4.9839e-10
-1.3536e-11
5.11484e-10
-1.30917e-11
5.24118e-10
-1.26308e-11
5.36277e-10
-1.2155e-11
5.47943e-10
-1.16626e-11
5.59097e-10
-1.1151e-11
5.69725e-10
-1.06262e-11
5.79815e-10
-1.00884e-11
5.89346e-10
-9.53046e-12
5.9831e-10
-8.96369e-12
6.0669e-10
-8.38015e-12
6.14476e-10
-7.78584e-12
6.21655e-10
-7.17907e-12
6.28212e-10
-6.55706e-12
6.34141e-10
-5.92839e-12
6.39432e-10
-5.29038e-12
6.44076e-10
-4.64288e-12
6.48064e-10
-3.98678e-12
6.51391e-10
-3.32581e-12
6.54056e-10
-2.66291e-12
6.56032e-10
-1.97512e-12
6.57334e-10
-1.30053e-12
6.57955e-10
-6.1963e-13
6.57897e-10
5.88643e-14
6.57137e-10
7.61114e-13
6.55686e-10
1.45111e-12
6.53548e-10
2.13774e-12
6.50719e-10
2.8285e-12
6.47216e-10
3.50223e-12
6.4304e-10
4.17622e-12
6.38193e-10
4.84565e-12
6.32684e-10
5.5087e-12
6.26514e-10
6.16869e-12
6.19703e-10
6.80975e-12
6.12249e-10
7.45253e-12
6.04165e-10
8.08142e-12
5.95463e-10
8.7008e-12
5.86153e-10
9.30753e-12
5.76252e-10
9.89967e-12
5.65768e-10
1.04825e-11
5.54717e-10
1.10493e-11
5.43111e-10
1.1605e-11
5.30971e-10
1.21387e-11
5.183e-10
1.26704e-11
5.05127e-10
1.3173e-11
4.91462e-10
1.36668e-11
4.77324e-10
1.41396e-11
4.6273e-10
1.45974e-11
4.47697e-10
1.50375e-11
4.32243e-10
1.54583e-11
4.16376e-10
1.58703e-11
4.00125e-10
1.62545e-11
3.83504e-10
1.66229e-11
3.66534e-10
1.69711e-11
3.49234e-10
1.73005e-11
3.31613e-10
1.76202e-11
3.13697e-10
1.79156e-11
2.95503e-10
1.81929e-11
2.77051e-10
1.84501e-11
2.58355e-10
1.86943e-11
2.39439e-10
1.89132e-11
2.20325e-10
1.91124e-11
2.01035e-10
1.92899e-11
1.81594e-10
1.94417e-11
1.62024e-10
1.95701e-11
1.42324e-10
1.97004e-11
1.22392e-10
1.99342e-11
1.01818e-10
2.05749e-11
7.95586e-11
2.22581e-11
5.38557e-11
2.57014e-11
2.4283e-11
2.95725e-11
2.42836e-11
-3.28646e-11
5.15666e-11
-6.71037e-11
6.17201e-11
-9.16263e-11
4.96772e-11
-1.08884e-10
3.9622e-11
-1.22504e-10
3.45671e-11
-1.34658e-10
3.25532e-11
-1.46263e-10
3.18219e-11
-1.5762e-10
3.14966e-11
-1.68814e-10
3.12427e-11
-1.79867e-10
3.09677e-11
-1.90774e-10
3.06492e-11
-2.01519e-10
3.02955e-11
-2.12071e-10
2.98889e-11
-2.22418e-10
2.94531e-11
-2.32559e-10
2.89907e-11
-2.42463e-10
2.84786e-11
-2.52122e-10
2.7935e-11
-2.61517e-10
2.73533e-11
-2.70638e-10
2.67421e-11
-2.79464e-10
2.6091e-11
-2.8799e-10
2.54164e-11
-2.96197e-10
2.47024e-11
-3.04073e-10
2.39583e-11
-3.11608e-10
2.3183e-11
-3.18779e-10
2.23666e-11
-3.25584e-10
2.15314e-11
-3.32011e-10
2.06649e-11
-3.38041e-10
1.97602e-11
-3.4367e-10
1.88361e-11
-3.48887e-10
1.78833e-11
-3.53682e-10
1.69025e-11
-3.58045e-10
1.58985e-11
-3.61967e-10
1.48687e-11
-3.65447e-10
1.38229e-11
-3.68467e-10
1.275e-11
-3.71046e-10
1.16726e-11
-3.73158e-10
1.05663e-11
-3.74805e-10
9.44849e-12
-3.75987e-10
8.3203e-12
-3.76697e-10
7.17798e-12
-3.76954e-10
6.03796e-12
-3.76744e-10
4.8859e-12
-3.76074e-10
3.7296e-12
-3.7495e-10
2.57554e-12
-3.73374e-10
1.4222e-12
-3.71372e-10
2.87103e-13
-3.68911e-10
-8.85286e-13
-3.66031e-10
-2.02114e-12
-3.6275e-10
-3.14703e-12
-3.59062e-10
-4.25539e-12
-3.54993e-10
-5.34464e-12
-3.50548e-10
-6.4222e-12
-3.45749e-10
-7.47111e-12
-3.40609e-10
-8.50363e-12
-3.35142e-10
-9.51345e-12
-3.2937e-10
-1.0491e-11
-3.23303e-10
-1.14527e-11
-3.16965e-10
-1.23837e-11
-3.10369e-10
-1.3289e-11
-3.03531e-10
-1.41649e-11
-2.96482e-10
-1.50028e-11
-2.8923e-10
-1.58148e-11
-2.818e-10
-1.65888e-11
-2.74206e-10
-1.73322e-11
-2.66455e-10
-1.80488e-11
-2.58632e-10
-1.86877e-11
-2.50691e-10
-1.93321e-11
-2.42662e-10
-1.99352e-11
-2.34574e-10
-2.04963e-11
-2.26437e-10
-2.10274e-11
-2.18272e-10
-2.152e-11
-2.10097e-10
-2.19805e-11
-2.01921e-10
-2.24109e-11
-1.93766e-10
-2.28037e-11
-1.85644e-10
-2.31669e-11
-1.77564e-10
-2.35005e-11
-1.69537e-10
-2.38064e-11
-1.61583e-10
-2.40796e-11
-1.53699e-10
-2.43308e-11
-1.45895e-10
-2.45554e-11
-1.38183e-10
-2.4752e-11
-1.30569e-10
-2.49277e-11
-1.2305e-10
-2.50855e-11
-1.15633e-10
-2.52194e-11
-1.08316e-10
-2.53397e-11
-1.01107e-10
-2.54365e-11
-9.40052e-11
-2.55184e-11
-8.7005e-11
-2.5589e-11
-8.00993e-11
-2.56516e-11
-7.32919e-11
-2.56949e-11
-6.65742e-11
-2.57337e-11
-5.99406e-11
-2.57638e-11
-5.33862e-11
-2.57836e-11
-4.69069e-11
-2.57941e-11
-4.04925e-11
-2.58034e-11
-3.41338e-11
-2.5806e-11
-2.78254e-11
-2.58015e-11
-2.15545e-11
-2.57977e-11
-1.5313e-11
-2.57878e-11
-9.0917e-12
-2.57734e-11
-2.88119e-12
-2.57552e-11
3.32791e-12
-2.57333e-11
9.54682e-12
-2.57084e-11
1.57834e-11
-2.5678e-11
2.20462e-11
-2.5642e-11
2.83478e-11
-2.56065e-11
3.46921e-11
-2.55621e-11
4.10913e-11
-2.55127e-11
4.75534e-11
-2.54608e-11
5.40834e-11
-2.53983e-11
6.06868e-11
-2.53276e-11
6.73677e-11
-2.52492e-11
7.41323e-11
-2.5164e-11
8.09884e-11
-2.50668e-11
8.7931e-11
-2.49538e-11
9.49587e-11
-2.48268e-11
1.02086e-10
-2.46981e-11
1.09302e-10
-2.45428e-11
1.16604e-10
-2.43681e-11
1.23994e-10
-2.41797e-11
1.31467e-10
-2.39677e-11
1.39011e-10
-2.37295e-11
1.46627e-10
-2.34715e-11
1.54308e-10
-2.31923e-11
1.6204e-10
-2.28824e-11
1.69817e-10
-2.25471e-11
1.77624e-10
-2.21832e-11
1.85445e-10
-2.17861e-11
1.93285e-10
-2.13703e-11
2.01113e-10
-2.09143e-11
2.08913e-10
-2.04255e-11
2.1668e-10
-1.99174e-11
2.24389e-10
-1.93669e-11
2.32028e-10
-1.87864e-11
2.39575e-10
-1.81718e-11
2.47011e-10
-1.75225e-11
2.5433e-10
-1.68497e-11
2.615e-10
-1.6134e-11
2.68511e-10
-1.53906e-11
2.75338e-10
-1.46128e-11
2.81964e-10
-1.38042e-11
2.88377e-10
-1.29688e-11
2.94549e-10
-1.20992e-11
3.00476e-10
-1.12146e-11
3.0613e-10
-1.02948e-11
3.11499e-10
-9.35348e-12
3.16565e-10
-8.38935e-12
3.21298e-10
-7.39359e-12
3.2575e-10
-6.4244e-12
3.29838e-10
-5.38702e-12
3.33564e-10
-4.34406e-12
3.3691e-10
-3.28655e-12
3.39885e-10
-2.21346e-12
3.42469e-10
-1.13346e-12
3.44629e-10
-2.26585e-14
3.46389e-10
1.0683e-12
3.47728e-10
2.16206e-12
3.48643e-10
3.25975e-12
3.49127e-10
4.36076e-12
3.49175e-10
5.45834e-12
3.48793e-10
6.54784e-12
3.47971e-10
7.62906e-12
3.46717e-10
8.70395e-12
3.45025e-10
9.77026e-12
3.42898e-10
1.08249e-11
3.40342e-10
1.18616e-11
3.37357e-10
1.28817e-11
3.33952e-10
1.38863e-11
3.30125e-10
1.48742e-11
3.25893e-10
1.58356e-11
3.21249e-10
1.67822e-11
3.16233e-10
1.7687e-11
3.10822e-10
1.85856e-11
3.05041e-10
1.94527e-11
2.9889e-10
2.02959e-11
2.92385e-10
2.11082e-11
2.85532e-10
2.18964e-11
2.78338e-10
2.26587e-11
2.70841e-10
2.33722e-11
2.63029e-10
2.40699e-11
2.54916e-10
2.47368e-11
2.46514e-10
2.53727e-11
2.3784e-10
2.59745e-11
2.28914e-10
2.65443e-11
2.19742e-10
2.70854e-11
2.10332e-10
2.76001e-11
2.00698e-10
2.8081e-11
1.90866e-10
2.85234e-11
1.8084e-10
2.89379e-11
1.70636e-10
2.9314e-11
1.60275e-10
2.96519e-11
1.49764e-10
2.99548e-11
1.39099e-10
3.02373e-11
1.28201e-10
3.05994e-11
1.16742e-10
3.13914e-11
1.03769e-10
3.3546e-11
8.70817e-11
3.89461e-11
6.3073e-11
4.97108e-11
2.98192e-11
6.28255e-11
5.41036e-11
-2.83189e-11
7.99062e-11
-5.43578e-11
8.77438e-11
-6.82123e-11
6.34723e-11
-7.32834e-11
4.46735e-11
-7.3948e-11
3.52534e-11
-7.28027e-11
3.14297e-11
-7.09733e-11
2.99924e-11
-6.88748e-11
2.93851e-11
-6.66243e-11
2.89828e-11
-6.42636e-11
2.86069e-11
-6.18135e-11
2.82037e-11
-5.92538e-11
2.77396e-11
-5.6613e-11
2.72492e-11
-5.38753e-11
2.67153e-11
-5.10138e-11
2.61298e-11
-4.80399e-11
2.55066e-11
-4.49457e-11
2.48436e-11
-4.17239e-11
2.41343e-11
-3.83783e-11
2.33993e-11
-3.48991e-11
2.26146e-11
-3.12783e-11
2.17986e-11
-2.75192e-11
2.09466e-11
-2.3609e-11
2.00516e-11
-1.95438e-11
1.91214e-11
-1.53479e-11
1.81741e-11
-1.09912e-11
1.71778e-11
-6.47234e-12
1.61487e-11
-1.80675e-12
1.50967e-11
3.02003e-12
1.40108e-11
8.00463e-12
1.28994e-11
1.31517e-11
1.17554e-11
1.84462e-11
1.06032e-11
2.39027e-11
9.41111e-12
2.95025e-11
8.22162e-12
3.52446e-11
7.00642e-12
4.11351e-11
5.78045e-12
4.71533e-11
4.54669e-12
5.32968e-11
3.30363e-12
5.95579e-11
2.0581e-12
6.59246e-11
8.10415e-13
7.23853e-11
-4.23424e-13
7.89287e-11
-1.65797e-12
8.55396e-11
-2.88156e-12
9.22051e-11
-4.08996e-12
9.89076e-11
-5.28009e-12
1.05643e-10
-6.44788e-12
1.12359e-10
-7.60093e-12
1.19061e-10
-8.72133e-12
1.25724e-10
-9.8085e-12
1.32328e-10
-1.08583e-11
1.38855e-10
-1.18693e-11
1.45275e-10
-1.28396e-11
1.51569e-10
-1.37628e-11
1.57708e-10
-1.464e-11
1.63666e-10
-1.54685e-11
1.69423e-10
-1.62452e-11
1.74948e-10
-1.69746e-11
1.8022e-10
-1.7653e-11
1.85213e-10
-1.82785e-11
1.89899e-10
-1.8849e-11
1.9426e-10
-1.93611e-11
1.98266e-10
-1.98181e-11
2.01895e-10
-2.02155e-11
2.05119e-10
-2.05541e-11
2.07913e-10
-2.08403e-11
2.10286e-10
-2.10576e-11
2.12181e-10
-2.12246e-11
2.13592e-10
-2.13436e-11
2.14504e-10
-2.14064e-11
2.14898e-10
-2.14183e-11
2.14762e-10
-2.1382e-11
2.14075e-10
-2.12915e-11
2.12843e-10
-2.1177e-11
2.1104e-10
-2.09996e-11
2.08676e-10
-2.0803e-11
2.0573e-10
-2.05538e-11
2.02209e-10
-2.02856e-11
1.98118e-10
-1.9989e-11
1.93453e-10
-1.96669e-11
1.88216e-10
-1.93203e-11
1.8242e-10
-1.89579e-11
1.76073e-10
-1.85824e-11
1.69185e-10
-1.81997e-11
1.61776e-10
-1.78121e-11
1.53856e-10
-1.74224e-11
1.45452e-10
-1.70341e-11
1.36567e-10
-1.66346e-11
1.27245e-10
-1.62686e-11
1.17509e-10
-1.59161e-11
1.07367e-10
-1.55532e-11
9.68714e-11
-1.52382e-11
8.60379e-11
-1.493e-11
7.49048e-11
-1.46503e-11
6.34958e-11
-1.43849e-11
5.1866e-11
-1.41736e-11
4.00253e-11
-1.39654e-11
2.80171e-11
-1.37937e-11
1.58958e-11
-1.36769e-11
3.68586e-12
-1.35787e-11
-8.57459e-12
-1.35139e-11
-2.08466e-11
-1.34843e-11
-3.30908e-11
-1.34902e-11
-4.52691e-11
-1.35312e-11
-5.73436e-11
-1.36045e-11
-6.92895e-11
-1.3697e-11
-8.10487e-11
-1.38479e-11
-9.25845e-11
-1.40266e-11
-1.03891e-10
-1.42066e-11
-1.14898e-10
-1.44526e-11
-1.25602e-10
-1.46936e-11
-1.35946e-10
-1.49828e-11
-1.45933e-10
-1.52619e-11
-1.55501e-10
-1.5596e-11
-1.6464e-10
-1.59281e-11
-1.7334e-10
-1.62562e-11
-1.81558e-10
-1.66106e-11
-1.89279e-10
-1.69805e-11
-1.96487e-10
-1.73392e-11
-2.03164e-10
-1.76954e-11
-2.09303e-10
-1.80457e-11
-2.14886e-10
-1.83879e-11
-2.19908e-10
-1.87107e-11
-2.24369e-10
-1.90124e-11
-2.28252e-10
-1.93099e-11
-2.31558e-10
-1.95762e-11
-2.343e-10
-1.98034e-11
-2.36466e-10
-2.00153e-11
-2.38068e-10
-2.0181e-11
-2.39113e-10
-2.03214e-11
-2.39611e-10
-2.04133e-11
-2.39573e-10
-2.04604e-11
-2.39016e-10
-2.04717e-11
-2.37941e-10
-2.0439e-11
-2.36376e-10
-2.03505e-11
-2.34335e-10
-2.02111e-11
-2.31837e-10
-2.00204e-11
-2.28905e-10
-1.97807e-11
-2.25555e-10
-1.94845e-11
-2.21812e-10
-1.91331e-11
-2.17696e-10
-1.87273e-11
-2.13231e-10
-1.82682e-11
-2.08443e-10
-1.77547e-11
-2.03351e-10
-1.7189e-11
-1.97988e-10
-1.65758e-11
-1.92369e-10
-1.59116e-11
-1.8652e-10
-1.52008e-11
-1.80464e-10
-1.44429e-11
-1.74217e-10
-1.36392e-11
-1.67841e-10
-1.27993e-11
-1.6132e-10
-1.19067e-11
-1.5469e-10
-1.09737e-11
-1.47972e-10
-1.00038e-11
-1.41186e-10
-8.99929e-12
-1.34356e-10
-7.96366e-12
-1.27483e-10
-6.89647e-12
-1.20603e-10
-5.81175e-12
-1.13734e-10
-4.70806e-12
-1.06889e-10
-3.5861e-12
-1.0008e-10
-2.44846e-12
-9.33239e-11
-1.2989e-12
-8.6635e-11
-1.42381e-13
-8.00148e-11
1.00731e-12
-7.34912e-11
2.17869e-12
-6.7061e-11
3.33871e-12
-6.07389e-11
4.50176e-12
-5.45226e-11
5.64437e-12
-4.8431e-11
6.78931e-12
-4.24599e-11
7.91444e-12
-3.66239e-11
9.0374e-12
-3.09199e-11
1.01309e-11
-2.53504e-11
1.12123e-11
-1.99221e-11
1.22591e-11
-1.46274e-11
1.32924e-11
-9.47908e-12
1.43069e-11
-4.46996e-12
1.52899e-11
4.03053e-13
1.62385e-11
5.13303e-12
1.71697e-11
9.73186e-12
1.80628e-11
1.4187e-11
1.89193e-11
1.85216e-11
1.97364e-11
2.27159e-11
2.05427e-11
2.67862e-11
2.13023e-11
3.07343e-11
2.20261e-11
3.45579e-11
2.27204e-11
3.82683e-11
2.33741e-11
4.18606e-11
2.40064e-11
4.53439e-11
2.45958e-11
4.87245e-11
2.5141e-11
5.20012e-11
2.56598e-11
5.51884e-11
2.61266e-11
5.8274e-11
2.65669e-11
6.12603e-11
2.69693e-11
6.41217e-11
2.73763e-11
6.67148e-11
2.80064e-11
6.86374e-11
2.94688e-11
6.87216e-11
3.34622e-11
6.44107e-11
4.32577e-11
5.13853e-11
6.27362e-11
2.64441e-11
8.77665e-11
8.05478e-11
-2.4951e-11
1.04862e-10
-4.46511e-11
1.0749e-10
-5.10184e-11
6.98189e-11
-4.82484e-11
4.18661e-11
-4.09764e-11
2.79679e-11
-3.18397e-11
2.2301e-11
-2.20138e-11
2.01754e-11
-1.19243e-11
1.9295e-11
-1.71179e-12
1.8764e-11
8.58596e-12
1.8304e-11
1.89528e-11
1.78355e-11
2.93744e-11
1.73192e-11
3.98525e-11
1.67726e-11
5.03859e-11
1.61827e-11
6.09654e-11
1.55507e-11
7.15936e-11
1.48792e-11
8.22712e-11
1.41676e-11
9.29927e-11
1.34154e-11
1.03757e-10
1.26375e-11
1.14572e-10
1.18033e-11
1.25431e-10
1.09433e-11
1.36335e-10
1.00464e-11
1.47266e-10
9.12443e-12
1.58241e-10
8.1511e-12
1.6926e-10
7.15822e-12
1.80304e-10
6.13835e-12
1.91378e-10
5.07793e-12
2.02479e-10
3.99772e-12
2.13598e-10
2.89376e-12
2.24734e-10
1.76504e-12
2.35859e-10
6.31768e-13
2.47003e-10
-5.40802e-13
2.58127e-10
-1.71255e-12
2.69239e-10
-2.89057e-12
2.80321e-10
-4.07531e-12
2.91362e-10
-5.26061e-12
3.02351e-10
-6.44264e-12
3.13273e-10
-7.61771e-12
3.24112e-10
-8.78071e-12
3.3485e-10
-9.92707e-12
3.45477e-10
-1.10496e-11
3.55967e-10
-1.21477e-11
3.66302e-10
-1.32152e-11
3.76461e-10
-1.42471e-11
3.86421e-10
-1.52386e-11
3.9616e-10
-1.61855e-11
4.05646e-10
-1.70856e-11
4.14857e-10
-1.7931e-11
4.23768e-10
-1.87171e-11
4.32351e-10
-1.94395e-11
4.40578e-10
-2.00947e-11
4.48421e-10
-2.06795e-11
4.5585e-10
-2.11894e-11
4.62834e-10
-2.16221e-11
4.69343e-10
-2.19753e-11
4.75347e-10
-2.22471e-11
4.80813e-10
-2.24377e-11
4.85707e-10
-2.25455e-11
4.9e-10
-2.25691e-11
4.93659e-10
-2.2506e-11
4.96658e-10
-2.23592e-11
4.98962e-10
-2.21204e-11
5.00546e-10
-2.17982e-11
5.01386e-10
-2.13925e-11
5.01447e-10
-2.09e-11
5.00716e-10
-2.03249e-11
4.99166e-10
-1.96734e-11
4.96772e-10
-1.89486e-11
4.93519e-10
-1.81517e-11
4.89388e-10
-1.72861e-11
4.84365e-10
-1.63582e-11
4.78445e-10
-1.53703e-11
4.71609e-10
-1.43388e-11
4.63865e-10
-1.32537e-11
4.55185e-10
-1.21223e-11
4.45592e-10
-1.09586e-11
4.35076e-10
-9.76822e-12
4.23643e-10
-8.55506e-12
4.11313e-10
-7.33515e-12
3.98083e-10
-6.08955e-12
3.83977e-10
-4.85196e-12
3.69013e-10
-3.61849e-12
3.53211e-10
-2.39839e-12
3.36596e-10
-1.19743e-12
3.19195e-10
-2.25528e-14
3.0104e-10
1.12009e-12
2.82178e-10
2.22613e-12
2.62627e-10
3.28032e-12
2.42428e-10
4.28185e-12
2.21643e-10
5.23015e-12
2.00294e-10
6.1092e-12
1.78441e-10
6.92165e-12
1.56129e-10
7.66072e-12
1.33419e-10
8.32375e-12
1.10344e-10
8.90063e-12
8.69804e-11
9.39819e-12
6.33798e-11
9.80693e-12
3.95829e-11
1.01204e-11
1.56595e-11
1.03453e-11
-8.33245e-12
1.0479e-11
-3.23354e-11
1.05198e-11
-5.62919e-11
1.04675e-11
-8.01445e-11
1.03226e-11
-1.03835e-10
1.00872e-11
-1.27294e-10
9.76349e-12
-1.50486e-10
9.34513e-12
-1.73353e-10
8.84138e-12
-1.95819e-10
8.26017e-12
-2.17863e-10
7.59218e-12
-2.3941e-10
6.85321e-12
-2.60432e-10
6.03908e-12
-2.80857e-10
5.16316e-12
-3.00673e-10
4.21841e-12
-3.19824e-10
3.22096e-12
-3.3826e-10
2.17748e-12
-3.55959e-10
1.08549e-12
-3.72895e-10
-4.69976e-14
-3.8903e-10
-1.20743e-12
-4.04337e-10
-2.39134e-12
-4.18797e-10
-3.58873e-12
-4.3238e-10
-4.80653e-12
-4.45082e-10
-6.00925e-12
-4.56877e-10
-7.21697e-12
-4.6777e-10
-8.41668e-12
-4.77744e-10
-9.60056e-12
-4.86793e-10
-1.0752e-11
-4.94927e-10
-1.18792e-11
-5.02135e-10
-1.297e-11
-5.08434e-10
-1.40207e-11
-5.13827e-10
-1.50189e-11
-5.18318e-10
-1.59675e-11
-5.2193e-10
-1.68595e-11
-5.24672e-10
-1.76967e-11
-5.26566e-10
-1.8456e-11
-5.27627e-10
-1.91494e-11
-5.27878e-10
-1.97691e-11
-5.27344e-10
-2.0314e-11
-5.26044e-10
-2.07842e-11
-5.24009e-10
-2.11665e-11
-5.21263e-10
-2.14708e-11
-5.17833e-10
-2.16958e-11
-5.13752e-10
-2.18334e-11
-5.09046e-10
-2.18922e-11
-5.03748e-10
-2.18719e-11
-4.97887e-10
-2.17703e-11
-4.91495e-10
-2.15914e-11
-4.84602e-10
-2.13357e-11
-4.77236e-10
-2.10042e-11
-4.69433e-10
-2.06009e-11
-4.61217e-10
-2.01228e-11
-4.52614e-10
-1.95759e-11
-4.43653e-10
-1.89639e-11
-4.34362e-10
-1.82904e-11
-4.24766e-10
-1.75595e-11
-4.14888e-10
-1.67748e-11
-4.04756e-10
-1.59437e-11
-3.94395e-10
-1.50688e-11
-3.83828e-10
-1.41538e-11
-3.73074e-10
-1.32027e-11
-3.62153e-10
-1.222e-11
-3.51085e-10
-1.12109e-11
-3.39898e-10
-1.01807e-11
-3.28592e-10
-9.12733e-12
-3.17193e-10
-8.06041e-12
-3.05709e-10
-6.98222e-12
-2.94164e-10
-5.90008e-12
-2.82561e-10
-4.81308e-12
-2.70918e-10
-3.72759e-12
-2.59237e-10
-2.64407e-12
-2.47535e-10
-1.57064e-12
-2.35815e-10
-5.07485e-13
-2.24098e-10
5.43286e-13
-2.1238e-10
1.57546e-12
-2.00666e-10
2.59386e-12
-1.88965e-10
3.58963e-12
-1.77285e-10
4.55935e-12
-1.65622e-10
5.50676e-12
-1.53983e-10
6.42512e-12
-1.42376e-10
7.31216e-12
-1.3081e-10
8.16999e-12
-1.19271e-10
9.00419e-12
-1.07769e-10
9.80019e-12
-9.63073e-11
1.05659e-11
-8.48874e-11
1.13012e-11
-7.35164e-11
1.20029e-11
-6.21836e-11
1.26733e-11
-5.08988e-11
1.33111e-11
-3.96648e-11
1.39071e-11
-2.84778e-11
1.44722e-11
-1.73494e-11
1.49974e-11
-6.27013e-12
1.54879e-11
4.73004e-12
1.59705e-11
1.56221e-11
1.64848e-11
2.6258e-11
1.73688e-11
3.61916e-11
1.95334e-11
4.42746e-11
2.538e-11
4.7836e-11
3.9698e-11
4.23093e-11
6.82633e-11
2.3596e-11
1.0648e-10
1.04143e-10
-2.35199e-11
1.28344e-10
-4.03276e-11
1.24334e-10
-4.32014e-11
7.27123e-11
-3.68553e-11
3.55056e-11
-2.60345e-11
1.71259e-11
-1.3392e-11
9.64956e-12
-9.50649e-14
6.8795e-12
1.34474e-11
5.75449e-12
2.70956e-11
5.11424e-12
4.08137e-11
4.58208e-12
5.45899e-11
4.05594e-12
6.84043e-11
3.50305e-12
8.22607e-11
2.91579e-12
9.61469e-11
2.29659e-12
1.10063e-10
1.63531e-12
1.24002e-10
9.40902e-13
1.37962e-10
2.08743e-13
1.51937e-10
-5.57934e-13
1.65935e-10
-1.35754e-12
1.79937e-10
-2.19512e-12
1.93949e-10
-3.06406e-12
2.07964e-10
-3.96445e-12
2.21987e-10
-4.89382e-12
2.35998e-10
-5.85593e-12
2.50004e-10
-6.84278e-12
2.64e-10
-7.85397e-12
2.77972e-10
-8.89054e-12
2.91919e-10
-9.94597e-12
3.05834e-10
-1.10179e-11
3.19704e-10
-1.21033e-11
3.33534e-10
-1.31962e-11
3.47295e-10
-1.42998e-11
3.60986e-10
-1.54022e-11
3.74596e-10
-1.65e-11
3.88112e-10
-1.75897e-11
4.01518e-10
-1.86658e-11
4.148e-10
-1.97234e-11
4.27941e-10
-2.07569e-11
4.40922e-10
-2.17602e-11
4.53724e-10
-2.27275e-11
4.66328e-10
-2.36521e-11
4.78712e-10
-2.45292e-11
4.90851e-10
-2.53524e-11
5.02722e-10
-2.61156e-11
5.14298e-10
-2.6813e-11
5.25553e-10
-2.74388e-11
5.36457e-10
-2.79879e-11
5.46982e-10
-2.84537e-11
5.57097e-10
-2.88305e-11
5.66772e-10
-2.91131e-11
5.75976e-10
-2.92969e-11
5.84676e-10
-2.93779e-11
5.92841e-10
-2.93519e-11
6.00436e-10
-2.92157e-11
6.07429e-10
-2.89663e-11
6.13784e-10
-2.8601e-11
6.19466e-10
-2.81181e-11
6.24439e-10
-2.75163e-11
6.28665e-10
-2.67943e-11
6.32112e-10
-2.59517e-11
6.34742e-10
-2.49887e-11
6.36529e-10
-2.39057e-11
6.37438e-10
-2.27066e-11
6.37436e-10
-2.13894e-11
6.36497e-10
-1.99605e-11
6.34595e-10
-1.84229e-11
6.31705e-10
-1.67824e-11
6.27801e-10
-1.50444e-11
6.22863e-10
-1.32137e-11
6.16873e-10
-1.12958e-11
6.09819e-10
-9.30329e-12
6.01684e-10
-7.23421e-12
5.92454e-10
-5.10788e-12
5.8213e-10
-2.9269e-12
5.70709e-10
-6.9879e-13
5.58188e-10
1.5643e-12
5.44572e-10
3.85064e-12
5.29869e-10
6.15138e-12
5.14081e-10
8.45506e-12
4.97238e-10
1.07562e-11
4.79349e-10
1.30387e-11
4.60439e-10
1.52932e-11
4.40532e-10
1.75086e-11
4.1966e-10
1.96748e-11
3.97856e-10
2.17813e-11
3.75157e-10
2.38179e-11
3.51607e-10
2.57743e-11
3.27246e-10
2.76392e-11
3.02122e-10
2.9404e-11
2.76288e-10
3.10609e-11
2.49795e-10
3.25997e-11
2.227e-10
3.40136e-11
1.95063e-10
3.52955e-11
1.66947e-10
3.64389e-11
1.38409e-10
3.7437e-11
1.09521e-10
3.82862e-11
8.03482e-11
3.8981e-11
5.09533e-11
3.95169e-11
2.14078e-11
3.98931e-11
-8.21858e-12
4.01082e-11
-3.78565e-11
4.0161e-11
-6.74365e-11
4.00512e-11
-9.68897e-11
3.97794e-11
-1.26146e-10
3.93472e-11
-1.55136e-10
3.87567e-11
-1.83798e-10
3.80092e-11
-2.12064e-10
3.71101e-11
-2.39868e-10
3.6065e-11
-2.67152e-10
3.48772e-11
-2.93853e-10
3.35546e-11
-3.19918e-10
3.2103e-11
-3.45287e-10
3.05306e-11
-3.69914e-10
2.88438e-11
-3.93749e-10
2.70533e-11
-4.16742e-10
2.51683e-11
-4.38855e-10
2.31965e-11
-4.60053e-10
2.11481e-11
-4.80296e-10
1.90349e-11
-4.99556e-10
1.68673e-11
-5.17801e-10
1.46561e-11
-5.35016e-10
1.241e-11
-5.51169e-10
1.01449e-11
-5.6625e-10
7.86585e-12
-5.80248e-10
5.58391e-12
-5.93156e-10
3.31033e-12
-6.04963e-10
1.0572e-12
-6.1567e-10
-1.16953e-12
-6.2528e-10
-3.35932e-12
-6.338e-10
-5.49968e-12
-6.41234e-10
-7.58526e-12
-6.47594e-10
-9.60763e-12
-6.52895e-10
-1.15588e-11
-6.57159e-10
-1.34336e-11
-6.60396e-10
-1.52196e-11
-6.62633e-10
-1.69121e-11
-6.63892e-10
-1.85099e-11
-6.642e-10
-2.00054e-11
-6.63587e-10
-2.1396e-11
-6.62075e-10
-2.2676e-11
-6.59697e-10
-2.38457e-11
-6.56488e-10
-2.49011e-11
-6.52477e-10
-2.58417e-11
-6.47698e-10
-2.66678e-11
-6.42188e-10
-2.73799e-11
-6.3598e-10
-2.79768e-11
-6.29109e-10
-2.84615e-11
-6.21609e-10
-2.88351e-11
-6.13513e-10
-2.90999e-11
-6.04854e-10
-2.92592e-11
-5.95663e-10
-2.93139e-11
-5.8597e-10
-2.92684e-11
-5.75807e-10
-2.91266e-11
-5.65204e-10
-2.8893e-11
-5.5419e-10
-2.85724e-11
-5.42795e-10
-2.81699e-11
-5.31047e-10
-2.76914e-11
-5.18973e-10
-2.7142e-11
-5.066e-10
-2.65269e-11
-4.93951e-10
-2.58512e-11
-4.81051e-10
-2.51205e-11
-4.67921e-10
-2.43406e-11
-4.54585e-10
-2.35169e-11
-4.41058e-10
-2.26534e-11
-4.27361e-10
-2.17565e-11
-4.13511e-10
-2.08316e-11
-3.99525e-10
-1.98846e-11
-3.85417e-10
-1.89195e-11
-3.71202e-10
-1.79412e-11
-3.56892e-10
-1.69537e-11
-3.42499e-10
-1.59621e-11
-3.28035e-10
-1.49701e-11
-3.1351e-10
-1.3981e-11
-2.98935e-10
-1.29988e-11
-2.84315e-10
-1.20257e-11
-2.69659e-10
-1.10666e-11
-2.54976e-10
-1.01245e-11
-2.40271e-10
-9.20083e-12
-2.25548e-10
-8.29887e-12
-2.10817e-10
-7.42097e-12
-1.9608e-10
-6.56706e-12
-1.81339e-10
-5.73724e-12
-1.66603e-10
-4.93507e-12
-1.51875e-10
-4.16036e-12
-1.37157e-10
-3.41395e-12
-1.22456e-10
-2.69642e-12
-1.07774e-10
-2.0078e-12
-9.31127e-11
-1.34925e-12
-7.84804e-11
-7.23649e-13
-6.38779e-11
-1.29231e-13
-4.93137e-11
4.32806e-13
-3.47955e-11
9.68608e-13
-2.03254e-11
1.50046e-12
-5.97089e-12
2.131e-12
8.14205e-12
3.25603e-12
2.15851e-11
6.09062e-12
3.3208e-11
1.3758e-11
4.03549e-11
3.25523e-11
3.82931e-11
7.03251e-11
2.24245e-11
1.2235e-10
1.26566e-10
-2.31472e-11
1.51456e-10
-3.90424e-11
1.40217e-10
-4.0685e-11
7.43741e-11
-3.30063e-11
2.78335e-11
-2.08695e-11
4.97956e-12
-6.96809e-12
-4.26359e-12
7.56647e-12
-7.66117e-12
2.23249e-11
-9.00563e-12
3.718e-11
-9.74182e-12
5.20925e-11
-1.03323e-11
6.70514e-11
-1.09056e-11
8.20487e-11
-1.14966e-11
9.70773e-11
-1.21145e-11
1.12135e-10
-1.2762e-11
1.27213e-10
-1.34423e-11
1.42309e-10
-1.41544e-11
1.57417e-10
-1.48987e-11
1.72536e-10
-1.56745e-11
1.87662e-10
-1.64811e-11
2.0279e-10
-1.7319e-11
2.17916e-10
-1.8186e-11
2.33037e-10
-1.90808e-11
2.4815e-10
-2.00016e-11
2.63247e-10
-2.09477e-11
2.78324e-10
-2.19154e-11
2.93377e-10
-2.29024e-11
3.08397e-10
-2.39065e-11
3.23378e-10
-2.49235e-11
3.38312e-10
-2.59494e-11
3.53192e-10
-2.69801e-11
3.68009e-10
-2.80107e-11
3.8275e-10
-2.90377e-11
3.97404e-10
-3.00541e-11
4.1196e-10
-3.10541e-11
4.26404e-10
-3.20319e-11
4.40722e-10
-3.29813e-11
4.54896e-10
-3.38958e-11
4.68909e-10
-3.47685e-11
4.82743e-10
-3.55922e-11
4.96378e-10
-3.63596e-11
5.09791e-10
-3.70633e-11
5.2296e-10
-3.7696e-11
5.3586e-10
-3.82505e-11
5.48466e-10
-3.87194e-11
5.6075e-10
-3.90953e-11
5.72684e-10
-3.93712e-11
5.84237e-10
-3.95402e-11
5.9538e-10
-3.95952e-11
6.0608e-10
-3.95296e-11
6.16305e-10
-3.93372e-11
6.26021e-10
-3.90125e-11
6.35195e-10
-3.85506e-11
6.43791e-10
-3.79471e-11
6.51775e-10
-3.71981e-11
6.59109e-10
-3.63e-11
6.65759e-10
-3.52493e-11
6.71685e-10
-3.40434e-11
6.76851e-10
-3.26807e-11
6.81218e-10
-3.11602e-11
6.8475e-10
-2.94824e-11
6.8741e-10
-2.7648e-11
6.89165e-10
-2.5659e-11
6.89983e-10
-2.35233e-11
6.89825e-10
-2.12312e-11
6.88667e-10
-1.88011e-11
6.86477e-10
-1.62322e-11
6.83228e-10
-1.35339e-11
6.78895e-10
-1.07113e-11
6.73459e-10
-7.77749e-12
6.66895e-10
-4.73144e-12
6.59186e-10
-1.59367e-12
6.50322e-10
1.63017e-12
6.4029e-10
4.92547e-12
6.29083e-10
8.28228e-12
6.16699e-10
1.16883e-11
6.03136e-10
1.51295e-11
5.88398e-10
1.85916e-11
5.72492e-10
2.20605e-11
5.55428e-10
2.55219e-11
5.37225e-10
2.89622e-11
5.179e-10
3.23656e-11
4.97477e-10
3.57173e-11
4.75984e-10
3.90023e-11
4.53454e-10
4.2206e-11
4.29921e-10
4.53139e-11
4.05425e-10
4.8312e-11
3.80012e-10
5.11859e-11
3.53727e-10
5.39218e-11
3.26621e-10
5.65069e-11
2.9875e-10
5.89292e-11
2.70169e-10
6.11767e-11
2.40941e-10
6.32388e-11
2.11129e-10
6.51057e-11
1.80798e-10
6.6768e-11
1.50016e-10
6.82176e-11
1.18855e-10
6.94477e-11
8.7386e-11
7.04519e-11
5.56805e-11
7.12252e-11
2.38131e-11
7.17642e-11
-8.14117e-12
7.20669e-11
-4.01073e-11
7.2132e-11
-7.20103e-11
7.19592e-11
-1.03775e-10
7.15494e-11
-1.35327e-10
7.09044e-11
-1.66594e-10
7.00272e-11
-1.97503e-10
6.89218e-11
-2.27984e-10
6.75941e-11
-2.57968e-10
6.60509e-11
-2.87389e-10
6.42993e-11
-3.16183e-10
6.23483e-11
-3.44288e-10
6.02072e-11
-3.71646e-10
5.78867e-11
-3.98202e-10
5.53976e-11
-4.23903e-10
5.27526e-11
-4.48701e-10
4.99642e-11
-4.72551e-10
4.70453e-11
-4.95412e-10
4.40095e-11
-5.17248e-10
4.08716e-11
-5.38025e-10
3.7646e-11
-5.57714e-10
3.43473e-11
-5.76291e-10
3.099e-11
-5.93732e-10
2.75897e-11
-6.10022e-10
2.41597e-11
-6.25149e-10
2.07144e-11
-6.39104e-10
1.72686e-11
-6.51881e-10
1.38364e-11
-6.6348e-10
1.04308e-11
-6.73904e-10
7.06527e-12
-6.83157e-10
3.75331e-12
-6.91249e-10
5.06386e-13
-6.98192e-10
-2.66563e-12
-7.04005e-10
-5.74783e-12
-7.08697e-10
-8.74261e-12
-7.12301e-10
-1.16164e-11
-7.14833e-10
-1.43803e-11
-7.1632e-10
-1.70219e-11
-7.16789e-10
-1.95349e-11
-7.16271e-10
-2.19112e-11
-7.14797e-10
-2.41468e-11
-7.12396e-10
-2.62425e-11
-7.09107e-10
-2.81867e-11
-7.04961e-10
-2.99838e-11
-6.99994e-10
-3.16315e-11
-6.94245e-10
-3.31274e-11
-6.87748e-10
-3.44729e-11
-6.80539e-10
-3.56691e-11
-6.72656e-10
-3.67184e-11
-6.64132e-10
-3.76238e-11
-6.55003e-10
-3.83885e-11
-6.45301e-10
-3.90154e-11
-6.3506e-10
-3.95085e-11
-6.24314e-10
-3.98725e-11
-6.13094e-10
-4.01124e-11
-6.01431e-10
-4.02341e-11
-5.89357e-10
-4.02434e-11
-5.76901e-10
-4.01471e-11
-5.64091e-10
-3.99512e-11
-5.50956e-10
-3.96624e-11
-5.3752e-10
-3.92872e-11
-5.23808e-10
-3.88322e-11
-5.09844e-10
-3.83044e-11
-4.9565e-10
-3.77103e-11
-4.81247e-10
-3.70564e-11
-4.66653e-10
-3.63495e-11
-4.51887e-10
-3.55965e-11
-4.36967e-10
-3.48038e-11
-4.21907e-10
-3.39773e-11
-4.06724e-10
-3.31229e-11
-3.9143e-10
-3.2246e-11
-3.76037e-10
-3.1352e-11
-3.60559e-10
-3.0446e-11
-3.45006e-10
-2.95327e-11
-3.29388e-10