/*--------------------------------*- C++ -*----------------------------------*\
| =========                 |                                                 |
| \\      /  F ield         | OpenFOAM: The Open Source CFD Toolbox           |
|  \\    /   O peration     | Version:  2412                                  |
|   \\  /    A nd           | Website:  www.openfoam.com                      |
|    \\/     M anipulation  |                                                 |
\*---------------------------------------------------------------------------*/
FoamFile
{
    version     2.0;
    format      ascii;
    arch        "LSB;label=32;scalar=64";
    class       volVectorField;
    location    "1.6";
    object      U;
}
// * * * * * * * * * * * * * * * * * * * * * * * * * * * * * * * * * * * * * //

dimensions      [0 1 -1 0 0 0 0];

internalField   nonuniform List<vector> 
40000
(
(-1.47205e-05 6.35092e-06 0)
(-4.69307e-05 1.07172e-05 0)
(-7.25351e-05 1.11311e-05 0)
(-9.59436e-05 1.08052e-05 0)
(-0.000117313 1.06865e-05 0)
(-0.000137864 1.06802e-05 0)
(-0.00015815 1.06884e-05 0)
(-0.000178324 1.06732e-05 0)
(-0.000198403 1.06283e-05 0)
(-0.000218372 1.05639e-05 0)
(-0.000238199 1.04875e-05 0)
(-0.00025785 1.04011e-05 0)
(-0.000277296 1.03018e-05 0)
(-0.000296517 1.01923e-05 0)
(-0.000315489 1.00686e-05 0)
(-0.000334194 9.93742e-06 0)
(-0.000352616 9.79597e-06 0)
(-0.00037073 9.64485e-06 0)
(-0.000388516 9.48376e-06 0)
(-0.000405958 9.31274e-06 0)
(-0.000423032 9.13265e-06 0)
(-0.000439718 8.94246e-06 0)
(-0.000456002 8.74222e-06 0)
(-0.000471864 8.53232e-06 0)
(-0.000487282 8.31264e-06 0)
(-0.000502238 8.08435e-06 0)
(-0.000516717 7.84623e-06 0)
(-0.000530698 7.59844e-06 0)
(-0.000544165 7.34168e-06 0)
(-0.000557101 7.07652e-06 0)
(-0.000569489 6.80199e-06 0)
(-0.000581313 6.51934e-06 0)
(-0.000592557 6.22817e-06 0)
(-0.000603206 5.92866e-06 0)
(-0.000613248 5.6231e-06 0)
(-0.000622665 5.30361e-06 0)
(-0.000631444 4.98338e-06 0)
(-0.000639578 4.65436e-06 0)
(-0.000647053 4.32e-06 0)
(-0.00065386 3.97917e-06 0)
(-0.000659989 3.62866e-06 0)
(-0.00066543 3.27794e-06 0)
(-0.00067018 2.91994e-06 0)
(-0.000674233 2.55881e-06 0)
(-0.000677584 2.19411e-06 0)
(-0.00068023 1.8249e-06 0)
(-0.000682163 1.4542e-06 0)
(-0.000683379 1.08032e-06 0)
(-0.00068388 7.0838e-07 0)
(-0.000683659 3.34582e-07 0)
(-0.000682729 -4.85432e-08 0)
(-0.000681101 -4.26887e-07 0)
(-0.000678771 -8.02548e-07 0)
(-0.000675745 -1.17954e-06 0)
(-0.00067204 -1.5546e-06 0)
(-0.00066765 -1.92455e-06 0)
(-0.000662585 -2.2943e-06 0)
(-0.000656863 -2.66417e-06 0)
(-0.000650486 -3.02677e-06 0)
(-0.000643468 -3.38565e-06 0)
(-0.00063582 -3.74385e-06 0)
(-0.000627555 -4.09272e-06 0)
(-0.000618687 -4.43698e-06 0)
(-0.00060923 -4.77435e-06 0)
(-0.000599207 -5.10222e-06 0)
(-0.000588618 -5.44251e-06 0)
(-0.000577481 -5.75561e-06 0)
(-0.000565824 -6.06609e-06 0)
(-0.00055366 -6.37151e-06 0)
(-0.000541003 -6.66564e-06 0)
(-0.000527871 -6.95371e-06 0)
(-0.000514284 -7.23417e-06 0)
(-0.000500258 -7.50476e-06 0)
(-0.000485812 -7.76641e-06 0)
(-0.000470963 -8.01944e-06 0)
(-0.000455729 -8.26243e-06 0)
(-0.00044013 -8.49666e-06 0)
(-0.000424181 -8.72433e-06 0)
(-0.000407899 -8.93782e-06 0)
(-0.000391304 -9.14233e-06 0)
(-0.000374414 -9.33818e-06 0)
(-0.000357244 -9.52488e-06 0)
(-0.000339812 -9.70021e-06 0)
(-0.000322135 -9.86493e-06 0)
(-0.000304228 -1.00199e-05 0)
(-0.000286109 -1.01658e-05 0)
(-0.000267792 -1.03025e-05 0)
(-0.000249293 -1.04275e-05 0)
(-0.000230628 -1.05427e-05 0)
(-0.000211811 -1.06477e-05 0)
(-0.000192859 -1.07436e-05 0)
(-0.000173784 -1.08292e-05 0)
(-0.000154602 -1.09039e-05 0)
(-0.000135327 -1.09692e-05 0)
(-0.000115973 -1.10262e-05 0)
(-9.65534e-05 -1.10717e-05 0)
(-7.70831e-05 -1.11079e-05 0)
(-5.75745e-05 -1.11344e-05 0)
(-3.80405e-05 -1.11509e-05 0)
(-1.84951e-05 -1.11574e-05 0)
(1.04854e-06 -1.11542e-05 0)
(2.05774e-05 -1.11414e-05 0)
(4.00783e-05 -1.11182e-05 0)
(5.95375e-05 -1.10854e-05 0)
(7.89419e-05 -1.10424e-05 0)
(9.82792e-05 -1.09903e-05 0)
(0.000117536 -1.09288e-05 0)
(0.000136698 -1.08553e-05 0)
(0.000155752 -1.07741e-05 0)
(0.000174685 -1.0682e-05 0)
(0.000193484 -1.05799e-05 0)
(0.000212133 -1.04705e-05 0)
(0.000230618 -1.03511e-05 0)
(0.000248925 -1.02176e-05 0)
(0.000267037 -1.00772e-05 0)
(0.000284944 -9.92853e-06 0)
(0.000302625 -9.76966e-06 0)
(0.000320066 -9.60123e-06 0)
(0.000337254 -9.42242e-06 0)
(0.000354174 -9.23355e-06 0)
(0.000370807 -9.03537e-06 0)
(0.000387138 -8.82841e-06 0)
(0.00040315 -8.61135e-06 0)
(0.000418828 -8.38517e-06 0)
(0.000434156 -8.15081e-06 0)
(0.000449117 -7.90668e-06 0)
(0.000463691 -7.65415e-06 0)
(0.000477865 -7.39353e-06 0)
(0.00049162 -7.11964e-06 0)
(0.000504938 -6.84146e-06 0)
(0.000517808 -6.5558e-06 0)
(0.000530206 -6.2638e-06 0)
(0.000542114 -5.96344e-06 0)
(0.000553525 -5.65296e-06 0)
(0.000564418 -5.33785e-06 0)
(0.000574779 -5.01812e-06 0)
(0.00058459 -4.68742e-06 0)
(0.000593839 -4.35534e-06 0)
(0.000602513 -4.01531e-06 0)
(0.000610597 -3.67232e-06 0)
(0.00061808 -3.32476e-06 0)
(0.00062495 -2.96945e-06 0)
(0.000631199 -2.61429e-06 0)
(0.00063681 -2.2562e-06 0)
(0.000641774 -1.8951e-06 0)
(0.000646091 -1.53063e-06 0)
(0.000649751 -1.16667e-06 0)
(0.000652748 -8.06436e-07 0)
(0.00065507 -4.23424e-07 0)
(0.00065671 -6.08853e-08 0)
(0.000657673 3.06613e-07 0)
(0.000657957 6.7552e-07 0)
(0.000657548 1.03466e-06 0)
(0.000656442 1.39435e-06 0)
(0.000654648 1.75372e-06 0)
(0.000652166 2.11463e-06 0)
(0.000649 2.46626e-06 0)
(0.000645161 2.81617e-06 0)
(0.00064065 3.1621e-06 0)
(0.000635472 3.50375e-06 0)
(0.000629637 3.842e-06 0)
(0.000623147 4.16704e-06 0)
(0.00061601 4.49353e-06 0)
(0.000608241 4.81219e-06 0)
(0.000599848 5.12472e-06 0)
(0.000590844 5.42955e-06 0)
(0.000581238 5.72476e-06 0)
(0.000571043 6.01555e-06 0)
(0.000560275 6.29724e-06 0)
(0.000548946 6.57312e-06 0)
(0.000537073 6.83593e-06 0)
(0.000524667 7.10011e-06 0)
(0.000511744 7.34621e-06 0)
(0.000498325 7.58841e-06 0)
(0.000484422 7.81868e-06 0)
(0.000470055 8.04163e-06 0)
(0.00045524 8.2551e-06 0)
(0.000439996 8.45813e-06 0)
(0.000424335 8.65971e-06 0)
(0.000408275 8.84467e-06 0)
(0.00039184 9.02132e-06 0)
(0.000375045 9.18698e-06 0)
(0.000357907 9.34339e-06 0)
(0.000340445 9.49732e-06 0)
(0.000322674 9.63747e-06 0)
(0.000304618 9.76798e-06 0)
(0.000286295 9.88846e-06 0)
(0.00026772 1.00039e-05 0)
(0.000248912 1.01054e-05 0)
(0.000229895 1.01978e-05 0)
(0.000210691 1.02794e-05 0)
(0.000191325 1.0348e-05 0)
(0.000171821 1.04016e-05 0)
(0.000152201 1.04404e-05 0)
(0.000132441 1.04759e-05 0)
(0.00011234 1.05602e-05 0)
(9.12178e-05 1.08229e-05 0)
(6.7535e-05 1.14583e-05 0)
(3.9799e-05 1.21532e-05 0)
(1.03832e-05 1.03693e-05 0)
(-1.38736e-05 3.46315e-05 0)
(-5.29445e-05 4.66021e-05 0)
(-8.14543e-05 4.07749e-05 0)
(-0.000101437 3.50252e-05 0)
(-0.000116202 3.21254e-05 0)
(-0.000128769 3.10134e-05 0)
(-0.000140525 3.06244e-05 0)
(-0.000151962 3.04317e-05 0)
(-0.000163225 3.02452e-05 0)
(-0.000174345 3.00216e-05 0)
(-0.000185324 2.9756e-05 0)
(-0.00019615 2.94595e-05 0)
(-0.000206798 2.91185e-05 0)
(-0.000217257 2.87473e-05 0)
(-0.0002275 2.83472e-05 0)
(-0.000237511 2.79107e-05 0)
(-0.000247292 2.74428e-05 0)
(-0.000256818 2.69443e-05 0)
(-0.000266075 2.6416e-05 0)
(-0.000275052 2.58564e-05 0)
(-0.000283728 2.52698e-05 0)
(-0.000292089 2.46525e-05 0)
(-0.00030013 2.40049e-05 0)
(-0.000307835 2.33307e-05 0)
(-0.000315186 2.2621e-05 0)
(-0.000322174 2.18906e-05 0)
(-0.000328789 2.11319e-05 0)
(-0.000335016 2.03431e-05 0)
(-0.000340844 1.95309e-05 0)
(-0.000346266 1.86923e-05 0)
(-0.00035127 1.78276e-05 0)
(-0.000355847 1.69408e-05 0)
(-0.00035999 1.60286e-05 0)
(-0.000363689 1.50969e-05 0)
(-0.000366949 1.41444e-05 0)
(-0.000369747 1.31731e-05 0)
(-0.000372077 1.21843e-05 0)
(-0.000373954 1.11779e-05 0)
(-0.000375366 1.01573e-05 0)
(-0.000376318 9.1229e-06 0)
(-0.000376799 8.07862e-06 0)
(-0.000376812 7.0229e-06 0)
(-0.000376369 5.95858e-06 0)
(-0.000375468 4.88771e-06 0)
(-0.00037412 3.81307e-06 0)
(-0.000372328 2.73895e-06 0)
(-0.000370089 1.67532e-06 0)
(-0.000367415 6.07032e-07 0)
(-0.000364327 -4.61976e-07 0)
(-0.000360847 -1.52732e-06 0)
(-0.000356964 -2.59431e-06 0)
(-0.000352702 -3.65319e-06 0)
(-0.000348077 -4.6971e-06 0)
(-0.000343099 -5.73206e-06 0)
(-0.000337798 -6.75339e-06 0)
(-0.000332175 -7.75404e-06 0)
(-0.00032625 -8.74495e-06 0)
(-0.000320046 -9.72005e-06 0)
(-0.000313572 -1.06754e-05 0)
(-0.000306859 -1.16112e-05 0)
(-0.000299912 -1.25262e-05 0)
(-0.000292755 -1.34183e-05 0)
(-0.000285411 -1.42859e-05 0)
(-0.000277894 -1.51303e-05 0)
(-0.000270261 -1.59499e-05 0)
(-0.000262472 -1.67421e-05 0)
(-0.000254546 -1.75083e-05 0)
(-0.000246564 -1.82494e-05 0)
(-0.000238505 -1.89632e-05 0)
(-0.000230389 -1.96478e-05 0)
(-0.000222239 -2.03057e-05 0)
(-0.000214067 -2.09356e-05 0)
(-0.000205891 -2.15401e-05 0)
(-0.000197729 -2.21151e-05 0)
(-0.000189589 -2.26637e-05 0)
(-0.000181487 -2.31838e-05 0)
(-0.000173443 -2.36779e-05 0)
(-0.000165454 -2.41453e-05 0)
(-0.000157529 -2.45852e-05 0)
(-0.000149689 -2.49992e-05 0)
(-0.000141938 -2.53885e-05 0)
(-0.000134276 -2.57526e-05 0)
(-0.000126709 -2.60924e-05 0)
(-0.000119246 -2.64087e-05 0)
(-0.000111886 -2.67008e-05 0)
(-0.000104631 -2.69699e-05 0)
(-9.7478e-05 -2.72151e-05 0)
(-9.04276e-05 -2.74424e-05 0)
(-8.34789e-05 -2.76482e-05 0)
(-7.66275e-05 -2.78316e-05 0)
(-6.98707e-05 -2.79984e-05 0)
(-6.32009e-05 -2.81443e-05 0)
(-5.66132e-05 -2.82709e-05 0)
(-5.01047e-05 -2.83792e-05 0)
(-4.36638e-05 -2.84711e-05 0)
(-3.72823e-05 -2.85417e-05 0)
(-3.0956e-05 -2.85961e-05 0)
(-2.46725e-05 -2.8637e-05 0)
(-1.84224e-05 -2.86592e-05 0)
(-1.21978e-05 -2.86635e-05 0)
(-5.98892e-06 -2.86505e-05 0)
(2.14834e-07 -2.86207e-05 0)
(6.42279e-06 -2.85735e-05 0)
(1.26436e-05 -2.85082e-05 0)
(1.88865e-05 -2.84245e-05 0)
(2.5162e-05 -2.83277e-05 0)
(3.14815e-05 -2.82141e-05 0)
(3.78467e-05 -2.80782e-05 0)
(4.4269e-05 -2.79275e-05 0)
(5.07605e-05 -2.77563e-05 0)
(5.73212e-05 -2.75689e-05 0)
(6.39569e-05 -2.73608e-05 0)
(7.068e-05 -2.71366e-05 0)
(7.74854e-05 -2.68905e-05 0)
(8.4374e-05 -2.66213e-05 0)
(9.13601e-05 -2.63356e-05 0)
(9.84341e-05 -2.60322e-05 0)
(0.000105596 -2.57042e-05 0)
(0.000112853 -2.53528e-05 0)
(0.000120197 -2.49778e-05 0)
(0.000127624 -2.45797e-05 0)
(0.00013513 -2.41568e-05 0)
(0.00014271 -2.37088e-05 0)
(0.000150354 -2.32377e-05 0)
(0.00015806 -2.27413e-05 0)
(0.000165815 -2.22191e-05 0)
(0.000173603 -2.16725e-05 0)
(0.000181426 -2.10987e-05 0)
(0.000189256 -2.04992e-05 0)
(0.00019708 -1.98721e-05 0)
(0.000204902 -1.92195e-05 0)
(0.000212686 -1.85472e-05 0)
(0.00022042 -1.78456e-05 0)
(0.000228097 -1.71176e-05 0)
(0.000235689 -1.63648e-05 0)
(0.000243191 -1.55886e-05 0)
(0.00025057 -1.47887e-05 0)
(0.000257811 -1.39649e-05 0)
(0.000264904 -1.31182e-05 0)
(0.000271823 -1.22502e-05 0)
(0.000278556 -1.1361e-05 0)
(0.000285077 -1.04507e-05 0)
(0.000291377 -9.52281e-06 0)
(0.00029743 -8.5828e-06 0)
(0.000303215 -7.62248e-06 0)
(0.000308731 -6.64823e-06 0)
(0.000313952 -5.66234e-06 0)
(0.000318896 -4.66429e-06 0)
(0.000323493 -3.65237e-06 0)
(0.000327726 -2.6324e-06 0)
(0.000331636 -1.60473e-06 0)
(0.000335172 -5.71675e-07 0)
(0.00033834 4.57013e-07 0)
(0.000341123 1.4846e-06 0)
(0.000343508 2.51042e-06 0)
(0.000345472 3.53917e-06 0)
(0.000347012 4.57165e-06 0)
(0.000348143 5.60172e-06 0)
(0.000348845 6.62494e-06 0)
(0.000349118 7.64137e-06 0)
(0.000348955 8.64686e-06 0)
(0.000348355 9.63601e-06 0)
(0.000347319 1.06198e-05 0)
(0.000345844 1.15887e-05 0)
(0.000343937 1.25418e-05 0)
(0.000341597 1.34769e-05 0)
(0.00033883 1.43933e-05 0)
(0.000335637 1.52925e-05 0)
(0.000332026 1.61726e-05 0)
(0.000327999 1.70302e-05 0)
(0.000323577 1.78654e-05 0)
(0.000318749 1.86758e-05 0)
(0.000313523 1.94645e-05 0)
(0.000307928 2.02304e-05 0)
(0.000301957 2.09701e-05 0)
(0.00029563 2.16837e-05 0)
(0.000288952 2.23712e-05 0)
(0.000281947 2.30341e-05 0)
(0.000274602 2.3666e-05 0)
(0.000266931 2.42696e-05 0)
(0.000258969 2.48491e-05 0)
(0.000250715 2.53968e-05 0)
(0.000242191 2.5917e-05 0)
(0.000233394 2.64116e-05 0)
(0.000224332 2.68775e-05 0)
(0.000215038 2.7316e-05 0)
(0.000205526 2.77245e-05 0)
(0.000195794 2.81061e-05 0)
(0.000185856 2.8455e-05 0)
(0.00017574 2.87713e-05 0)
(0.000165459 2.90555e-05 0)
(0.000155025 2.93012e-05 0)
(0.000144449 2.95156e-05 0)
(0.000133705 2.97537e-05 0)
(0.000122649 3.02186e-05 0)
(0.000110766 3.14892e-05 0)
(9.66263e-05 3.47436e-05 0)
(7.7205e-05 4.12649e-05 0)
(4.90996e-05 4.86589e-05 0)
(1.22261e-05 3.98207e-05 0)
(-1.25041e-05 6.66851e-05 0)
(-4.52655e-05 7.66405e-05 0)
(-6.39423e-05 5.89663e-05 0)
(-7.22032e-05 4.47055e-05 0)
(-7.42333e-05 3.75245e-05 0)
(-7.35994e-05 3.4622e-05 0)
(-7.19593e-05 3.35462e-05 0)
(-6.99418e-05 3.30739e-05 0)
(-6.77491e-05 3.27457e-05 0)
(-6.54416e-05 3.24107e-05 0)
(-6.30317e-05 3.20345e-05 0)
(-6.05345e-05 3.16142e-05 0)
(-5.79396e-05 3.11508e-05 0)
(-5.52311e-05 3.06427e-05 0)
(-5.24206e-05 3.01018e-05 0)
(-4.94993e-05 2.95123e-05 0)
(-4.64622e-05 2.88825e-05 0)
(-4.33026e-05 2.82157e-05 0)
(-4.00172e-05 2.75096e-05 0)
(-3.66021e-05 2.67647e-05 0)
(-3.30479e-05 2.59863e-05 0)
(-2.93533e-05 2.51692e-05 0)
(-2.55159e-05 2.43173e-05 0)
(-2.15391e-05 2.34277e-05 0)
(-1.74051e-05 2.25027e-05 0)
(-1.31111e-05 2.15452e-05 0)
(-8.67417e-06 2.05545e-05 0)
(-4.07601e-06 1.95328e-05 0)
(6.81982e-07 1.84813e-05 0)
(5.5929e-06 1.74009e-05 0)
(1.06634e-05 1.62954e-05 0)
(1.5889e-05 1.51579e-05 0)
(2.12695e-05 1.39989e-05 0)
(2.68024e-05 1.28166e-05 0)
(3.2478e-05 1.16137e-05 0)
(3.82992e-05 1.04039e-05 0)
(4.42592e-05 9.16945e-06 0)
(5.03452e-05 7.9241e-06 0)
(5.65529e-05 6.66895e-06 0)
(6.2872e-05 5.40583e-06 0)
(6.92913e-05 4.14372e-06 0)
(7.57993e-05 2.87424e-06 0)
(8.23822e-05 1.60926e-06 0)
(8.90264e-05 3.48172e-07 0)
(9.57163e-05 -9.04726e-07 0)
(0.000102441 -2.14078e-06 0)
(0.000109173 -3.35843e-06 0)
(0.000115888 -4.56251e-06 0)
(0.000122576 -5.75314e-06 0)
(0.000129216 -6.92045e-06 0)
(0.000135788 -8.06252e-06 0)
(0.000142267 -9.18246e-06 0)
(0.00014863 -1.0267e-05 0)
(0.000154853 -1.13206e-05 0)
(0.000160907 -1.23391e-05 0)
(0.000166769 -1.33172e-05 0)
(0.000172416 -1.42656e-05 0)
(0.000177819 -1.51744e-05 0)
(0.000182956 -1.60458e-05 0)
(0.0001878 -1.68767e-05 0)
(0.000192328 -1.76604e-05 0)
(0.000196515 -1.84041e-05 0)
(0.000200336 -1.91016e-05 0)
(0.000203767 -1.9757e-05 0)
(0.000206777 -2.03692e-05 0)
(0.000209362 -2.09083e-05 0)
(0.000211499 -2.14304e-05 0)
(0.000213153 -2.19045e-05 0)
(0.000214316 -2.23304e-05 0)
(0.000214969 -2.27159e-05 0)
(0.000215097 -2.30595e-05 0)
(0.000214685 -2.3363e-05 0)
(0.000213724 -2.36278e-05 0)
(0.000212204 -2.38551e-05 0)
(0.000210118 -2.40428e-05 0)
(0.00020746 -2.42007e-05 0)
(0.000204222 -2.43247e-05 0)
(0.000200411 -2.44138e-05 0)
(0.000196028 -2.44814e-05 0)
(0.000191072 -2.45224e-05 0)
(0.000185549 -2.45405e-05 0)
(0.00017947 -2.45365e-05 0)
(0.000172845 -2.45152e-05 0)
(0.000165687 -2.44781e-05 0)
(0.000158014 -2.44272e-05 0)
(0.000149842 -2.43654e-05 0)
(0.000141187 -2.42951e-05 0)
(0.000132073 -2.42162e-05 0)
(0.000122533 -2.41309e-05 0)
(0.000112582 -2.40469e-05 0)
(0.000102251 -2.39584e-05 0)
(9.15742e-05 -2.38722e-05 0)
(8.0578e-05 -2.379e-05 0)
(6.92937e-05 -2.37138e-05 0)
(5.77607e-05 -2.36382e-05 0)
(4.60115e-05 -2.35742e-05 0)
(3.40732e-05 -2.35159e-05 0)
(2.19941e-05 -2.34615e-05 0)
(9.81387e-06 -2.34174e-05 0)
(-2.43604e-06 -2.33838e-05 0)
(-1.47166e-05 -2.336e-05 0)
(-2.69895e-05 -2.33459e-05 0)
(-3.92151e-05 -2.33421e-05 0)
(-5.1356e-05 -2.33482e-05 0)
(-6.33804e-05 -2.3364e-05 0)
(-7.52465e-05 -2.33827e-05 0)
(-8.69079e-05 -2.34094e-05 0)
(-9.83421e-05 -2.34468e-05 0)
(-0.000109512 -2.34821e-05 0)
(-0.00012038 -2.35251e-05 0)
(-0.000130917 -2.35702e-05 0)
(-0.000141094 -2.3618e-05 0)
(-0.000150882 -2.36604e-05 0)
(-0.000160247 -2.37076e-05 0)
(-0.000169177 -2.37488e-05 0)
(-0.000177645 -2.37806e-05 0)
(-0.000185624 -2.38042e-05 0)
(-0.000193097 -2.38151e-05 0)
(-0.000200048 -2.38137e-05 0)
(-0.000206463 -2.3798e-05 0)
(-0.00021233 -2.37658e-05 0)
(-0.000217639 -2.37108e-05 0)
(-0.000222386 -2.36341e-05 0)
(-0.000226563 -2.35291e-05 0)
(-0.000230162 -2.33972e-05 0)
(-0.000233189 -2.32392e-05 0)
(-0.000235646 -2.30478e-05 0)
(-0.000237532 -2.28237e-05 0)
(-0.000238858 -2.25703e-05 0)
(-0.000239631 -2.22752e-05 0)
(-0.00023986 -2.19452e-05 0)
(-0.000239562 -2.1581e-05 0)
(-0.000238746 -2.11707e-05 0)
(-0.000237425 -2.07217e-05 0)
(-0.00023562 -2.02307e-05 0)
(-0.000233349 -1.96974e-05 0)
(-0.000230631 -1.91281e-05 0)
(-0.000227487 -1.851e-05 0)
(-0.000223937 -1.7852e-05 0)
(-0.000220004 -1.71505e-05 0)
(-0.000215709 -1.64073e-05 0)
(-0.000211079 -1.56259e-05 0)
(-0.000206134 -1.48024e-05 0)
(-0.000200901 -1.39493e-05 0)
(-0.000195406 -1.30544e-05 0)
(-0.000189666 -1.2127e-05 0)
(-0.000183709 -1.11663e-05 0)
(-0.00017755 -1.01684e-05 0)
(-0.000171233 -9.16531e-06 0)
(-0.00016478 -8.10465e-06 0)
(-0.000158197 -7.02384e-06 0)
(-0.000151517 -5.92162e-06 0)
(-0.00014476 -4.79793e-06 0)
(-0.000137946 -3.66164e-06 0)
(-0.000131088 -2.51153e-06 0)
(-0.000124205 -1.35289e-06 0)
(-0.000117325 -1.70694e-07 0)
(-0.000110462 1.01904e-06 0)
(-0.000103629 2.21347e-06 0)
(-9.68412e-05 3.41176e-06 0)
(-9.01127e-05 4.60665e-06 0)
(-8.34528e-05 5.80288e-06 0)
(-7.68757e-05 6.98769e-06 0)
(-7.03937e-05 8.16859e-06 0)
(-6.40121e-05 9.33711e-06 0)
(-5.77379e-05 1.04949e-05 0)
(-5.1579e-05 1.16353e-05 0)
(-4.5543e-05 1.27576e-05 0)
(-3.96347e-05 1.38606e-05 0)
(-3.38604e-05 1.49412e-05 0)
(-2.82185e-05 1.60056e-05 0)
(-2.27153e-05 1.70343e-05 0)
(-1.735e-05 1.80502e-05 0)
(-1.21237e-05 1.90318e-05 0)
(-7.04087e-06 1.99891e-05 0)
(-2.09509e-06 2.09152e-05 0)
(2.71585e-06 2.18085e-05 0)
(7.38739e-06 2.26708e-05 0)
(1.19145e-05 2.349e-05 0)
(1.63112e-05 2.42891e-05 0)
(2.05794e-05 2.5051e-05 0)
(2.47147e-05 2.57783e-05 0)
(2.87302e-05 2.64737e-05 0)
(3.26197e-05 2.71269e-05 0)
(3.63858e-05 2.77544e-05 0)
(4.00395e-05 2.83463e-05 0)
(4.3586e-05 2.89036e-05 0)
(4.70215e-05 2.94178e-05 0)
(5.03468e-05 2.98996e-05 0)
(5.35804e-05 3.03424e-05 0)
(5.67208e-05 3.07409e-05 0)
(5.9764e-05 3.11013e-05 0)
(6.2704e-05 3.14546e-05 0)
(6.54826e-05 3.19494e-05 0)
(6.78953e-05 3.30761e-05 0)
(6.93004e-05 3.61165e-05 0)
(6.80378e-05 4.36541e-05 0)
(6.05722e-05 5.85902e-05 0)
(4.26502e-05 7.71504e-05 0)
(1.16229e-05 6.80183e-05 0)
(-1.17903e-05 9.28636e-05 0)
(-3.91691e-05 9.86192e-05 0)
(-5.06777e-05 6.78775e-05 0)
(-5.11661e-05 4.45723e-05 0)
(-4.52538e-05 3.29219e-05 0)
(-3.66312e-05 2.81684e-05 0)
(-2.6995e-05 2.63817e-05 0)
(-1.6984e-05 2.56263e-05 0)
(-6.81147e-06 2.51593e-05 0)
(3.45447e-06 2.47346e-05 0)
(1.37944e-05 2.42879e-05 0)
(2.41942e-05 2.37976e-05 0)
(3.46493e-05 2.3273e-05 0)
(4.51601e-05 2.27009e-05 0)
(5.57213e-05 2.20848e-05 0)
(6.63302e-05 2.14273e-05 0)
(7.69877e-05 2.07285e-05 0)
(8.76919e-05 1.99905e-05 0)
(9.84398e-05 1.9211e-05 0)
(0.000109234 1.83972e-05 0)
(0.000120075 1.75451e-05 0)
(0.000130962 1.66536e-05 0)
(0.000141884 1.57253e-05 0)
(0.000152842 1.47631e-05 0)
(0.000163844 1.37737e-05 0)
(0.000174881 1.27432e-05 0)
(0.000185944 1.16845e-05 0)
(0.000197037 1.05996e-05 0)
(0.000208153 9.48334e-06 0)
(0.000219286 8.34292e-06 0)
(0.000230422 7.17956e-06 0)
(0.000241562 5.99796e-06 0)
(0.000252702 4.79954e-06 0)
(0.000263826 3.58382e-06 0)
(0.000274929 2.35737e-06 0)
(0.000285997 1.12602e-06 0)
(0.000297019 -1.12297e-07 0)
(0.000307981 -1.3505e-06 0)
(0.000318868 -2.58503e-06 0)
(0.000329663 -3.81285e-06 0)
(0.000340353 -5.02933e-06 0)
(0.000350919 -6.23025e-06 0)
(0.000361339 -7.41088e-06 0)
(0.000371593 -8.5671e-06 0)
(0.000381659 -9.69519e-06 0)
(0.000391516 -1.07907e-05 0)
(0.000401137 -1.18567e-05 0)
(0.000410493 -1.28796e-05 0)
(0.000419561 -1.38574e-05 0)
(0.000428316 -1.47858e-05 0)
(0.000436729 -1.56618e-05 0)
(0.000444771 -1.64835e-05 0)
(0.000452413 -1.72449e-05 0)
(0.000459627 -1.79453e-05 0)
(0.000466381 -1.85824e-05 0)
(0.000472645 -1.91546e-05 0)
(0.000478386 -1.96646e-05 0)
(0.000483573 -2.01087e-05 0)
(0.000488173 -2.04856e-05 0)
(0.000492154 -2.07934e-05 0)
(0.000495489 -2.10295e-05 0)
(0.000498145 -2.11966e-05 0)
(0.000500094 -2.12923e-05 0)
(0.00050131 -2.13172e-05 0)
(0.000501764 -2.12719e-05 0)
(0.000501431 -2.1152e-05 0)
(0.000500294 -2.09727e-05 0)
(0.000498323 -2.07283e-05 0)
(0.000495501 -2.04215e-05 0)
(0.000491809 -2.00568e-05 0)
(0.000487232 -1.96372e-05 0)
(0.00048176 -1.91652e-05 0)
(0.00047538 -1.86422e-05 0)
(0.000468086 -1.8078e-05 0)
(0.000459871 -1.74738e-05 0)
(0.000450731 -1.6836e-05 0)
(0.00044067 -1.61653e-05 0)
(0.00042969 -1.54665e-05 0)
(0.000417802 -1.47475e-05 0)
(0.000405014 -1.40162e-05 0)
(0.000391337 -1.32731e-05 0)
(0.000376793 -1.25244e-05 0)
(0.0003614 -1.17756e-05 0)
(0.00034518 -1.10316e-05 0)
(0.00032816 -1.02987e-05 0)
(0.000310369 -9.58215e-06 0)
(0.000291847 -8.88796e-06 0)
(0.000272626 -8.21439e-06 0)
(0.000252737 -7.57009e-06 0)
(0.000232229 -6.96363e-06 0)
(0.000211145 -6.39164e-06 0)
(0.000189528 -5.86363e-06 0)
(0.000167428 -5.38171e-06 0)
(0.000144899 -4.94999e-06 0)
(0.000121989 -4.56708e-06 0)
(9.8751e-05 -4.24303e-06 0)
(7.52495e-05 -3.97301e-06 0)
(5.15316e-05 -3.75515e-06 0)
(2.76521e-05 -3.59787e-06 0)
(3.6744e-06 -3.50179e-06 0)
(-2.03423e-05 -3.46664e-06 0)
(-4.43421e-05 -3.49222e-06 0)
(-6.82662e-05 -3.57861e-06 0)
(-9.20567e-05 -3.72576e-06 0)
(-0.000115651 -3.9324e-06 0)
(-0.000138995 -4.19e-06 0)
(-0.000162043 -4.50269e-06 0)
(-0.000184727 -4.87326e-06 0)
(-0.000207 -5.289e-06 0)
(-0.000228812 -5.75543e-06 0)
(-0.000250112 -6.26432e-06 0)
(-0.000270852 -6.81828e-06 0)
(-0.000290988 -7.40416e-06 0)
(-0.000310485 -8.02684e-06 0)
(-0.000329292 -8.68092e-06 0)
(-0.000347372 -9.3548e-06 0)
(-0.000364702 -1.00457e-05 0)
(-0.000381249 -1.07509e-05 0)
(-0.000396981 -1.14659e-05 0)
(-0.000411873 -1.21861e-05 0)
(-0.000425903 -1.29041e-05 0)
(-0.000439054 -1.36185e-05 0)
(-0.00045131 -1.43204e-05 0)
(-0.00046266 -1.50017e-05 0)
(-0.000473098 -1.56614e-05 0)
(-0.000482615 -1.62979e-05 0)
(-0.00049121 -1.69009e-05 0)
(-0.000498884 -1.74691e-05 0)
(-0.00050564 -1.79985e-05 0)
(-0.000511486 -1.84855e-05 0)
(-0.000516429 -1.89258e-05 0)
(-0.00052048 -1.93149e-05 0)
(-0.000523656 -1.96466e-05 0)
(-0.000525972 -1.99241e-05 0)
(-0.000527448 -2.01421e-05 0)
(-0.000528101 -2.02982e-05 0)
(-0.000527956 -2.0391e-05 0)
(-0.000527035 -2.04166e-05 0)
(-0.000525363 -2.03778e-05 0)
(-0.000522968 -2.02711e-05 0)
(-0.000519875 -2.00967e-05 0)
(-0.000516113 -1.98569e-05 0)
(-0.000511714 -1.95507e-05 0)
(-0.000506705 -1.91822e-05 0)
(-0.000501119 -1.875e-05 0)
(-0.000494986 -1.82572e-05 0)
(-0.000488336 -1.77042e-05 0)
(-0.000481199 -1.70906e-05 0)
(-0.000473608 -1.64251e-05 0)
(-0.000465591 -1.5695e-05 0)
(-0.000457174 -1.49119e-05 0)
(-0.000448385 -1.40788e-05 0)
(-0.000439251 -1.31986e-05 0)
(-0.0004298 -1.22751e-05 0)
(-0.000420055 -1.13097e-05 0)
(-0.000410043 -1.03137e-05 0)
(-0.000399789 -9.28699e-06 0)
(-0.000389318 -8.23242e-06 0)
(-0.00037865 -7.15298e-06 0)
(-0.000367805 -6.05262e-06 0)
(-0.000356804 -4.93548e-06 0)
(-0.000345669 -3.80384e-06 0)
(-0.000334416 -2.66645e-06 0)
(-0.000323057 -1.52143e-06 0)
(-0.000311608 -3.74407e-07 0)
(-0.000300087 7.72913e-07 0)
(-0.000288507 1.91308e-06 0)
(-0.000276878 3.04558e-06 0)
(-0.00026521 4.16566e-06 0)
(-0.000253513 5.27348e-06 0)
(-0.000241796 6.36695e-06 0)
(-0.000230072 7.44099e-06 0)
(-0.000218349 8.4975e-06 0)
(-0.000206628 9.52838e-06 0)
(-0.000194915 1.05365e-05 0)
(-0.00018322 1.15189e-05 0)
(-0.000171543 1.24707e-05 0)
(-0.000159886 1.33891e-05 0)
(-0.000148259 1.42767e-05 0)
(-0.000136668 1.51366e-05 0)
(-0.00012511 1.59598e-05 0)
(-0.000113585 1.67529e-05 0)
(-0.000102098 1.75137e-05 0)
(-9.06532e-05 1.82367e-05 0)
(-7.92534e-05 1.893e-05 0)
(-6.78969e-05 1.95875e-05 0)
(-5.65834e-05 2.021e-05 0)
(-4.53192e-05 2.07914e-05 0)
(-3.41045e-05 2.13382e-05 0)
(-2.29417e-05 2.18474e-05 0)
(-1.18319e-05 2.2313e-05 0)
(-7.8223e-07 2.27492e-05 0)
(1.01852e-05 2.32254e-05 0)
(2.10061e-05 2.3982e-05 0)
(3.14519e-05 2.58064e-05 0)
(4.08743e-05 3.07215e-05 0)
(4.75917e-05 4.27757e-05 0)
(4.79217e-05 6.67255e-05 0)
(3.72269e-05 9.81045e-05 0)
(1.11285e-05 9.27652e-05 0)
(-1.15289e-05 0.000116769 0)
(-3.6518e-05 0.000116289 0)
(-4.46862e-05 7.17511e-05 0)
(-4.15754e-05 3.92037e-05 0)
(-3.20722e-05 2.30563e-05 0)
(-1.993e-05 1.64822e-05 0)
(-6.80471e-06 1.40235e-05 0)
(6.6717e-06 1.30129e-05 0)
(2.02856e-05 1.24226e-05 0)
(3.39775e-05 1.1924e-05 0)
(4.77311e-05 1.14206e-05 0)
(6.15323e-05 1.08863e-05 0)
(7.53733e-05 1.03171e-05 0)
(8.92501e-05 9.70888e-06 0)
(0.000103157 9.06147e-06 0)
(0.000117089 8.3752e-06 0)
(0.000131044 7.65106e-06 0)
(0.000145017 6.88842e-06 0)
(0.000159009 6.08911e-06 0)
(0.000173014 5.25628e-06 0)
(0.000187026 4.38771e-06 0)
(0.000201045 3.4837e-06 0)
(0.000215069 2.54456e-06 0)
(0.000229091 1.57856e-06 0)
(0.000243105 5.84448e-07 0)
(0.000257112 -4.40813e-07 0)
(0.000271102 -1.49014e-06 0)
(0.000285067 -2.56272e-06 0)
(0.000299004 -3.65761e-06 0)
(0.000312902 -4.77101e-06 0)
(0.000326759 -5.90113e-06 0)
(0.00034056 -7.03506e-06 0)
(0.000354293 -8.17946e-06 0)
(0.00036795 -9.32523e-06 0)
(0.00038152 -1.04707e-05 0)
(0.000394988 -1.16102e-05 0)
(0.000408339 -1.27392e-05 0)
(0.000421558 -1.3853e-05 0)
(0.000434626 -1.49462e-05 0)
(0.000447525 -1.60135e-05 0)
(0.000460236 -1.70481e-05 0)
(0.000472738 -1.80471e-05 0)
(0.000485007 -1.90044e-05 0)
(0.000497021 -1.99143e-05 0)
(0.000508752 -2.07718e-05 0)
(0.000520176 -2.15717e-05 0)
(0.000531264 -2.23104e-05 0)
(0.000541987 -2.29806e-05 0)
(0.000552315 -2.35771e-05 0)
(0.000562219 -2.40952e-05 0)
(0.000571667 -2.45309e-05 0)
(0.000580627 -2.48805e-05 0)
(0.000589067 -2.51398e-05 0)
(0.000596955 -2.5306e-05 0)
(0.000604256 -2.53762e-05 0)
(0.000610939 -2.53482e-05 0)
(0.000616965 -2.52216e-05 0)
(0.0006223 -2.49948e-05 0)
(0.000626907 -2.46663e-05 0)
(0.00063075 -2.42349e-05 0)
(0.000633795 -2.37001e-05 0)
(0.000636009 -2.30641e-05 0)
(0.000637362 -2.23263e-05 0)
(0.000637821 -2.14876e-05 0)
(0.000637354 -2.0553e-05 0)
(0.000635937 -1.9522e-05 0)
(0.000633544 -1.84015e-05 0)
(0.00063015 -1.71955e-05 0)
(0.00062573 -1.59082e-05 0)
(0.000620267 -1.45433e-05 0)
(0.000613745 -1.31073e-05 0)
(0.000606149 -1.16073e-05 0)
(0.000597465 -1.00506e-05 0)
(0.000587686 -8.44344e-06 0)
(0.000576809 -6.79713e-06 0)
(0.000564834 -5.11379e-06 0)
(0.00055176 -3.40352e-06 0)
(0.000537594 -1.67401e-06 0)
(0.000522341 6.73263e-08 0)
(0.000506017 1.80778e-06 0)
(0.000488641 3.54218e-06 0)
(0.000470231 5.26055e-06 0)
(0.000450811 6.95364e-06 0)
(0.00043041 8.61294e-06 0)
(0.000409058 1.02302e-05 0)
(0.000386792 1.17977e-05 0)
(0.000363653 1.33077e-05 0)
(0.000339681 1.47474e-05 0)
(0.000314922 1.61116e-05 0)
(0.000289425 1.73965e-05 0)
(0.000263243 1.85893e-05 0)
(0.00023643 1.96875e-05 0)
(0.000209045 2.06847e-05 0)
(0.000181148 2.1576e-05 0)
(0.0001528 2.23534e-05 0)
(0.000124066 2.3018e-05 0)
(9.50139e-05 2.35628e-05 0)
(6.57081e-05 2.39823e-05 0)
(3.62157e-05 2.42793e-05 0)
(6.60691e-06 2.44519e-05 0)
(-2.30473e-05 2.44987e-05 0)
(-5.2679e-05 2.44193e-05 0)
(-8.22178e-05 2.42145e-05 0)
(-0.000111595 2.38859e-05 0)
(-0.00014074 2.34355e-05 0)
(-0.000169586 2.28613e-05 0)
(-0.000198071 2.21703e-05 0)
(-0.000226127 2.13687e-05 0)
(-0.00025369 2.04543e-05 0)
(-0.000280702 1.94381e-05 0)
(-0.000307104 1.83217e-05 0)
(-0.000332838 1.71148e-05 0)
(-0.000357853 1.5818e-05 0)
(-0.0003821 1.44441e-05 0)
(-0.00040553 1.30009e-05 0)
(-0.000428097 1.14913e-05 0)
(-0.000449766 9.9239e-06 0)
(-0.000470499 8.31115e-06 0)
(-0.000490262 6.661e-06 0)
(-0.000509025 4.9813e-06 0)
(-0.000526765 3.28209e-06 0)
(-0.000543458 1.56838e-06 0)
(-0.000559082 -1.47904e-07 0)
(-0.000573628 -1.86097e-06 0)
(-0.000587087 -3.55973e-06 0)
(-0.000599449 -5.23715e-06 0)
(-0.00061071 -6.88596e-06 0)
(-0.000620872 -8.49681e-06 0)
(-0.000629938 -1.00652e-05 0)
(-0.000637916 -1.15819e-05 0)
(-0.000644813 -1.30398e-05 0)
(-0.000650644 -1.44348e-05 0)
(-0.000655425 -1.57604e-05 0)
(-0.000659173 -1.70095e-05 0)
(-0.000661908 -1.81785e-05 0)
(-0.000663652 -1.92629e-05 0)
(-0.000664431 -2.02591e-05 0)
(-0.000664274 -2.11625e-05 0)
(-0.000663206 -2.19729e-05 0)
(-0.000661255 -2.26871e-05 0)
(-0.000658456 -2.33034e-05 0)
(-0.000654839 -2.38228e-05 0)
(-0.000650437 -2.42442e-05 0)
(-0.000645285 -2.4569e-05 0)
(-0.000639418 -2.4798e-05 0)
(-0.000632871 -2.49322e-05 0)
(-0.000625678 -2.49728e-05 0)
(-0.000617872 -2.49215e-05 0)
(-0.000609487 -2.47819e-05 0)
(-0.000600553 -2.45535e-05 0)
(-0.000591103 -2.42411e-05 0)
(-0.000581167 -2.38486e-05 0)
(-0.000570775 -2.33799e-05 0)
(-0.000559958 -2.28396e-05 0)
(-0.000548746 -2.22319e-05 0)
(-0.000537165 -2.15633e-05 0)
(-0.000525246 -2.08381e-05 0)
(-0.000513015 -2.00606e-05 0)
(-0.000500496 -1.92352e-05 0)
(-0.000487713 -1.8367e-05 0)
(-0.00047469 -1.74615e-05 0)
(-0.00046145 -1.6524e-05 0)
(-0.000448011 -1.55555e-05 0)
(-0.000434392 -1.4564e-05 0)
(-0.000420611 -1.35533e-05 0)
(-0.000406685 -1.253e-05 0)
(-0.000392632 -1.14956e-05 0)
(-0.000378464 -1.04555e-05 0)
(-0.000364194 -9.41235e-06 0)
(-0.000349836 -8.37253e-06 0)
(-0.000335402 -7.33826e-06 0)
(-0.000320901 -6.31496e-06 0)
(-0.000306345 -5.30037e-06 0)
(-0.000291742 -4.29954e-06 0)
(-0.000277098 -3.3165e-06 0)
(-0.000262423 -2.35377e-06 0)
(-0.000247723 -1.41225e-06 0)
(-0.000233004 -4.96681e-07 0)
(-0.000218271 3.90609e-07 0)
(-0.000203532 1.25009e-06 0)
(-0.000188788 2.08418e-06 0)
(-0.000174044 2.88973e-06 0)
(-0.000159307 3.66456e-06 0)
(-0.000144579 4.40836e-06 0)
(-0.000129865 5.12141e-06 0)
(-0.000115168 5.80464e-06 0)
(-0.000100491 6.45408e-06 0)
(-8.58393e-05 7.06901e-06 0)
(-7.12167e-05 7.65016e-06 0)
(-5.6628e-05 8.19561e-06 0)
(-4.20804e-05 8.70989e-06 0)
(-2.7577e-05 9.21032e-06 0)
(-1.31446e-05 9.79344e-06 0)
(1.14622e-06 1.08007e-05 0)
(1.50856e-05 1.33036e-05 0)
(2.80333e-05 2.00708e-05 0)
(3.83286e-05 3.6635e-05 0)
(4.22353e-05 6.97802e-05 0)
(3.48937e-05 0.000114797 0)
(1.10077e-05 0.000115519 0)
(-1.14977e-05 0.000139933 0)
(-3.5803e-05 0.000132376 0)
(-4.28194e-05 7.3697e-05 0)
(-3.83943e-05 3.18463e-05 0)
(-2.75605e-05 1.12261e-05 0)
(-1.41258e-05 2.87234e-06 0)
(2.47468e-07 -2.15667e-07 0)
(1.49465e-05 -1.45491e-06 0)
(2.97702e-05 -2.14806e-06 0)