/*--------------------------------*- C++ -*----------------------------------*\
| =========                 |                                                 |
| \\      /  F ield         | OpenFOAM: The Open Source CFD Toolbox           |
|  \\    /   O peration     | Version:  2412                                  |
|   \\  /    A nd           | Website:  www.openfoam.com                      |
|    \\/     M anipulation  |                                                 |
\*---------------------------------------------------------------------------*/
FoamFile
{
    version     2.0;
    format      ascii;
    arch        "LSB;label=32;scalar=64";
    class       volScalarField;
    location    "1.05";
    object      alpha.water;
}
// * * * * * * * * * * * * * * * * * * * * * * * * * * * * * * * * * * * * * //

dimensions      [0 0 0 0 0 0 0];

internalField   nonuniform List<scalar> 
40000
(
1.00111e-213
3.94173e-208
2.95435e-207
4.10934e-207
4.72004e-207
4.64702e-207
4.29999e-207
3.81103e-207
3.26528e-207
2.72852e-207
2.22488e-207
1.76828e-207
1.3694e-207
1.03207e-207
7.55908e-208
5.37101e-208
3.69457e-208
2.4557e-208
1.57361e-208
9.69768e-209
5.73225e-209
3.24043e-209
1.74628e-209
8.9401e-210
4.33133e-210
1.97772e-210
8.4734e-211
3.38939e-211
1.25879e-211
4.31408e-212
1.35518e-212
3.87282e-213
9.98562e-214
2.30167e-214
4.69457e-215
8.37646e-216
1.29079e-216
1.69321e-217
1.86021e-218
1.68066e-219
1.22341e-220
7.0128e-222
3.08596e-223
1.01398e-224
2.41672e-226
4.06644e-228
4.74999e-230
3.89966e-232
2.41223e-234
1.27301e-236
6.34602e-239
3.07412e-241
1.43047e-243
6.19361e-246
3.12658e-248
1.7494e-250
9.77155e-253
5.44301e-255
3.02037e-257
1.66787e-259
9.15524e-262
4.98996e-264
2.6974e-266
1.44446e-268
7.65325e-271
4.00708e-273
2.07057e-275
1.0545e-277
5.28571e-280
2.60393e-282
1.25885e-284
5.96285e-287
2.76285e-289
1.25005e-291
5.51283e-294
2.36513e-296
9.85092e-299
3.97455e-301
1.54978e-303
5.82541e-306
2.1051e-308
7.2916e-311
2.41291e-313
7.38763e-316
0
0
0
0
0
0
0
0
0
0
0
0
0
0
0
0
0
0
0
0
0
0
0
0
0
0
0
0
0
0
0
1.77331e-315
5.87806e-313
1.8621e-310
5.61641e-308
1.61861e-305
4.47152e-303
1.18762e-300
3.04086e-298
7.52491e-296
1.80389e-293
4.19827e-291
9.50547e-289
2.09777e-286
4.52076e-284
9.52989e-282
1.96834e-279
3.9896e-277
7.94746e-275
1.55819e-272
3.01097e-270
5.742e-268
1.08205e-265
2.01745e-263
3.72606e-261
6.82493e-259
1.24121e-256
2.24376e-254
4.03616e-252
7.23245e-250
1.29238e-247
2.30533e-245
4.10925e-243
6.93852e-241
9.87484e-239
1.19524e-236
1.22727e-234
1.06026e-232
7.61727e-231
4.49038e-229
2.14375e-227
8.19836e-226
2.49459e-224
6.02984e-223
1.1621e-221
1.80085e-220
2.27e-219
2.35788e-218
2.04589e-217
1.50321e-216
9.47668e-216
5.19016e-215
2.49798e-214
1.06769e-213
4.09108e-213
1.41752e-212
4.4766e-212
1.29769e-211
3.47416e-211
8.6367e-211
2.00438e-210
4.36448e-210
8.96051e-210
1.74282e-209
3.22407e-209
5.69171e-209
9.61584e-209
1.55838e-208
2.42827e-208
3.64586e-208
5.28652e-208
7.42009e-208
1.01054e-207
1.33793e-207
1.72514e-207
2.1687e-207
2.65941e-207
3.184e-207
3.72479e-207
4.2623e-207
4.77804e-207
5.24773e-207
5.62755e-207
5.58191e-207
2.21946e-207
2.12568e-214
7.40258e-210
8.04464e-204
2.19524e-203
2.63771e-203
2.80372e-203
2.75335e-203
2.57795e-203
2.31918e-203
2.02117e-203
1.71393e-203
1.41608e-203
1.13997e-203
8.93784e-204
6.81871e-204
5.05568e-204
3.63754e-204
2.53519e-204
1.70836e-204
1.11062e-204
6.94966e-205
4.17488e-205
2.40088e-205
1.31762e-205
6.87717e-206
3.40099e-206
1.58715e-206
6.95923e-207
2.85286e-207
1.08743e-207
3.83096e-208
1.23913e-208
3.6529e-209
9.73485e-210
2.32412e-210
4.92092e-211
9.13695e-212
1.46902e-212
2.01625e-213
2.32492e-214
2.21207e-215
1.7019e-216
1.03509e-217
4.8529e-219
1.70634e-220
4.37174e-222
7.9424e-224
1.00526e-225
8.95732e-228
6.01771e-230
3.47476e-232
1.93918e-234
1.0912e-236
6.21227e-239
3.56777e-241
2.26046e-243
1.49085e-245
9.81564e-248
6.44465e-250
4.21521e-252
2.74355e-254
1.77503e-256
1.14028e-258
7.26497e-261
4.58521e-263
2.86328e-265
1.76687e-267
1.07603e-269
6.45861e-272
3.81549e-274
2.2153e-276
1.26221e-278
7.04647e-281
3.84797e-283
2.05192e-285
1.06651e-287
5.39265e-290
2.64719e-292
1.25881e-294
5.78511e-297
2.56299e-299
1.09165e-301
4.45698e-304
1.73868e-306
6.45778e-309
2.27475e-311
7.56723e-314
2.46218e-316
0
0
0
0
0
0
0
0
0
0
0
0
0
0
0
0
0
0
0
0
0
0
0
0
0
2.46267e-316
9.11989e-314
2.91754e-311
8.76953e-309
2.48904e-306
6.70006e-304
1.71717e-301
4.20507e-299
9.87086e-297
2.22762e-294
4.84634e-292
1.01898e-289
2.07545e-287
4.10396e-285
7.89464e-283
1.48025e-280
2.71023e-278
4.85397e-276
8.5177e-274
1.46678e-271
2.48244e-269
4.1351e-267
6.78876e-265
1.09994e-262
1.7611e-260
2.78981e-258
4.37791e-256
6.81353e-254
1.05291e-251
1.61735e-249
2.47225e-247
3.7646e-245
5.71662e-243
8.66573e-241
1.31268e-238
1.92036e-236
2.47638e-234
2.78296e-232
2.68972e-230
2.2031e-228
1.5053e-226
8.44384e-225
3.83235e-223
1.39134e-221
4.01364e-220
9.19211e-219
1.67928e-217
2.46966e-216
2.95935e-215
2.92862e-214
2.42713e-213
1.70783e-212
1.03365e-211
5.44784e-211
2.52876e-210
1.04446e-209
3.8746e-209
1.30205e-208
3.99456e-208
1.12661e-207
2.93938e-207
7.13468e-207
1.6196e-206
3.45544e-206
6.96033e-206
1.32936e-205
2.4166e-205
4.19557e-205
6.97701e-205
1.11415e-204
1.71268e-204
2.54002e-204
3.64265e-204
5.06211e-204
6.83121e-204
8.96658e-204
1.14645e-203
1.42968e-203
1.74066e-203
2.07113e-203
2.41078e-203
2.74756e-203
3.06861e-203
3.35996e-203
3.59592e-203
3.56761e-203
1.43533e-203
1.60129e-210
1.8938e-206
3.41467e-200
7.65434e-200
8.35343e-200
8.42212e-200
8.10826e-200
7.54173e-200
6.79297e-200
5.95117e-200
5.08175e-200
4.23199e-200
3.43658e-200
2.71972e-200
2.09563e-200
1.57033e-200
1.14266e-200
8.06028e-201
5.50175e-201
3.62614e-201
2.30252e-201
1.40497e-201
8.21531e-202
4.58926e-202
2.44097e-202
1.23165e-202
5.87204e-203
2.63396e-203
1.10618e-203
4.32608e-204
1.56618e-204
5.21468e-205
1.58533e-205
4.36549e-206
1.07919e-206
2.3714e-207
4.58064e-208
7.68149e-209
1.10273e-209
1.33391e-210
1.33566e-211
1.08511e-212
6.99354e-214
3.48714e-215
1.30867e-216
3.58994e-218
6.99646e-220
9.48781e-222
8.985e-224
6.29759e-226
3.70792e-228
2.08594e-230
1.18317e-232
6.80878e-235
3.96503e-237
2.54456e-239
1.69815e-241
1.13133e-243
7.51623e-246
4.97455e-248
3.2763e-250
2.14494e-252
1.39432e-254
8.98929e-257
5.7411e-259
3.62783e-261
2.26536e-263
1.39607e-265
8.4796e-268
5.06924e-270
2.9784e-272
1.71729e-274
9.70161e-277
5.36127e-279
2.89309e-281
1.52171e-283
7.78647e-286
3.86807e-288
1.86142e-290
8.65707e-293
3.88136e-295
1.67303e-297
6.91269e-300
2.72909e-302
1.02584e-304
3.65702e-307
1.23105e-309
3.89397e-312
1.15225e-314
4.92515e-317
0
0
0
0
0
0
0
0
0
0
0
0
0
0
0
0
0
0
0
0
0
4.92618e-317
1.03921e-314
3.78391e-312
1.28032e-309
4.04805e-307
1.20266e-304
3.37393e-302
8.97672e-300
2.27398e-297
5.50402e-295
1.27702e-292
2.84851e-290
6.12525e-288
1.27294e-285
2.56265e-283
5.00859e-281
9.52308e-279
1.76488e-276
3.19391e-274
5.65394e-272
9.80657e-270
1.66918e-267
2.79229e-265
4.59743e-263
7.46054e-261
1.19482e-258
1.89093e-256
2.96092e-254
4.59289e-252
7.06584e-250
1.07934e-247
1.63891e-245
2.47644e-243
3.72774e-241
5.59581e-239
8.38549e-237
1.2557e-234
1.81475e-232
2.30969e-230
2.55568e-228
2.42359e-226
1.93923e-224
1.28786e-222
6.98391e-221
3.04806e-219
1.05913e-217
2.91384e-216
6.35069e-215
1.10325e-213
1.5434e-212
1.76127e-211
1.66288e-210
1.3176e-209
8.88397e-209
5.16419e-208
2.61987e-207
1.17304e-206
4.68291e-206
1.68237e-205
5.48499e-205
1.63527e-204
4.48927e-204
1.14194e-203
2.70672e-203
6.00941e-203
1.2558e-202
2.48094e-202
4.65247e-202
8.31281e-202
1.41983e-201
2.32488e-201
3.65938e-201
5.55054e-201
8.13122e-201
1.15311e-200
1.58608e-200
2.11999e-200
2.75812e-200
3.49752e-200
4.32863e-200
5.23454e-200
6.1913e-200
7.16947e-200
8.13524e-200
9.0521e-200
9.88056e-200
1.05512e-199
1.0461e-199
4.24488e-200
5.57269e-207
3.32432e-203
7.51267e-197
1.62347e-196
1.68964e-196
1.65309e-196
1.56951e-196
1.4504e-196
1.30572e-196
1.14723e-196
9.84389e-197
8.24895e-197
6.74766e-197
5.38429e-197
4.18667e-197
3.1685e-197
2.3305e-197
1.66311e-197
1.14948e-197
7.67852e-198
4.94639e-198
3.06506e-198
1.82196e-198
1.03581e-198
5.6134e-199
2.88942e-199
1.40714e-199
6.45623e-200
2.77742e-200
1.11433e-200
4.1454e-201
1.42072e-201
4.45407e-202
1.26733e-202
3.24416e-203
7.39851e-204
1.48685e-204
2.60091e-205
3.90581e-206
4.95732e-207
5.22509e-208
4.48373e-209
3.06332e-210
1.6252e-211
6.51337e-213
1.91438e-214
4.00616e-216
5.82921e-218
5.88029e-220
4.31028e-222
2.58633e-224
1.45844e-226
8.26334e-229
4.75148e-231
2.76639e-233
1.77748e-235
1.19027e-237
7.95688e-240
5.30457e-242
3.52298e-244
2.32839e-246
1.52973e-248
9.97919e-251
6.4566e-253
4.13836e-255
2.62449e-257
1.64478e-259
1.01733e-261
6.20188e-264
3.72127e-266
2.19453e-268
1.27005e-270
7.20188e-273
3.99488e-275
2.16392e-277
1.14252e-279
5.86857e-282
2.92654e-284
1.41377e-286
6.60071e-289
2.97095e-291
1.28562e-293
5.33292e-296
2.11373e-298
7.97677e-301
2.85497e-303
9.64888e-306
3.06427e-308
9.09365e-311
2.50584e-313
6.40257e-316
0
0
0
0
0
0
0
0
0
0
0
0
0
0
0
0
0
0
0
4.43348e-316
1.85428e-313
7.30299e-311
2.65076e-308
8.93355e-306
2.81342e-303
8.32564e-301
2.32649e-298
6.16563e-296
1.55578e-293
3.75101e-291
8.66919e-289
1.92628e-286
4.12624e-284
8.54227e-282
1.71315e-279
3.33557e-277
6.31812e-275
1.16652e-272
2.10316e-270
3.70922e-268
6.40973e-266
1.08699e-263
1.81172e-261
2.97212e-259
4.8056e-257
7.66865e-255
1.20931e-252
1.88689e-250
2.91658e-248
4.47124e-246
6.80626e-244
1.02991e-241
1.55089e-239
2.32655e-237
3.48061e-235
5.19825e-233
7.75821e-231
1.1149e-228
1.40582e-226
1.53462e-224
1.42888e-222
1.11661e-220
7.2013e-219
3.77047e-217
1.58002e-215
5.24639e-214
1.37457e-212
2.8476e-211
4.69959e-210
6.24956e-209
6.78869e-208
6.1127e-207
4.62932e-206
2.99023e-205
1.66908e-204
8.14885e-204
3.51885e-203
1.35763e-202
4.72317e-202
1.49398e-201
4.32878e-201
1.15682e-200
2.86903e-200
6.64064e-200
1.4419e-199
2.95109e-199
5.7172e-199
1.05261e-198
1.8485e-198
3.10623e-198
5.00915e-198
7.77255e-198
1.16337e-197
1.68352e-197
2.36054e-197
3.21313e-197
4.25366e-197
5.48503e-197
6.8989e-197
8.47497e-197
1.018e-196
1.19697e-196
1.37895e-196
1.55771e-196
1.72656e-196
1.87849e-196
2.00124e-196
1.98218e-196
8.11217e-197
1.25501e-203
4.59707e-200
1.12691e-193
2.43096e-193
2.4815e-193
2.38937e-193
2.24821e-193
2.0692e-193
1.86308e-193
1.64119e-193
1.41435e-193
1.19193e-193
9.81661e-194
7.89447e-194
6.1923e-194
4.73165e-194
3.51696e-194
2.53859e-194
1.77634e-194
1.20246e-194
7.85733e-195
4.94382e-195
2.98716e-195
1.72814e-195
9.54144e-196
5.00985e-196
2.49198e-196
1.16943e-196
5.1529e-197
2.12083e-197
8.10673e-198
2.85977e-198
9.24557e-199
2.71826e-199
7.20542e-200
1.70552e-200
3.56622e-201
6.50801e-202
1.02248e-202
1.36188e-203
1.51135e-204
1.37029e-205
9.92818e-207
5.60729e-208
2.40149e-209
7.56955e-211
1.70317e-212
2.66483e-214
2.87392e-216
2.21499e-218
1.36128e-220
7.71065e-223
4.36613e-225
2.509e-227
1.46054e-229
9.39217e-232
6.3139e-234
4.23744e-236
2.83619e-238
1.89118e-240
1.25497e-242
8.27864e-245
5.4228e-247
3.52314e-249
2.26761e-251
1.44415e-253
9.08904e-256
5.64582e-258
3.45667e-260
2.08309e-262
1.23383e-264
7.17205e-267
4.085e-269
2.27608e-271
1.23844e-273
6.56838e-276
3.38923e-278
1.69789e-280
8.24014e-283
3.86507e-285
1.74778e-287
7.5987e-290
3.1669e-292
1.26116e-294
4.782e-297
1.7197e-299
5.83993e-302
1.86356e-304
5.5571e-307
1.53867e-309
3.92662e-312
9.16038e-315
0
0
0
0
0
0
0
0
0
0
0
0
0
0
0
0
0
4.97525e-315
2.372e-312
1.01752e-309
3.98791e-307
1.44052e-304
4.83149e-302
1.51429e-299
4.45979e-297
1.24031e-294
3.27149e-292
8.21609e-290
1.97163e-287
4.53549e-285
1.0031e-282
2.13879e-280
4.40746e-278
8.79877e-276
1.70538e-273
3.21571e-271
5.91056e-269
1.0609e-266
1.86277e-264
3.20484e-262
5.41121e-260
8.98003e-258
1.46684e-255
2.36162e-253
3.75267e-251
5.89298e-249
9.1566e-247
1.4095e-244
2.15198e-242
3.26251e-240
4.91691e-238
7.37454e-236
1.10191e-233
1.64203e-231
2.44281e-229
3.63177e-227
5.18338e-225
6.46538e-223
6.95062e-221
6.34173e-219
4.82965e-217
3.01776e-215
1.52184e-213
6.10858e-212
1.934e-210
4.8164e-209
9.46936e-208
1.48293e-206
1.87298e-205
1.93556e-204
1.6614e-203
1.20216e-202
7.4368e-202
3.985e-201
1.87208e-200
7.79573e-200
2.90664e-199
9.7918e-199
3.00475e-198
8.46134e-198
2.20123e-197
5.32286e-197
1.20311e-196
2.55481e-196
5.12078e-196
9.72815e-196
1.75839e-195
3.03489e-195
5.01757e-195
7.96915e-195
1.21912e-194
1.80076e-194
2.57415e-194
3.56862e-194
4.80689e-194
6.30232e-194
8.055e-194
1.00495e-193
1.22545e-193
1.46221e-193
1.70911e-193
1.95879e-193
2.20278e-193
2.43211e-193
2.63753e-193
2.80313e-193
2.77319e-193
1.14471e-193
2.08691e-200
5.28641e-197
1.29581e-190
2.8103e-190
2.84638e-190
2.71921e-190
2.54673e-190
2.34054e-190
2.10956e-190
1.8637e-190
1.61311e-190
1.36704e-190
1.13339e-190
9.18449e-191
7.26613e-191
5.605e-191
4.20957e-191
3.07303e-191
2.17677e-191
1.49308e-191
9.89571e-192
6.32174e-192
3.88237e-192
2.28543e-192
1.28548e-192
6.88456e-193
3.49754e-193
1.67863e-193
7.57576e-194
3.19846e-194
1.25618e-194
4.56112e-195
1.52063e-195
4.61962e-196
1.26805e-196
3.1153e-197
6.7779e-198
1.29046e-198
2.12135e-199
2.96559e-200
3.46578e-201
3.32094e-202
2.55256e-203
1.53542e-204
7.0316e-206
2.37892e-207
5.76247e-209
9.7148e-211
1.12399e-212
9.15788e-215
5.79739e-217
3.30814e-219
1.87409e-221
1.07714e-223
6.27406e-226
4.03905e-228
2.72853e-230
1.84023e-232
1.23783e-234
8.29538e-237
5.53264e-239
3.66838e-241
2.41532e-243
1.57738e-245
1.02058e-247
6.53411e-250
4.13433e-252
2.58193e-254
1.58937e-256
9.63038e-259
5.73555e-261
3.35249e-263
1.92016e-265
1.0759e-267
5.88725e-270
3.14029e-272
1.62968e-274
8.21139e-277
4.00832e-279
1.89114e-281
8.60206e-284
3.76201e-286
1.57722e-288
6.31853e-291
2.41022e-293
8.71991e-296
2.97913e-298
9.56441e-301
2.86948e-303
7.99377e-306
2.05249e-308
4.81497e-311
1.0214e-313
1.97035e-316
0
0
0
0
0
0
0
0
0
0
0
0
0
9.85391e-317
4.45791e-314
2.35413e-311
1.11015e-308
4.73314e-306
1.84371e-303
6.6193e-301
2.20664e-298
6.87422e-296
2.01236e-293
5.56299e-291
1.45856e-288
3.64129e-286
8.68636e-284
1.98643e-281
4.36761e-279
9.25829e-277
1.89683e-274
3.76494e-272
7.2555e-270
1.36035e-267
2.48626e-265
4.43763e-263
7.74847e-261
1.32574e-258
2.22617e-256
3.6743e-254
5.96939e-252
9.55932e-250
1.51094e-247
2.3602e-245
3.64817e-243
5.58665e-241
8.48574e-239
1.27993e-236
1.91925e-234
2.86417e-232
4.25846e-230
6.31468e-228
9.34857e-226
1.38317e-223
1.95738e-221
2.41095e-219
2.54768e-217
2.27304e-215
1.68316e-213
1.01645e-211
4.92439e-210
1.88864e-208
5.6889e-207
1.34418e-205
2.5044e-204
3.71744e-203
4.45581e-202
4.378e-201
3.5807e-200
2.47465e-199
1.46579e-198
7.53889e-198
3.40743e-197
1.36825e-196
4.92976e-196
1.60804e-195
4.787e-195
1.31008e-194
3.31788e-194
7.82293e-194
1.72673e-193
3.58596e-193
7.03891e-193
1.31124e-192
2.32686e-192
3.94713e-192
6.42072e-192
1.00439e-191
1.51488e-191
2.20834e-191
3.11837e-191
4.27438e-191
5.69755e-191
7.39832e-191
9.3723e-191
1.15983e-190
1.40394e-190
1.66411e-190
1.93362e-190
2.2046e-190
2.46805e-190
2.71449e-190
2.93456e-190
3.11124e-190
3.07452e-190
1.27991e-190
2.74869e-197
5.20581e-194
1.21464e-187
2.64821e-187
2.67476e-187
2.54691e-187
2.38157e-187
2.1893e-187
1.97701e-187
1.75243e-187
1.52373e-187
1.29861e-187
1.08384e-187
8.84991e-188
7.06124e-188
5.49843e-188
4.17233e-188
3.08024e-188
2.20859e-188
1.53493e-188
1.03177e-188
6.69184e-189
4.17681e-189
2.50174e-189
1.43343e-189
7.83009e-190
4.06253e-190
1.99402e-190
9.21659e-191
3.9914e-191
1.61062e-191
6.01915e-192
2.06933e-192
6.49576e-193
1.84636e-193
4.70812e-194
1.06585e-194
2.11725e-195
3.64193e-196
5.34431e-197
6.5783e-198
6.66322e-199
5.43482e-200
3.48323e-201
1.70667e-202
6.20235e-204
1.61933e-205
2.94707e-207
3.66976e-209
3.17735e-211
2.08434e-213
1.20235e-215
6.82273e-218
3.92529e-220
2.28966e-222
1.47603e-224
1.00298e-226
6.80465e-229
4.60459e-231
3.10447e-233
2.08319e-235
1.38976e-237
9.20733e-240
6.05081e-242
3.93974e-244
2.53846e-246
1.61651e-248
1.01608e-250
6.29569e-253
3.8399e-255
2.30214e-257
1.35465e-259
7.81128e-262
4.40657e-264
2.42778e-266
1.30393e-268
6.81388e-271
3.4573e-273
1.69953e-275
8.07523e-278
3.69927e-280
1.62941e-282
6.88044e-285
2.77632e-287
1.06673e-289
3.88747e-292
1.33787e-294
4.32681e-297
1.3077e-299
3.66998e-302
9.49319e-305
2.24365e-307
4.79436e-310
9.1441e-313
1.52698e-315
0
0
0
0
0
0
0
0
0
0
0
4.43416e-316
3.14262e-313
1.87672e-310
9.84204e-308
4.60681e-305
1.94957e-302
7.53807e-300
2.68639e-297
8.88973e-295
2.74912e-292
7.9892e-290
2.19253e-287
5.7071e-285
1.41454e-282
3.35028e-280
7.60707e-278
1.66075e-275
3.49565e-273
7.11183e-271
1.40179e-268
2.68279e-266
4.99555e-264
9.06804e-262
1.60758e-259
2.78813e-257
4.73863e-255
7.9045e-253
1.29608e-250
2.09196e-248
3.32844e-246
5.22723e-244
8.11353e-242
1.24622e-239
1.89651e-237
2.86287e-235
4.29171e-233
6.39632e-231
9.48804e-229
1.40228e-226
2.0671e-224
3.04235e-222
4.47525e-220
6.26908e-218
7.61144e-216
7.89028e-214
6.86886e-212
4.93369e-210
2.87222e-208
1.33334e-206
4.87411e-205
1.3938e-203
3.11904e-202
5.49941e-201
7.72926e-200
8.78516e-199
8.20196e-198
6.38944e-197
4.21652e-196
2.39089e-195
1.18015e-194
5.13147e-194
1.98684e-193
6.91722e-193
2.18465e-192
6.30919e-192
1.67807e-191
4.13731e-191
9.51218e-191
2.05041e-190
4.16441e-190
8.00547e-190
1.46233e-189
2.54763e-189
4.24762e-189
6.79847e-189
1.04748e-188
1.55771e-188
2.24107e-188
3.12615e-188
4.23688e-188
5.58877e-188
7.18741e-188
9.0248e-188
1.1078e-187
1.33109e-187
1.56737e-187
1.81053e-187
2.05353e-187
2.28851e-187
2.50746e-187
2.70238e-187
2.85829e-187
2.82127e-187
1.18447e-187
2.99551e-194
4.47483e-191
9.63425e-185
2.1084e-184
2.1286e-184
2.02519e-184
1.8941e-184
1.74365e-184
1.5787e-184
1.40463e-184
1.2272e-184
1.05195e-184
8.83878e-185
7.2723e-185
5.85199e-185
4.59977e-185
3.52646e-185
2.63273e-185
1.91074e-185
1.34541e-185
9.17178e-186
6.03906e-186
3.83076e-186
2.33445e-186
1.3625e-186
7.59066e-187
4.02188e-187
2.01873e-187
9.55579e-188
4.24465e-188
1.75974e-188
6.76857e-189
2.39949e-189
7.78261e-190
2.29065e-190
6.06243e-191
1.42806e-191
2.95976e-192
5.32756e-193
8.20698e-194
1.06412e-194
1.13958e-195
9.86603e-197
6.73964e-198
3.53479e-199
1.38092e-200
3.89016e-202
7.65604e-204
1.02908e-205
9.51516e-208
6.50859e-210
3.81086e-212
2.16908e-214
1.2502e-216
7.30919e-219
4.7191e-221
3.2287e-223
2.20569e-225
1.503e-227
1.0205e-229
6.89675e-232
4.63418e-234
3.09253e-236
2.04724e-238
1.34285e-240
8.71689e-243
5.59279e-245
3.54215e-247
2.21156e-249
1.35931e-251
8.21298e-254
4.87071e-256
2.8308e-258
1.60966e-260
8.93955e-263
4.84014e-265
2.54987e-267
1.30438e-269
6.46492e-272
3.09723e-274
1.43068e-276
6.35453e-279
2.70591e-281
1.10111e-283
4.26675e-286
1.56823e-288
5.44345e-291
1.77565e-293
5.41309e-296
1.53236e-298
3.99839e-301
9.5327e-304
2.0549e-306
3.95381e-309
6.68118e-312
9.70345e-315
0
0
0
0
0
0
0
0
0
2.16776e-315
1.77494e-312
1.22186e-309
7.23273e-307
3.75996e-304
1.74462e-301
7.31901e-299
2.80543e-296
9.91164e-294
3.25175e-291
9.96987e-289
2.87263e-286
7.81664e-284
2.01746e-281
4.95834e-279
1.16454e-276
2.62218e-274
5.6773e-272
1.18516e-269
2.39148e-267
4.6755e-265
8.87589e-263
1.63951e-260
2.95238e-258
5.1926e-256
8.93521e-254
1.50678e-251
2.49404e-249
4.05807e-247
6.50018e-245
1.02642e-242
1.59992e-240
2.46493e-238
3.75826e-236
5.67769e-234
8.50885e-232
1.26644e-229
1.87411e-227
2.76045e-225
4.05143e-223
5.93109e-221
8.66979e-219
1.2667e-216
1.7535e-214
2.09457e-212
2.12558e-210
1.8014e-208
1.25198e-206
7.0082e-205
3.1093e-203
1.08074e-201
2.92774e-200
6.19423e-199
1.03217e-197
1.37221e-196
1.4779e-195
1.31045e-194
9.72011e-194
6.12374e-193
3.32355e-192
1.57425e-191
6.58476e-191
2.4582e-190
8.26968e-190
2.52885e-189
7.085e-189
1.83145e-188
4.39609e-188
9.85573e-188
2.07476e-187
4.12121e-187
7.75885e-187
1.38981e-186
2.37721e-186
3.89568e-186
6.13517e-186
9.31104e-186
1.36524e-185
1.93859e-185
2.67144e-185
3.5799e-185
4.67309e-185
5.95205e-185
7.40763e-185
9.01972e-185
1.07587e-184
1.25853e-184
1.44532e-184
1.63084e-184
1.8092e-184
1.97474e-184
2.12168e-184
2.23877e-184
2.20712e-184
9.34501e-185
2.78262e-191
3.40612e-188
6.63351e-182
1.45389e-181
1.46882e-181
1.39828e-181
1.30946e-181
1.20809e-181
1.09726e-181
9.80275e-182
8.60752e-182
7.42204e-182
6.27868e-182
5.20556e-182
4.22468e-182
3.35195e-182
2.59631e-182
1.96006e-182
1.43983e-182
1.02712e-182
7.10083e-183
4.74629e-183
3.05959e-183
1.8969e-183
1.12769e-183
6.4071e-184
3.46661e-184
1.77928e-184
8.62497e-185
3.92944e-185
1.67361e-185
6.62506e-186
2.42169e-186
8.11538e-187
2.47325e-187
6.7936e-188
1.66511e-188
3.60066e-189
6.78228e-190
1.09684e-190
1.49821e-191
1.69656e-192
1.55937e-193
1.13573e-194
6.37908e-196
2.6807e-197
8.1564e-199
1.73858e-200
2.52935e-202
2.50918e-204
1.80107e-206
1.07544e-208
6.15018e-211
3.55423e-213
2.08439e-215
1.34794e-217
9.29459e-220
6.39988e-222
4.39588e-224
3.0088e-226
2.04998e-228
1.3888e-230
9.34485e-233
6.23812e-235
4.1264e-237
2.70145e-239
1.74819e-241
1.11683e-243
7.03409e-246
4.36164e-248
2.6588e-250
1.59096e-252
9.33015e-255
5.35373e-257
3.0006e-259
1.63964e-261
8.71838e-264
4.50167e-266
2.25221e-268
1.08923e-270
5.07942e-273
2.27775e-275
9.79283e-278
4.02365e-280
1.57435e-282
5.84321e-285
2.04819e-287
6.74727e-290
2.07733e-292
5.93924e-295
1.56523e-297
3.76916e-300
8.20666e-303
1.59496e-305
2.72245e-308
3.99614e-311
4.90086e-314
4.92663e-317
0
0
0
0
0
0
7.83335e-315
7.99185e-312
6.51754e-309
4.44161e-306
2.60286e-303
1.33959e-300
6.15381e-298
2.556e-295
9.70035e-293
3.39335e-290
1.10233e-287
3.34665e-285
9.54871e-283
2.57304e-280
6.5768e-278
1.60085e-275
3.72388e-273
8.30522e-271
1.78116e-268
3.6833e-266
7.36289e-264
1.42612e-261
2.68235e-259
4.90928e-257
8.76007e-255
1.52679e-252
2.60367e-250
4.3516e-248
7.13922e-246
1.15145e-243
1.82837e-241
2.86224e-239
4.42338e-237
6.75722e-235
1.02162e-232
1.53055e-230
2.27486e-228
3.3582e-226
4.92937e-224
7.20253e-222
1.04871e-219
1.5232e-217
2.20922e-215
3.20294e-213
4.37372e-211
5.13005e-209
5.08553e-207
4.18596e-205
2.80798e-203
1.50737e-201
6.37487e-200
2.10169e-198
5.38237e-197
1.07484e-195
1.69058e-194
2.12405e-193
2.16633e-192
1.82357e-191
1.28754e-190
7.74238e-190
4.02151e-189
1.82775e-188
7.35402e-188
2.64702e-187
8.60466e-187
2.54781e-186
6.9249e-186
1.73981e-185
4.06589e-185
8.88911e-185
1.82757e-184
3.55052e-184
6.54655e-184
1.14996e-183
1.93124e-183
3.11087e-183
4.82082e-183
7.20685e-183
1.04195e-182
1.46031e-182
1.98804e-182
2.63421e-182
3.40288e-182
4.29262e-182
5.2953e-182
6.39595e-182
7.57385e-182
8.80205e-182
1.00496e-181
1.1281e-181
1.24587e-181
1.35469e-181
1.45101e-181
1.52741e-181
1.50404e-181
6.42218e-182
2.25138e-188
2.32263e-185
4.03652e-179
8.84392e-179
8.94532e-179
8.52748e-179
8.00147e-179
7.40204e-179
6.74662e-179
6.05362e-179
5.34316e-179
4.63509e-179
3.948e-179
3.29847e-179
2.69983e-179
2.16227e-179
1.69206e-179
1.29171e-179
9.60367e-180
6.94048e-180
4.86564e-180
3.30136e-180
2.16258e-180
1.36399e-180
8.25895e-181
4.78521e-181
2.6437e-181
1.38745e-181
6.88695e-182
3.2179e-182
1.40796e-182
5.73565e-183
2.16167e-183
7.48405e-184
2.36155e-184
6.73206e-185
1.71678e-185
3.87324e-186
7.63456e-187
1.2962e-187
1.86525e-188
2.23366e-189
2.17996e-190
1.69324e-191
1.0189e-192
4.60855e-194
1.51583e-195
3.50451e-197
5.53188e-199
5.9134e-201
4.48274e-203
2.74446e-205
1.58009e-207
9.16342e-210
5.39484e-212
3.49437e-214
2.43071e-216
1.68856e-218
1.17023e-220
8.08234e-223
5.55713e-225
3.79956e-227
2.58048e-229
1.73881e-231
1.16113e-233
7.67453e-236
5.0145e-238
3.23478e-240
2.05742e-242
1.28842e-244
7.93269e-247
4.79465e-249
2.84042e-251
1.64657e-253
9.32381e-256
5.14786e-258
2.7659e-260
1.4432e-262
7.297e-265
3.56672e-267
1.68113e-269
7.62007e-272
3.31172e-274
1.37557e-276
5.44135e-279
2.04183e-281
7.23646e-284
2.41041e-286
7.50408e-289
2.16954e-291
5.78196e-294
1.40805e-296
3.10049e-299
6.09421e-302
1.05206e-304
1.56188e-307
1.93778e-310
1.92779e-313
1.47796e-316
0
0
0
0
2.09378e-314
2.80494e-311
2.82056e-308
2.27425e-305
1.53239e-302
8.87904e-300
4.51842e-297
2.05244e-294
8.42975e-292
3.16362e-289
1.09442e-286
3.51596e-284
1.05569e-281
2.97911e-279
7.94009e-277
2.00748e-274
4.8336e-272
1.1123e-269
2.4542e-267
5.20742e-265
1.06547e-262
2.10751e-260
4.03945e-258
7.51893e-256
1.36196e-253
2.40542e-251
4.14985e-249
7.00558e-247
1.15916e-244
1.88286e-242
3.00692e-240
4.72806e-238
7.33002e-236
1.12194e-233
1.6976e-231
2.54243e-229
3.77342e-227
5.55658e-225
8.12763e-223
1.1822e-220
1.71186e-218
2.47034e-216
3.55645e-214
5.11326e-212
7.34925e-210
9.882e-208
1.13589e-205
1.09758e-203
8.75353e-202
5.65281e-200
2.90218e-198
1.16685e-196
3.63995e-195
8.79452e-194
1.65512e-192
2.45447e-191
2.91204e-190
2.81091e-189
2.2454e-188
1.50874e-187
8.65822e-187
4.30367e-186
1.87674e-185
7.26339e-185
2.5208e-184
7.91838e-184
2.2703e-183
5.98659e-183
1.46188e-182
3.32633e-182
7.09215e-182
1.42417e-181
2.70619e-181
4.88704e-181
8.41866e-181
1.38819e-180
2.19812e-180
3.35209e-180
4.93642e-180
7.03759e-180
9.73539e-180
1.30941e-179
1.7156e-179
2.19327e-179
2.74028e-179
3.35066e-179
4.01479e-179
4.71988e-179
5.44972e-179
6.18587e-179
6.90795e-179
7.59504e-179
8.22741e-179
8.78532e-179
9.22547e-179
9.07381e-179
3.90757e-179
1.61259e-185
1.4325e-182
2.2004e-176
4.81239e-176
4.87433e-176
4.65507e-176
4.37829e-176
4.06262e-176
3.71688e-176
3.35025e-176
2.97283e-176
2.59466e-176
2.22534e-176
1.87361e-176
1.5467e-176
1.25039e-176
9.88533e-177
7.63063e-177
5.7418e-177
4.2036e-177
2.98824e-177
2.05804e-177
1.36988e-177
8.78931e-178
5.42012e-178
3.20228e-178
1.80638e-178
9.69279e-179
4.92637e-179
2.36056e-179
1.06094e-179
4.44745e-180
1.72808e-180
6.18061e-181
2.01911e-181
5.97312e-182
1.58477e-182
3.73014e-183
7.69365e-184
1.37129e-184
2.07892e-185
2.63283e-186
2.72873e-187
2.26083e-188
1.458e-189
7.10154e-191
2.5271e-192
6.34508e-194
1.08915e-195
1.25963e-197
1.01485e-199
6.40877e-202
3.72392e-204
2.16905e-206
1.28294e-208
8.32265e-211
5.84566e-213
4.10081e-215
2.87025e-217
2.00228e-219
1.39065e-221
9.60558e-224
6.59108e-226
4.48764e-228
3.02827e-230
2.02283e-232
1.33589e-234
8.71091e-237
5.60089e-239
3.54607e-241
2.20752e-243
1.3492e-245
8.08301e-248
4.73892e-250
2.71418e-252
1.51583e-254
8.23901e-257
4.34924e-259
2.22491e-261
1.1004e-263
5.24843e-266
2.40747e-268
1.05891e-270
4.45164e-273
1.78239e-275
6.77019e-278
2.42894e-280
8.19056e-283
2.5815e-285
7.5564e-288
2.03899e-290
5.02765e-293
1.12099e-295
2.23113e-298
3.90029e-301
5.86356e-304
7.36689e-307
7.42231e-310
5.61974e-313
2.95589e-316
0
0
3.68994e-314
7.30128e-311
9.64894e-308
9.58107e-305
7.62864e-302
5.07596e-299
2.90448e-296
1.45967e-293
6.54815e-291
2.65619e-288
9.8456e-286
3.36414e-283
1.06754e-280
3.16627e-278
8.82654e-276
2.32405e-273
5.80517e-271
1.38102e-268
3.14013e-266
6.84636e-264
1.43557e-261
2.90289e-259
5.6751e-257
1.07517e-254
1.9783e-252
3.54257e-250
6.18583e-248
1.05519e-245
1.76144e-243
2.88226e-241
4.63034e-239
7.3141e-237
1.13764e-234
1.74483e-232
2.6423e-230
3.95599e-228
5.86295e-226
8.6118e-224
1.25516e-221
1.81732e-219
2.61685e-217
3.75161e-215
5.36057e-213
7.64222e-211
1.08816e-208
1.54908e-206
2.04732e-204
2.30153e-202
2.16276e-200
1.66703e-198
1.03357e-196
5.06103e-195
1.92932e-193
5.68123e-192
1.29249e-190
2.28904e-189
3.19716e-188
3.57929e-187
3.26834e-186
2.47672e-185
1.58338e-184
8.67074e-184
4.12424e-183
1.72562e-182
6.42408e-182
2.1497e-181
6.52552e-181
1.81176e-180
4.63531e-180
1.10023e-179
2.43759e-179
5.06878e-179
9.94224e-179
1.84796e-178
3.26865e-178
5.5222e-178
8.94115e-178
1.39179e-177
2.08876e-177
3.03032e-177
4.26025e-177
5.81717e-177
7.73011e-177
1.00153e-176
1.26717e-176
1.56813e-176
1.9007e-176
2.25933e-176
2.637e-176
3.02507e-176
3.41373e-176
3.79262e-176
4.1513e-176
4.48021e-176
4.76929e-176
4.99612e-176
4.90824e-176
2.13182e-176
1.0355e-182
8.05604e-180
1.08603e-173
2.36831e-173
2.40232e-173
2.29897e-173
2.16795e-173
2.0182e-173
1.85374e-173
1.6787e-173
1.49766e-173
1.31524e-173
1.13588e-173
9.63757e-174
8.02413e-174
6.54786e-174
5.22966e-174
4.08178e-174
3.10838e-174
2.3052e-174
1.6616e-174
1.16152e-174
7.85554e-175
5.12689e-175
3.21973e-175
1.93961e-175
1.11704e-175
6.1279e-176
3.18878e-176
1.56682e-176
7.23299e-177
3.11978e-177
1.24963e-177
4.6167e-178
1.56131e-178
4.79277e-179
1.32286e-179
3.24817e-180
7.00996e-181
1.3116e-181
2.0948e-182
2.80572e-183
3.08832e-184
2.72983e-185
1.88719e-186
9.90301e-188
3.8153e-189
1.04157e-190
1.94817e-192
2.44673e-194
2.10791e-196
1.38207e-198
8.12974e-201
4.76036e-203
2.83079e-205
1.83893e-207
1.3054e-209
9.25626e-212
6.54917e-214
4.61891e-216
3.24361e-218
2.26558e-220
1.57219e-222
1.08269e-224
7.39037e-227
4.99417e-229
3.33695e-231
2.20173e-233
1.4326e-235
9.17965e-238
5.78414e-240
3.57855e-242
2.17042e-244
1.28834e-246
7.47151e-249
4.22552e-251
2.32596e-253
1.24359e-255
6.44389e-258
3.22845e-260
1.55996e-262
7.2497e-265
3.23091e-267
1.37633e-269
5.58436e-272
2.14965e-274
7.81635e-277
2.67146e-279
8.53446e-282
2.53227e-284
6.92658e-287
1.7314e-289
3.91363e-292
7.89704e-295
1.39962e-297
2.13334e-300
2.71755e-303
2.77611e-306
2.13117e-309
1.09246e-312
2.95587e-316
3.25146e-314
1.26814e-310
2.4761e-307
3.2273e-304
3.16061e-301
2.48204e-298
1.6289e-295
9.19331e-293
4.5572e-290
2.01659e-287
8.06919e-285
2.95055e-282
9.94596e-280
3.11378e-277
9.11189e-275
2.50629e-272
6.51166e-270
1.60506e-267
3.76824e-265
8.45625e-263
1.81976e-260
3.76649e-258
7.51854e-256
1.45112e-253
2.71436e-251
4.93156e-249
8.72065e-247
1.50386e-244
2.53371e-242
4.17788e-240
6.75345e-238
1.07189e-235
1.67297e-233
2.57139e-231
3.89755e-229
5.83368e-227
8.63346e-225
1.26492e-222
1.83697e-220
2.64737e-218
3.79056e-216
5.39826e-214
7.65494e-212
1.08202e-209
1.52612e-207
2.15008e-205
3.02883e-203
3.92715e-201
4.30855e-199
3.92814e-197
2.91858e-195
1.73246e-193
8.06836e-192
2.90856e-190
8.06621e-189
1.72473e-187
2.87041e-186
3.77238e-185
3.98256e-184
3.43868e-183
2.47132e-182
1.50298e-181
7.85329e-181
3.57446e-180
1.43501e-179
5.13885e-179
1.65813e-178
4.86423e-178
1.30789e-177
3.24686e-177
7.49163e-177
1.61627e-176
3.27806e-176
6.28084e-176
1.14201e-175
1.97865e-175
3.27856e-175
5.21274e-175
7.97719e-175
1.17828e-174
1.68413e-174
2.335e-174
3.14732e-174
4.1322e-174
5.29425e-174
6.62955e-174
8.12634e-174
9.76432e-174
1.1515e-173
1.33437e-173
1.52083e-173