/*--------------------------------*- C++ -*----------------------------------*\
| =========                 |                                                 |
| \\      /  F ield         | OpenFOAM: The Open Source CFD Toolbox           |
|  \\    /   O peration     | Version:  2412                                  |
|   \\  /    A nd           | Website:  www.openfoam.com                      |
|    \\/     M anipulation  |                                                 |
\*---------------------------------------------------------------------------*/
FoamFile
{
    version     2.0;
    format      ascii;
    arch        "LSB;label=32;scalar=64";
    class       surfaceScalarField;
    location    "1.05";
    object      alphaPhi0.water;
}
// * * * * * * * * * * * * * * * * * * * * * * * * * * * * * * * * * * * * * //

dimensions      [0 3 -1 0 0 0 0];

oriented        oriented;

internalField   nonuniform List<scalar> 
79600
(
1.35536e-224
-1.00119e-220
7.26848e-219
-3.94244e-215
9.42513e-218
-2.9552e-214
1.95135e-217
-4.11032e-214
3.03612e-217
-4.72109e-214
3.77354e-217
-4.64773e-214
4.209e-217
-4.30042e-214
4.35663e-217
-3.81119e-214
4.26021e-217
-3.2652e-214
3.99421e-217
-2.7283e-214
3.60643e-217
-2.22454e-214
3.14053e-217
-1.76788e-214
2.64184e-217
-1.36897e-214
2.14723e-217
-1.03165e-214
1.68564e-217
-7.55515e-215
1.27696e-217
-5.36755e-215
9.32187e-218
-3.69166e-215
6.54874e-218
-2.45338e-215
4.41917e-218
-1.57184e-215
2.85856e-218
-9.68476e-216
1.76828e-218
-5.72328e-216
1.04327e-218
-3.2345e-216
5.85321e-219
-1.74256e-216
3.11249e-219
-8.91794e-217
1.56296e-219
-4.31888e-217
7.38223e-220
-1.97114e-217
3.26565e-220
-8.44079e-218
1.34636e-220
-3.3743e-218
5.14525e-221
-1.2523e-218
1.81167e-221
-4.28835e-219
5.83818e-222
-1.3458e-219
1.70917e-222
-3.84165e-220
4.50839e-223
-9.89193e-221
1.06173e-223
-2.27641e-221
2.20974e-224
-4.63404e-222
4.01845e-225
-8.24902e-223
6.30369e-226
-1.26749e-223
8.40805e-227
-1.65672e-224
9.38234e-228
-1.81204e-225
8.60041e-229
-1.62796e-226
6.34509e-230
-1.17658e-227
3.68238e-231
-6.6824e-229
1.63889e-232
-2.90544e-230
5.44085e-234
-9.39669e-232
1.30889e-235
-2.19274e-233
2.22073e-237
-3.58488e-235
2.61304e-239
-4.02232e-237
2.15883e-241
-3.11682e-239
1.34252e-243
-1.77495e-241
7.11555e-246
-8.37945e-244
3.55899e-248
-3.61799e-246
1.72807e-250
-1.43179e-248
8.05188e-253
-4.66441e-251
3.48741e-255
-6.47175e-254
1.75924e-257
1.23111e-260
9.82642e-260
1.69943e-262
5.47349e-262
1.51868e-264
3.03722e-264
1.16505e-266
1.67713e-266
8.24934e-269
9.20576e-269
5.54699e-271
5.0173e-271
3.59182e-273
2.71206e-273
2.25677e-275
1.45223e-275
1.38192e-277
7.69401e-278
8.26805e-280
4.02817e-280
4.84014e-282
2.08132e-282
2.77412e-284
1.0599e-284
1.55689e-286
5.31233e-287
8.55378e-289
2.61681e-289
4.59844e-291
1.26496e-291
2.41717e-293
5.99122e-294
1.2412e-295
2.77571e-296
6.21908e-298
1.25573e-298
3.03677e-300
5.53725e-301
1.44309e-302
2.37532e-303
6.6636e-305
9.89212e-306
2.98491e-307
3.99065e-308
1.29464e-309
1.55585e-310
5.42593e-312
5.84739e-313
2.1925e-314
2.11273e-315
8.5213e-317
7.31694e-318
3.17719e-319
2.42092e-320
1.13141e-321
7.41098e-323
4.94066e-324
0
0
0
0
0
0
0
0
0
0
0
0
0
0
0
0
0
0
0
0
0
0
0
0
0
0
0
0
0
0
0
0
0
0
0
0
0
0
0
0
0
0
0
0
0
0
0
0
0
0
0
0
0
0
0
0
0
0
0
0
0
0
0
0
-1.77864e-322
0
-5.89667e-320
9.88131e-324
-1.8683e-317
2.97428e-321
-5.63596e-315
8.73281e-319
-1.62449e-312
2.4441e-316
-4.48842e-310
6.54384e-314
-1.19228e-307
1.68096e-311
-3.0532e-305
4.15364e-309
-7.55643e-303
9.89669e-307
-1.81167e-300
2.27866e-304
-4.21689e-298
5.07986e-302
-9.54874e-296
1.09856e-299
-2.10755e-293
2.30851e-297
-4.54231e-291
4.72083e-295
-9.57625e-289
9.4082e-293
-1.9781e-286
1.8298e-290
-4.00973e-284
3.47677e-288
-7.9882e-282
6.45922e-286
-1.5663e-279
1.17427e-283
-3.02684e-277
2.09033e-281
-5.77263e-275
3.64424e-279
-1.08789e-272
6.22027e-277
-2.02843e-270
1.03898e-274
-3.74651e-268
1.69625e-272
-6.86266e-266
2.69952e-270
-1.24811e-263
4.16914e-268
-2.25631e-261
6.20104e-266
-4.0588e-259
8.76024e-264
-7.27314e-257
1.14261e-261
-1.29966e-254
1.28272e-259
-2.31833e-252
9.45076e-258
-3.91337e-250
-2.19048e-251
-5.56219e-248
-1.41545e-248
-6.71688e-246
-3.21355e-246
-6.87416e-244
-5.14539e-244
-5.91337e-242
-6.42801e-242
-4.2261e-240
-6.43561e-240
-2.47582e-238
-5.18368e-238
-1.17349e-236
-3.34163e-236
-4.4512e-235
-1.71035e-234
-1.34203e-233
-6.90079e-233
-3.21107e-232
-2.18689e-231
-6.11967e-231
-5.44995e-230
-9.36812e-230
-1.07454e-228
-1.16529e-228
-1.69368e-227
-1.19318e-227
-2.16232e-226
-1.01946e-226
-2.26785e-225
-7.36764e-226
-1.9824e-224
-4.5635e-225
-1.46493e-223
-2.45275e-224
-9.27698e-223
-1.15711e-223
-5.09895e-222
-4.84183e-223
-2.46112e-221
-1.81394e-222
-1.05439e-220
-6.13707e-222
-4.04782e-220
-1.88983e-221
-1.40475e-219
-5.33399e-221
-4.44212e-219
-1.38826e-220
-1.28913e-218
-3.34968e-220
-3.45452e-218
-7.53233e-220
-8.59481e-218
-1.58636e-219
-1.99603e-217
-3.14413e-219
-4.34887e-217
-5.89167e-219
-8.93298e-217
-1.04776e-218
-1.73822e-216
-1.77391e-218
-3.21679e-216
-2.86671e-218
-5.68074e-216
-4.43144e-218
-9.60012e-216
-6.56584e-218
-1.55623e-215
-9.34174e-218
-2.42548e-215
-1.27875e-217
-3.64238e-215
-1.68722e-217
-5.2824e-215
-2.14976e-217
-7.41541e-215
-2.64843e-217
-1.01003e-214
-3.15758e-217
-1.33741e-214
-3.64315e-217
-1.72464e-214
-4.06417e-217
-2.16827e-214
-4.3794e-217
-2.65907e-214
-4.55057e-217
-3.1838e-214
-4.54876e-217
-3.72476e-214
-4.35775e-217
-4.26246e-214
-3.96885e-217
-4.77839e-214
-3.37719e-217
-5.24829e-214
-2.47607e-217
-5.62841e-214
-6.37284e-218
-5.58371e-214
-2.81915e-225
-2.22007e-214
-2.12587e-221
1.89339e-220
-7.40507e-217
3.5596e-214
-8.04852e-211
1.30577e-213
-2.19646e-210
1.99113e-213
-2.63879e-210
2.57799e-213
-2.80476e-210
3.00211e-213
-2.75423e-210
3.26223e-213
-2.57864e-210
3.34557e-213
-2.31965e-210
3.27563e-213
-2.02144e-210
3.08296e-213
-1.71404e-210
2.79855e-213
-1.41606e-210
2.4542e-213
-1.13985e-210
2.08098e-213
-8.93601e-211
1.70623e-213
-6.81654e-211
1.35222e-213
-5.05343e-211
1.03497e-213
-3.6354e-211
7.6409e-214
-2.53328e-211
5.43357e-214
-1.70676e-211
3.71504e-214
-1.10935e-211
2.43733e-214
-6.94008e-212
1.53082e-214
-4.168e-212
9.1803e-215
-2.3962e-212
5.24141e-215
-1.31459e-212
2.83977e-215
-6.85866e-213
1.45479e-215
-3.3903e-213
7.01947e-216
-1.58134e-213
3.17655e-216
-6.92961e-214
1.34167e-216
-2.83876e-214
5.26065e-217
-1.08119e-214
1.90351e-217
-3.80542e-215
6.31456e-218
-1.22952e-215
1.90651e-218
-3.6199e-216
5.19668e-219
-9.63215e-217
1.26734e-219
-2.2954e-217
2.73767e-220
-4.84943e-218
5.17982e-221
-8.98017e-219
8.47644e-222
-1.43909e-219
1.18281e-222
-1.96719e-220
1.3851e-223
-2.25688e-221
1.33691e-224
-2.13362e-222
1.04235e-225
-1.62815e-223
6.4177e-227
-9.79789e-225
3.04283e-228
-4.53009e-226
1.08088e-229
-1.56354e-227
2.79493e-231
-3.90608e-229
5.11965e-233
-6.85033e-231
6.52695e-235
-8.23571e-233
5.85224e-237
-6.78311e-235
3.95241e-239
-4.03e-237
2.292e-241
-1.93947e-239
1.28333e-243
-8.435e-242
7.23814e-246
-3.35945e-244
4.12611e-248
-1.10216e-246
2.37039e-250
-1.52129e-249
1.50076e-252
1.95559e-255
9.88083e-255
3.16661e-257
6.48737e-257
3.33194e-259
4.24307e-259
3.01284e-261
2.76161e-261
2.51413e-263
1.78666e-263
1.99218e-265
1.14771e-265
1.52007e-267
7.31192e-268
1.12539e-269
4.6146e-270
8.12008e-272
2.88146e-272
5.72467e-274
1.77797e-274
3.94903e-276
1.0827e-276
2.66725e-278
6.49813e-279
1.76412e-280
3.83849e-281
1.1423e-282
2.22844e-283
7.23756e-285
1.26957e-285
4.48374e-287
7.08676e-288
2.71342e-289
3.86952e-290
1.60231e-291
2.06316e-292
9.22113e-294
1.07221e-294
5.16447e-296
5.42074e-297
2.8106e-298
2.66059e-299
1.48376e-300
1.265e-301
7.58421e-303
5.81265e-304
3.74589e-305
2.57477e-306
1.78381e-307
1.09648e-308
8.1706e-310
4.47594e-311
3.59044e-312
1.74577e-313
1.50935e-314
6.48292e-316
6.05077e-317
2.28317e-318
2.30516e-319
7.59379e-321
8.3003e-322
2.47033e-323
4.94066e-324
0
0
0
0
0
0
0
0
0
0
0
0
0
0
0
0
0
0
0
0
0
0
0
0
0
0
0
0
0
0
0
0
0
0
0
0
0
0
0
0
0
0
0
0
0
0
0
0
0
0
0
0
-2.47033e-323
0
-9.1501e-321
4.94066e-324
-2.92778e-318
1.09189e-321
-8.80201e-316
3.20604e-319
-2.49873e-313
8.88742e-317
-6.72738e-311
2.33231e-314
-1.72448e-308
5.81668e-312
-4.2237e-306
1.38342e-309
-9.91625e-304
3.14766e-307
-2.23823e-301
6.87094e-305
-4.87016e-299
1.44267e-302
-1.02414e-296
2.92062e-300
-2.08626e-294
5.71337e-298
-4.12591e-292
1.08214e-295
-7.93788e-290
1.98816e-293
-1.48854e-287
3.54935e-291
-2.72573e-285
6.16675e-289
-4.88227e-283
1.04417e-286
-8.56825e-281
1.72526e-284
-1.47563e-278
2.78481e-282
-2.49763e-276
4.39529e-280
-4.16075e-274
6.78799e-278
-6.83139e-272
1.02637e-275
-1.10693e-269
1.51981e-273
-1.77239e-267
2.20356e-271
-2.80784e-265
3.12623e-269
-4.40642e-263
4.33426e-267
-6.85818e-261
5.85744e-265
-1.05984e-258
7.68204e-263
-1.62805e-256
9.70339e-261
-2.48864e-254
1.16413e-258
-3.7896e-252
1.28946e-256
-5.75463e-250
1.22949e-254
-8.72333e-248
7.68879e-253
-1.27578e-245
-4.56218e-247
-1.64304e-243
-2.90089e-244
-1.84221e-241
-6.50628e-242
-1.77465e-239
-1.02678e-239
-1.44738e-237
-1.26014e-237
-9.83764e-236
-1.23386e-235
-5.48402e-234
-9.66782e-234
-2.47109e-232
-6.02789e-232
-8.89794e-231
-2.96742e-230
-2.5433e-229
-1.14597e-228
-5.76557e-228
-3.46271e-227
-1.04155e-226
-8.20871e-226
-1.51313e-225
-1.53848e-224
-1.78924e-224
-2.30602e-223
-1.74546e-223
-2.80289e-222
-1.42444e-222
-2.80384e-221
-9.85874e-222
-2.34297e-220
-5.86258e-221
-1.65919e-219
-3.03228e-220
-1.00928e-218
-1.37964e-219
-5.34067e-218
-5.57857e-219
-2.487e-217
-2.02338e-218
-1.0299e-216
-6.63924e-218
-3.82882e-216
-1.98608e-217
-1.28896e-215
-5.45389e-217
-3.9603e-215
-1.38336e-216
-1.11835e-214
-3.25914e-216
-2.92095e-214
-7.16887e-216
-7.09639e-214
-1.47937e-215
-1.61216e-213
-2.87677e-215
-3.44187e-213
-5.29331e-215
-6.937e-213
-9.24997e-215
-1.32557e-212
-1.54008e-214
-2.41076e-212
-2.44974e-214
-4.187e-212
-3.73145e-214
-6.9651e-212
-5.45454e-214
-1.11257e-211
-7.66635e-214
-1.7107e-211
-1.03799e-213
-2.53765e-211
-1.35606e-213
-3.63996e-211
-1.7121e-213
-5.05925e-211
-2.09103e-213
-6.82838e-211
-2.47197e-213
-8.96404e-211
-2.82922e-213
-1.14625e-210
-3.13368e-213
-1.42959e-210
-3.35618e-213
-1.74069e-210
-3.47044e-213
-2.07131e-210
-3.45573e-213
-2.41115e-210
-3.29924e-213
-2.74812e-210
-2.99636e-213
-3.06937e-210
-2.54531e-213
-3.36091e-210
-1.86714e-213
-3.59714e-210
-4.85798e-214
-3.56952e-210
-2.47657e-221
-1.43602e-210
-1.60168e-217
3.38921e-217
-1.89477e-213
1.35921e-210
-3.4168e-207
4.46156e-210
-7.65958e-207
6.36215e-210
-8.35789e-207
7.90263e-210
-8.4264e-207
9.04464e-210
-8.11211e-207
9.75721e-210
-7.545e-207
1.00041e-209
-6.79555e-207
9.83096e-210
-5.95307e-207
9.30464e-210
-5.08302e-207
8.50421e-210
-4.23272e-207
7.51642e-210
-3.43688e-207
6.4287e-210
-2.71968e-207
5.32073e-210
-2.09537e-207
4.25975e-210
-1.56994e-207
3.29613e-210
-1.14221e-207
2.46217e-210
-8.05582e-208
1.77309e-210
-5.49771e-208
1.22878e-210
-3.62274e-208
8.17914e-211
-2.29983e-208
5.21715e-211
-1.40296e-208
3.18081e-211
-8.20108e-209
1.84834e-211
-4.57976e-209
1.02041e-211
-2.43497e-209
5.33317e-212
-1.22808e-209
2.62874e-212
-5.85203e-210
1.21689e-212
-2.62346e-210
5.2652e-213
-1.10103e-210
2.11805e-213
-4.30257e-211
7.87548e-214
-1.55625e-211
2.68924e-214
-5.17611e-212
8.37304e-215
-1.57163e-212
2.35821e-215
-4.32134e-213
5.95497e-216
-1.06639e-213
1.33499e-216
-2.33826e-214
2.62768e-217
-4.50496e-215
4.48498e-218
-7.53069e-216
6.54577e-219
-1.07685e-216
8.04118e-220
-1.29625e-217
8.16809e-221
-1.28995e-218
6.72468e-222
-1.03971e-219
4.38746e-223
-6.63255e-221
2.21239e-224
-3.26288e-222
8.38808e-226
-1.20269e-223
2.32233e-227
-3.21949e-225
4.5634e-229
-6.06342e-227
6.23334e-231
-7.82295e-229
5.94005e-233
-6.86453e-231
4.1854e-235
-4.26584e-233
2.4749e-237
-2.09245e-235
1.3969e-239
-9.12301e-238
7.94176e-242
-3.6303e-240
4.57631e-244
-1.1909e-242
2.66581e-246
-1.65179e-245
1.70959e-248
3.39259e-251
1.13895e-250
5.5743e-253
7.56684e-253
5.93891e-255
5.00798e-255
5.43601e-257
3.29826e-257
4.59094e-259
2.15926e-259
3.68131e-261
1.40358e-261
2.84235e-263
9.04862e-264
2.1294e-265
5.77872e-266
1.55476e-267
3.6514e-268
1.1092e-269
2.27994e-270
7.74303e-272
1.40495e-272
5.29231e-274
8.53293e-275
3.54217e-276
5.10069e-277
2.32103e-278
2.99661e-279
1.48817e-280
1.72762e-281
9.32961e-283
9.75895e-284
5.71359e-285
5.39235e-286
3.41438e-287
2.90952e-288
1.9885e-289
1.53016e-290
1.12704e-291
7.82867e-293
6.20701e-294
3.88849e-295
3.31595e-296
1.87097e-297
1.71519e-298
8.7002e-300
8.57273e-301
3.90009e-302
4.13123e-303
1.68082e-304
1.91496e-305
6.94372e-307
8.51585e-308
2.74086e-309
3.6228e-310
1.03007e-311
1.46975e-312
3.67145e-314
5.66657e-315
1.23567e-316
2.06827e-317
3.90781e-319
7.11603e-320
1.15611e-321
2.2727e-322
4.94066e-324
0
0
0
0
0
0
0
0
0
0
0
0
0
0
0
0
0
0
0
0
0
0
0
0
0
0
0
0
0
0
0
0
0
0
0
0
0
0
0
0
0
0
0
0
0
-4.94066e-324
0
-1.04248e-321
0
-3.7966e-319
2.2727e-322
-1.28487e-316
7.55377e-320
-4.06324e-314
2.34058e-317
-1.20741e-311
6.80335e-315
-3.38787e-309
1.86409e-312
-9.01544e-307
4.83528e-310
-2.28419e-304
1.19196e-307
-5.52967e-302
2.80215e-305
-1.28318e-299
6.30192e-303
-2.8627e-297
1.3597e-300
-6.1567e-295
2.8218e-298
-1.27966e-292
5.64623e-296
-2.57654e-290
1.09168e-293
-5.03639e-288
2.0437e-291
-9.57715e-286
3.71121e-289
-1.77511e-283
6.54847e-287
-3.21279e-281
1.12454e-284
-5.68795e-279
1.88201e-282
-9.86651e-277
3.07342e-280
-1.67953e-274
4.90303e-278
-2.80985e-272
7.64826e-276
-4.62669e-270
1.16743e-273
-7.50854e-268
1.74457e-271
-1.20259e-265
2.55302e-269
-1.90332e-263
3.65829e-267
-2.98047e-261
5.12938e-265
-4.6234e-259
7.02766e-263
-7.113e-257
9.38474e-261
-1.08657e-254
1.21617e-258
-1.64992e-252
1.51783e-256
-2.49312e-250
1.79897e-254
-3.75286e-248
1.96805e-252
-5.63351e-246
1.85219e-250
-8.44192e-244
1.13921e-248
-1.21964e-241
-4.45029e-243
-1.55023e-239
-2.76734e-240
-1.71137e-237
-6.13875e-238
-1.61757e-235
-9.55318e-236
-1.28875e-233
-1.15113e-233
-8.51373e-232
-1.10086e-231
-4.58808e-230
-8.37661e-230
-1.98797e-228
-5.04239e-228
-6.85108e-227
-2.38311e-226
-1.86754e-225
-8.79332e-225
-4.02887e-224
-2.52996e-223
-6.92079e-223
-5.69967e-222
-9.56392e-222
-1.01468e-220
-1.07698e-220
-1.44548e-219
-1.00233e-219
-1.67207e-218
-7.82044e-219
-1.59496e-217
-5.18649e-218
-1.27378e-216
-2.96209e-217
-8.64121e-216
-1.47469e-216
-5.04731e-215
-6.47202e-216
-2.5704e-214
-2.52936e-215
-1.15446e-213
-8.88436e-215
-4.62035e-213
-2.82822e-214
-1.66334e-212
-8.22162e-214
-5.43229e-212
-2.19758e-213
-1.6219e-211
-5.43443e-213
-4.45798e-211
-1.25026e-212
-1.13515e-210
-2.68967e-212
-2.69301e-210
-5.43646e-212
-5.9835e-210
-1.03682e-211
-1.2512e-209
-1.87316e-211
-2.47325e-209
-3.21724e-211
-4.64031e-209
-5.2697e-211
-8.29462e-209
-8.25367e-211
-1.41725e-208
-1.23917e-210
-2.32142e-208
-1.78732e-210
-3.65497e-208
-2.48135e-210
-5.54526e-208
-3.32216e-210
-8.12528e-208
-4.2958e-210
-1.15249e-207
-5.37197e-210
-1.5855e-207
-6.50294e-210
-2.11952e-207
-7.62445e-210
-2.75787e-207
-8.66035e-210
-3.4976e-207
-9.52749e-210
-4.32915e-207
-1.01436e-209
-5.23562e-207
-1.04353e-209
-6.19302e-207
-1.03458e-209
-7.1719e-207
-9.84037e-210
-8.13842e-207
-8.90863e-210
-9.05602e-207
-7.55017e-210
-9.88519e-207
-5.53475e-210
-1.05567e-206
-1.45271e-210
-1.04686e-206
-8.73879e-218
-4.24772e-207
-5.5749e-214
5.10752e-214
-3.32652e-210
2.74965e-207
-7.51875e-204
9.13315e-207
-1.62486e-203
1.26598e-206
-1.69081e-203
1.54041e-206
-1.6542e-203
1.74771e-206
-1.57051e-203
1.87783e-206
-1.45128e-203
1.92655e-206
-1.30645e-203
1.89971e-206
-1.1478e-203
1.80718e-206
-9.8482e-204
1.66219e-206
-8.25194e-204
1.47994e-206
-6.74954e-204
1.27624e-206
-5.38527e-204
1.06592e-206
-4.18698e-204
8.6186e-207
-3.16834e-204
6.74092e-207
-2.33006e-204
5.09413e-207
-1.66254e-204
3.71456e-207
-1.14888e-204
2.60905e-207
-7.67299e-205
1.76183e-207
-4.94171e-205
1.14124e-207
-3.06138e-205
7.07338e-208
-1.81924e-205
4.18305e-208
-1.03392e-205
2.35297e-208
-5.60106e-206
1.25456e-208
-2.88184e-206
6.31662e-209
-1.40276e-206
2.99097e-209
-6.43248e-207
1.32565e-209
-2.7654e-207
5.47093e-210
-1.10867e-207
2.09032e-210
-4.12073e-208
7.34729e-211
-1.41081e-208
2.3591e-211
-4.41768e-209
6.86554e-212
-1.25518e-209
1.79525e-212
-3.20758e-210
4.17704e-213
-7.30014e-211
8.55408e-214
-1.46344e-211
1.52304e-214
-2.55222e-212
2.32534e-215
-3.81836e-213
2.99731e-216
-4.82369e-214
3.20495e-217
-5.05428e-215
2.78709e-218
-4.30448e-216
1.92769e-219
-2.91217e-217
1.03429e-220
-1.52524e-218
4.18783e-222
-6.00855e-220
1.24231e-223
-1.72516e-221
2.62129e-225
-3.49407e-223
3.84196e-227
-4.84853e-225
3.90006e-229
-4.54962e-227
2.87397e-231
-2.97361e-229
1.73196e-233
-1.4945e-231
9.79919e-236
-6.5491e-234
5.56517e-238
-2.60752e-236
3.20434e-240
-8.57368e-239
1.86627e-242
-1.21542e-241
1.19833e-244
3.16952e-247
8.01083e-247
5.26743e-249
5.34054e-249
5.64262e-251
3.54685e-251
5.18736e-253
2.34414e-253
4.39831e-255
1.54004e-255
3.54024e-257
1.00462e-257
2.74364e-259
6.49976e-260
2.06312e-261
4.16586e-262
1.512e-263
2.6418e-264
1.08273e-265
1.65554e-266
7.58638e-268
1.02392e-268
5.20451e-270
6.24162e-271
3.49635e-272
3.74483e-273
2.29954e-274
2.20823e-275
1.47991e-276
1.27786e-277
9.3128e-279
7.2455e-280
5.7249e-281
4.01865e-282
3.43415e-283
2.17655e-284
2.00764e-285
1.14905e-286
1.14224e-287
5.90138e-289
6.31476e-290
2.94251e-291
3.38647e-292
1.42129e-293
1.75843e-294
6.63483e-296
8.82302e-297
2.98586e-298
4.26845e-299
1.29187e-300
1.98632e-301
5.35794e-303
8.86787e-304
2.12328e-305
3.7874e-306
8.01141e-308
1.5426e-308
2.86684e-310
5.97107e-311
9.68719e-313
2.18813e-313
3.07585e-315
7.55875e-316
9.1262e-318
2.44952e-318
2.5143e-320
7.40604e-321
6.42285e-323
1.97626e-323
0
0
0
0
0
0
0
0
0
0
0
0
0
0
0
0
0
0
0
0
0
0
0
0
0
0
0
0
0
0
0
0
0
0
0
0
0
0
0
0
-4.44659e-323
0
-1.86016e-320
1.4822e-323
-7.32765e-318
6.0523e-321
-2.66024e-315
2.15913e-318
-8.96729e-313
7.14263e-316
-2.82459e-310
2.20439e-313
-8.36027e-308
6.38214e-311
-2.33659e-305
1.7418e-308
-6.19349e-303
4.50041e-306
-1.56308e-300
1.10508e-303
-3.76923e-298
2.58781e-301
-8.71268e-296
5.79723e-299
-1.93624e-293
1.24594e-296
-4.14818e-291
2.57571e-294
-8.58889e-289
5.13395e-292
-1.72273e-286
9.88823e-290
-3.35464e-284
1.84406e-287
-6.355e-282
3.33599e-285
-1.17346e-279
5.86408e-283
-2.1159e-277
1.00319e-280
-3.73205e-275
1.67258e-278
-6.44977e-273
2.72113e-276
-1.09387e-270
4.32466e-274
-1.82333e-268
6.72066e-272
-2.99137e-266
1.02201e-269
-4.83704e-264
1.52158e-267
-7.71923e-262
2.21839e-265
-1.21735e-259
3.16693e-263
-1.89951e-257
4.42388e-261
-2.93617e-255
6.03818e-259
-4.5014e-253
8.03241e-257
-6.8523e-251
1.03685e-254
-1.03689e-248
1.28883e-252
-1.56141e-246
1.52116e-250
-2.34233e-244
1.65649e-248
-3.50418e-242
1.5499e-246
-5.23337e-240
9.41323e-245
-7.51807e-238
-2.92496e-239
-9.46696e-236
-1.75751e-236
-1.03101e-233
-3.84329e-234
-9.56775e-232
-5.88244e-232
-7.44456e-230
-6.94105e-230
-4.77577e-228
-6.46585e-228
-2.48483e-226
-4.76502e-226
-1.03372e-224
-2.76207e-224
-3.4042e-223
-1.25016e-222
-8.83693e-222
-4.39758e-221
-1.81202e-220
-1.20244e-219
-2.957e-219
-2.57057e-218
-3.88422e-218
-4.34172e-217
-4.16345e-217
-5.87346e-216
-3.69533e-216
-6.46241e-215
-2.75566e-215
-5.87562e-214
-1.75073e-214
-4.48304e-213
-9.60086e-214
-2.91256e-212
-4.59985e-213
-1.63317e-211
-1.94689e-212
-8.00265e-211
-7.35329e-212
-3.4659e-210
-2.50112e-211
-1.34042e-209
-7.72449e-211
-4.67256e-209
-2.18228e-210
-1.48041e-208
-5.67809e-210
-4.2954e-208
-1.369e-209
-1.14924e-207
-3.07548e-209
-2.85308e-207
-6.47052e-209
-6.60932e-207
-1.28087e-208
-1.43615e-206
-2.39548e-208
-2.94116e-206
-4.24887e-208
-5.70109e-206
-7.17237e-208
-1.05014e-205
-1.15581e-207
-1.84492e-205
-1.78281e-207
-3.10135e-205
-2.63861e-207
-5.00286e-205
-3.75544e-207
-7.76496e-205
-5.15007e-207
-1.16252e-204
-6.81735e-207
-1.68265e-204
-8.72365e-207
-2.35977e-204
-1.08047e-206
-3.21261e-204
-1.29637e-206
-4.25357e-204
-1.50758e-206
-5.48562e-204
-1.69971e-206
-6.90041e-204
-1.85739e-206
-8.47764e-204
-1.96582e-206
-1.01841e-203
-2.01196e-206
-1.19753e-203
-1.98576e-206
-1.37968e-203
-1.88135e-206
-1.55861e-203
-1.69761e-206
-1.72763e-203
-1.43527e-206
-1.87972e-203
-1.05114e-206
-2.00266e-203
-2.7834e-207
-1.98398e-203
-1.97645e-214
-8.11911e-204
-1.2557e-210
6.74233e-211
-4.60077e-207
3.94368e-204
-1.12804e-200
1.33082e-203
-2.4335e-200
1.83294e-203
-2.48367e-200
2.21199e-203
-2.39138e-200
2.49711e-203
-2.25005e-200
2.67774e-203
-2.07083e-200
2.75112e-203
-1.86446e-200
2.72186e-203
-1.64232e-200
2.60166e-203
-1.41524e-200
2.40717e-203
-1.19259e-200
2.1582e-203
-9.82123e-201
1.87591e-203
-7.89745e-201
1.58059e-203
-6.19398e-201
1.29041e-203
-4.73237e-201
1.01997e-203
-3.51702e-201
7.79653e-204
-2.53825e-201
5.75579e-204
-1.7758e-201
4.09691e-204
-1.20185e-201
2.80636e-204
-7.85166e-202
1.84588e-204
-4.93902e-202
1.16294e-204
-2.98342e-202
6.99864e-205
-1.72542e-202
4.01084e-205
-9.52294e-203
2.18147e-205
-4.99806e-203
1.12188e-205
-2.48493e-203
5.43341e-206
-1.16548e-203
2.46669e-206
-5.13229e-204
1.04434e-206
-2.11081e-204
4.10007e-207
-8.06157e-205
1.48341e-207
-2.84103e-205
4.9119e-208
-9.1743e-206
1.47712e-208
-2.6936e-206
3.99977e-209
-7.12838e-207
9.65939e-210
-1.68398e-207
2.05825e-210
-3.51281e-208
3.82324e-211
-6.39197e-209
6.10719e-212
-1.00065e-209
8.26141e-213
-1.32687e-210
9.3012e-214
-1.46421e-211
8.54645e-215
-1.318e-212
6.26893e-216
-9.46048e-214
3.58082e-217
-5.27786e-215
1.54945e-218
-2.22359e-216
4.92949e-220
-6.85391e-218
1.11839e-221
-1.49479e-219
1.7627e-223
-2.23559e-221
1.91307e-225
-2.25125e-223
1.48234e-227
-1.55616e-225
9.14998e-230
-8.06108e-228
5.20033e-232
-3.56219e-230
2.95172e-234
-1.42157e-232
1.69857e-236
-4.69639e-235
9.8916e-239
-6.88022e-238
6.35689e-241
2.07295e-243
4.26636e-243
3.50108e-245
2.85557e-245
3.77682e-247
1.90411e-247
3.49071e-249
1.26354e-249
2.97392e-251
8.3351e-252
2.40466e-253
5.45968e-254
1.87192e-255
3.54701e-256
1.41387e-257
2.28289e-258
1.04076e-259
1.45382e-260
7.48549e-262
9.14949e-263
5.26782e-264
5.68305e-265
3.62969e-266
3.47925e-267
2.44909e-268
2.09655e-269
1.61786e-270
1.2417e-271
1.04583e-272
7.21723e-274
6.6106e-275
4.11036e-276
4.08199e-277
2.28998e-278
2.45966e-279
1.24587e-280
1.44444e-281
6.60705e-283
8.25544e-284
3.40877e-285
4.5848e-286
1.70747e-287
2.47005e-288
8.28549e-290
1.28852e-290
3.8858e-292
6.49529e-293
1.75689e-294
3.15703e-295
7.63714e-297
1.47602e-297
3.18241e-299
6.62069e-300
1.26713e-301
2.84104e-302
4.8038e-304
1.16266e-304
1.72723e-306
4.52197e-307
5.86441e-309
1.66507e-309
1.87102e-311
5.77968e-312
5.57826e-314
1.88206e-314
1.54422e-316
5.71773e-317
3.93998e-319
1.61036e-319
9.18962e-322
4.15015e-322
0
0
0
0
0
0
0
0
0
0
0
0
0
0
0
0
0
0
0
0
0
0
0
0
0
0
0
0
0
0
0
0
0
0
0
0
-4.99006e-322
0
-2.37957e-319
2.56914e-322
-1.02098e-316
1.08171e-319
-4.00229e-314
4.1742e-317
-1.446e-311
1.48233e-314
-4.85083e-309
4.88004e-312
-1.52064e-306
1.49886e-309
-4.47931e-304
4.31874e-307
-1.24596e-301
1.17304e-304
-3.28696e-299
3.01647e-302
-8.25633e-297
7.37194e-300
-1.9816e-294
1.71816e-297
-4.55914e-292
3.83093e-295
-1.00848e-289
8.19488e-293
-2.15056e-287
1.68622e-290
-4.43231e-285
3.34546e-288
-8.8495e-283
6.41385e-286
-1.71542e-280
1.19064e-283
-3.235e-278
2.1441e-281
-5.94666e-276
3.75187e-279
-1.06748e-273
6.38942e-277
-1.87451e-271
1.06048e-274
-3.2253e-269
1.71757e-272
-5.44617e-267
2.71757e-270
-9.03869e-265
4.20444e-268
-1.47651e-262
6.36543e-266
-2.37733e-260
9.43538e-264
-3.77781e-258
1.36962e-261
-5.9327e-256
1.94666e-259
-9.21862e-254
2.70729e-257
-1.41908e-251
3.67883e-255
-2.16665e-249
4.87193e-253
-3.2848e-247
6.26026e-251
-4.95052e-245
7.74524e-249
-7.42494e-243
9.09645e-247
-1.10943e-240
9.8516e-245
-1.65321e-238
9.15066e-243
-2.45939e-236
5.46171e-241
-3.50876e-234
-1.47628e-235
-4.37048e-232
-8.4814e-233
-4.68727e-230
-1.82217e-230
-4.26223e-228
-2.73581e-228
-3.23184e-226
-3.15318e-226
-2.00862e-224
-2.85397e-224
-1.00654e-222
-2.03176e-222
-4.01076e-221
-1.13109e-220
-1.25933e-219
-4.89056e-219
-3.1072e-218
-1.6363e-217
-6.04642e-217
-4.24399e-216
-9.36247e-216
-8.59607e-215
-1.16802e-214
-1.37591e-213
-1.19102e-213
-1.76613e-212
-1.00768e-212
-1.84733e-211
-7.17932e-212
-1.60025e-210
-4.36818e-211
-1.16609e-209
-2.29956e-210
-7.25336e-209
-1.06008e-209
-3.90358e-208
-4.32664e-209
-1.8402e-207
-1.57916e-208
-7.68446e-207
-5.20099e-208
-2.87173e-206
-1.55826e-207
-9.69256e-206
-4.27838e-207
-2.97899e-205
-1.08364e-206
-8.39997e-205
-2.54732e-206
-2.18771e-204
-5.58812e-206
-5.29524e-204
-1.14975e-205
-1.19785e-203
-2.22889e-205
-2.54542e-203
-4.08751e-205
-5.10508e-203
-7.11758e-205
-9.70344e-203
-1.18084e-204
-1.75473e-202
-1.87215e-204
-3.02979e-202
-2.84406e-204
-5.01089e-202
-4.14982e-204
-7.96101e-202
-5.82858e-204
-1.2182e-201
-7.89558e-204
-1.79984e-201
-1.03337e-203
-2.57337e-201
-1.30853e-203
-3.56819e-201
-1.60509e-203
-4.80708e-201
-1.9088e-203
-6.30346e-201
-2.20182e-203
-8.05746e-201
-2.46411e-203
-1.00537e-200
-2.67477e-203
-1.22607e-200
-2.81416e-203
-1.46308e-200
-2.86524e-203
-1.71024e-200
-2.8151e-203
-1.9602e-200
-2.65668e-203
-2.20447e-200
-2.38958e-203
-2.43407e-200
-2.01552e-203
-2.63975e-200
-1.47465e-203
-2.80564e-200
-3.93917e-204
-2.77623e-200
-3.29944e-211
-1.1459e-200
-2.08838e-207
7.72408e-208
-5.29141e-204
4.45314e-201
-1.29737e-197
1.51825e-200
-2.81377e-197
2.0863e-200
-2.84939e-197
2.50787e-200
-2.72199e-197
2.82479e-200
-2.54927e-197
3.02986e-200
-2.3428e-197
3.11937e-200
-2.1115e-197
3.09721e-200
-1.86533e-197
2.97461e-200
-1.61443e-197
2.76839e-200
-1.36806e-197
2.49908e-200
-1.13414e-197
2.18911e-200
-9.18975e-198
1.8605e-200
-7.26954e-198
1.53348e-200
-5.60698e-198
1.2248e-200
-4.2105e-198
9.46899e-201
-3.07325e-198
7.07677e-201
-2.17656e-198
5.10423e-201
-1.49266e-198
3.54641e-201
-9.89077e-199
2.36844e-201
-6.31705e-199
1.51669e-201
-3.87842e-199
9.28787e-202
-2.28239e-199
5.42268e-202
-1.28332e-199
3.00845e-202
-6.8702e-200
1.58022e-202
-3.48863e-200
7.82752e-203
-1.67347e-200
3.63977e-203
-7.54788e-201
1.58079e-203
-3.18444e-201
6.37698e-204
-1.24965e-201
2.37485e-204
-4.53309e-202
8.10944e-205
-1.5096e-202
2.51999e-205
-4.58004e-203
7.0664e-206
-1.25521e-203
1.77132e-206
-3.07794e-204
3.92743e-207
-6.68141e-205
7.61151e-208
-1.26856e-205
1.27222e-208
-2.07822e-206
1.80638e-209
-2.89292e-207
2.14179e-210
-3.3627e-208
2.07998e-211
-3.20007e-209
1.61862e-212
-2.43783e-210
9.84748e-214
-1.44932e-211
4.5566e-215
-6.53416e-213
1.55605e-216
-2.16399e-214
3.8008e-218
-5.08825e-216
6.455e-220
-8.21781e-218
7.51614e-222
-8.91022e-220
6.15703e-224
-6.54878e-222
3.91496e-226
-3.51824e-224
2.24165e-228
-1.57374e-226
1.27302e-230
-6.30587e-229
7.32731e-233
-2.09751e-231
4.26986e-235
-3.19874e-234
2.74723e-237
1.04938e-239
1.85288e-239
1.81025e-241
1.24636e-241
1.97044e-243
8.35263e-244
1.8336e-245
5.57084e-246
1.57167e-247
3.69369e-248
1.27819e-249
2.43196e-250
1.00065e-251
1.58822e-252
7.6001e-254
1.02757e-254
5.62541e-256
6.5786e-257
4.06823e-258
4.16231e-259
2.87868e-260
2.59928e-261
1.99441e-262
1.59996e-263
1.35315e-264
9.69394e-266
8.98862e-267
5.773e-268
5.84299e-269
3.37412e-270
3.71406e-271
1.93239e-272
2.30634e-273
1.08265e-274
1.3976e-275
5.92359e-277
8.25428e-278
3.15933e-279
4.74466e-280
1.63937e-281
2.65026e-282
8.25923e-284
1.43612e-284
4.03116e-286
7.53542e-287
1.90165e-288
3.82085e-289
8.64866e-291
1.86808e-291
3.78182e-293
8.78568e-294
1.58528e-295
3.96432e-296
6.34979e-298
1.71134e-298
2.42173e-300
7.04562e-301
8.76004e-303
2.75685e-303
2.9923e-305
1.02129e-305
9.6049e-308
3.56661e-308
2.88108e-310
1.1685e-310
8.02449e-313
3.57165e-313
2.05996e-315
1.01211e-315
4.8315e-318
2.63938e-318
1.02469e-320
6.27957e-321
1.97626e-323
1.4822e-323
0
0
0
0
0
0
0
0
0
0
0
0
0
0
0
0
0
0
0
0
0
0
0
0
0
0
0
0
-9.88131e-324
0
-4.47129e-321
4.94066e-324
-2.3617e-318
3.10767e-321
-1.11396e-315
1.44786e-318
-4.75036e-313
6.08707e-316
-1.85079e-310
2.33459e-313
-6.64604e-308
8.23983e-311
-2.21598e-305
2.69613e-308
-6.90461e-303
8.23068e-306
-2.02162e-300
2.35719e-303
-5.58957e-298
6.36392e-301
-1.46578e-295
1.62664e-298
-3.6599e-293
3.95154e-296
-8.73211e-291
9.15485e-294
-1.99719e-288
2.02912e-291
-4.39189e-286
4.31496e-289
-9.31103e-284
8.82656e-287
-1.90788e-281
1.74097e-284
-3.78733e-279
3.31838e-282
-7.2995e-277
6.12448e-280
-1.36874e-274
1.09655e-277
-2.50185e-272
1.90784e-275
-4.46587e-270
3.23056e-273
-7.79845e-268
5.33154e-271
-1.33439e-265
8.58651e-269
-2.24087e-263
1.35098e-266
-3.69878e-261
2.07853e-264
-6.0095e-259
3.12941e-262
-9.62402e-257
4.6131e-260
-1.52122e-254
6.65947e-258
-2.37635e-252
9.41308e-256
-3.67323e-250
1.30189e-253
-5.62513e-248
1.75932e-251
-8.54429e-246
2.31695e-249
-1.28877e-243
2.96042e-247
-1.9325e-241
3.64136e-245
-2.88391e-239
4.25024e-243
-4.28775e-237
4.57116e-241
-6.35796e-235
4.20659e-239
-9.41236e-233
2.45481e-237
-1.33139e-230
-6.1204e-232
-1.63753e-228
-3.33242e-229
-1.72618e-226
-7.01314e-227
-1.53482e-224
-1.03038e-224
-1.13151e-222
-1.15719e-222
-6.79631e-221
-1.01512e-220
-3.27166e-219
-6.96276e-219
-1.24557e-217
-3.71263e-217
-3.72068e-216
-1.5295e-215
-8.70949e-215
-4.85675e-214
-1.60601e-213
-1.1927e-212
-2.357e-212
-2.28559e-211
-2.79042e-211
-3.46331e-210
-2.70516e-210
-4.21492e-209
-2.18073e-209
-4.18878e-208
-1.48389e-208
-3.45568e-207
-8.64432e-208
-2.40419e-206
-4.36766e-207
-1.43147e-205
-1.93708e-206
-7.39267e-205
-7.62335e-206
-3.35237e-204
-2.68862e-205
-1.34974e-203
-8.5737e-205
-4.87372e-203
-2.4919e-204
-1.59264e-202
-6.64895e-204
-4.74835e-202
-1.63938e-203
-1.30116e-201
-3.75743e-203
-3.29885e-201
-8.04917e-203
-7.78521e-201
-1.61958e-202
-1.71976e-200
-3.07465e-202
-3.57391e-200
-5.52884e-202
-7.01939e-200
-9.45139e-202
-1.30827e-199
-1.54108e-201
-2.32263e-199
-2.40389e-201
-3.94148e-199
-3.5967e-201
-6.41372e-199
-5.17405e-201
-1.00359e-198
-7.17184e-201
-1.51408e-198
-9.59685e-201
-2.20768e-198
-1.24186e-200
-3.11808e-198
-1.55612e-200
-4.27475e-198
-1.89042e-200
-5.69894e-198
-2.22822e-200
-7.40115e-198
-2.54943e-200
-9.37702e-198
-2.83208e-200
-1.16054e-197
-3.05381e-200
-1.40492e-197
-3.19396e-200
-1.66541e-197
-3.23497e-200
-1.93527e-197
-3.16395e-200
-2.2066e-197
-2.97445e-200
-2.47041e-197
-2.66714e-200
-2.7172e-197
-2.24449e-200
-2.93758e-197
-1.64023e-200
-3.11461e-197
-4.41931e-201
-3.07846e-197
-4.36097e-208