/*--------------------------------*- C++ -*----------------------------------*\
| =========                 |                                                 |
| \\      /  F ield         | OpenFOAM: The Open Source CFD Toolbox           |
|  \\    /   O peration     | Version:  2412                                  |
|   \\  /    A nd           | Website:  www.openfoam.com                      |
|    \\/     M anipulation  |                                                 |
\*---------------------------------------------------------------------------*/
FoamFile
{
    version     2.0;
    format      ascii;
    arch        "LSB;label=32;scalar=64";
    class       volScalarField;
    location    "1.05";
    object      p;
}
// * * * * * * * * * * * * * * * * * * * * * * * * * * * * * * * * * * * * * //

dimensions      [1 -1 -2 0 0 0 0];

internalField   nonuniform List<scalar> 
40000
(
0
-0.000131826
-0.000395449
-0.000829101
-0.00143841
-0.00222089
-0.00317394
-0.00429645
-0.00558696
-0.00704417
-0.00866685
-0.0104538
-0.0124036
-0.0145151
-0.0167868
-0.0192172
-0.0218046
-0.0245472
-0.027443
-0.0304899
-0.0336856
-0.037028
-0.0405149
-0.0441436
-0.0479116
-0.0518161
-0.0558543
-0.0600229
-0.0643189
-0.0687391
-0.0732799
-0.0779378
-0.0827092
-0.0875902
-0.0925771
-0.0976657
-0.102852
-0.108132
-0.113501
-0.118954
-0.124487
-0.130095
-0.135773
-0.141516
-0.147319
-0.153177
-0.159083
-0.165033
-0.171021
-0.177041
-0.183089
-0.189157
-0.195239
-0.201331
-0.207425
-0.213516
-0.219596
-0.225661
-0.231703
-0.237715
-0.243693
-0.249628
-0.255514
-0.261346
-0.267116
-0.272818
-0.278445
-0.283992
-0.289451
-0.294816
-0.300082
-0.30524
-0.310286
-0.315213
-0.320015
-0.324686
-0.329221
-0.333613
-0.337858
-0.34195
-0.345883
-0.349653
-0.353255
-0.356684
-0.359935
-0.363005
-0.36589
-0.368584
-0.371086
-0.373391
-0.375497
-0.377401
-0.3791
-0.380592
-0.381874
-0.382945
-0.383804
-0.384449
-0.38488
-0.385097
-0.385098
-0.384883
-0.384454
-0.383811
-0.382954
-0.381884
-0.380604
-0.379114
-0.377418
-0.375516
-0.373412
-0.371109
-0.368609
-0.365916
-0.363034
-0.359966
-0.356716
-0.353289
-0.349688
-0.34592
-0.341988
-0.337898
-0.333655
-0.329264
-0.324731
-0.320061
-0.315261
-0.310335
-0.305291
-0.300134
-0.29487
-0.289507
-0.284049
-0.278504
-0.272877
-0.267176
-0.261407
-0.255577
-0.249691
-0.243757
-0.237781
-0.231769
-0.225729
-0.219665
-0.213586
-0.207496
-0.201403
-0.195313
-0.189231
-0.183164
-0.177117
-0.171098
-0.16511
-0.159161
-0.153255
-0.147398
-0.141596
-0.135854
-0.130176
-0.124569
-0.119037
-0.113584
-0.108216
-0.102936
-0.0977501
-0.0926618
-0.0876754
-0.0827949
-0.0780241
-0.0733667
-0.0688266
-0.0644072
-0.0601119
-0.055944
-0.0519064
-0.0480024
-0.0442351
-0.0406068
-0.0371206
-0.0337784
-0.0305826
-0.0275358
-0.02464
-0.0218975
-0.0193101
-0.0168795
-0.0146071
-0.0124947
-0.0105437
-0.00875539
-0.00713135
-0.00567219
-0.00437863
-0.003252
-0.00229268
-0.00150136
-0.00087885
-0.000424728
-0.000139792
-1.71156e-05
-3.92389
-3.924
-3.92427
-3.9247
-3.92531
-3.9261
-3.92705
-3.92817
-3.92947
-3.93092
-3.93255
-3.93433
-3.93629
-3.9384
-3.94067
-3.9431
-3.94569
-3.94844
-3.95133
-3.95438
-3.95758
-3.96092
-3.96441
-3.96804
-3.97181
-3.97572
-3.97976
-3.98393
-3.98823
-3.99265
-3.99719
-4.00185
-4.00663
-4.01151
-4.0165
-4.02159
-4.02678
-4.03207
-4.03744
-4.0429
-4.04843
-4.05404
-4.05973
-4.06547
-4.07128
-4.07714
-4.08305
-4.08901
-4.095
-4.10102
-4.10707
-4.11315
-4.11923
-4.12533
-4.13143
-4.13752
-4.14361
-4.14968
-4.15572
-4.16174
-4.16772
-4.17366
-4.17955
-4.18539
-4.19117
-4.19687
-4.2025
-4.20806
-4.21352
-4.21889
-4.22416
-4.22932
-4.23437
-4.2393
-4.24411
-4.24879
-4.25333
-4.25772
-4.26197
-4.26607
-4.27
-4.27378
-4.27738
-4.28081
-4.28407
-4.28714
-4.29003
-4.29273
-4.29523
-4.29754
-4.29965
-4.30155
-4.30325
-4.30475
-4.30603
-4.3071
-4.30796
-4.30861
-4.30904
-4.30926
-4.30926
-4.30904
-4.30861
-4.30797
-4.30711
-4.30604
-4.30476
-4.30327
-4.30157
-4.29967
-4.29756
-4.29525
-4.29275
-4.29006
-4.28717
-4.2841
-4.28085
-4.27742
-4.27381
-4.27004
-4.2661
-4.26201
-4.25776
-4.25337
-4.24883
-4.24416
-4.23935
-4.23442
-4.22937
-4.22421
-4.21894
-4.21358
-4.20811
-4.20256
-4.19693
-4.19123
-4.18545
-4.17962
-4.17373
-4.16779
-4.16181
-4.15579
-4.14975
-4.14368
-4.13759
-4.1315
-4.1254
-4.11931
-4.11322
-4.10715
-4.1011
-4.09507
-4.08908
-4.08313
-4.07722
-4.07136
-4.06555
-4.05981
-4.05413
-4.04851
-4.04298
-4.03752
-4.03215
-4.02687
-4.02168
-4.01659
-4.0116
-4.00671
-4.00194
-3.99728
-3.99274
-3.98832
-3.98402
-3.97985
-3.97581
-3.9719
-3.96813
-3.9645
-3.96101
-3.95767
-3.95447
-3.95143
-3.94853
-3.94578
-3.9432
-3.94076
-3.93849
-3.93638
-3.93442
-3.93264
-3.93101
-3.92955
-3.92826
-3.92713
-3.92617
-3.92538
-3.92476
-3.9243
-3.92402
-3.9239
-7.84758
-7.8477
-7.84797
-7.84842
-7.84903
-7.84982
-7.85077
-7.8519
-7.85319
-7.85465
-7.85628
-7.85806
-7.86002
-7.86213
-7.86441
-7.86684
-7.86943
-7.87218
-7.87508
-7.87813
-7.88133
-7.88468
-7.88818
-7.89181
-7.89559
-7.8995
-7.90354
-7.90772
-7.91202
-7.91645
-7.921
-7.92567
-7.93045
-7.93534
-7.94033
-7.94543
-7.95063
-7.95592
-7.9613
-7.96676
-7.97231
-7.97793
-7.98362
-7.98937
-7.99519
-8.00106
-8.00698
-8.01294
-8.01894
-8.02498
-8.03104
-8.03712
-8.04322
-8.04932
-8.05543
-8.06154
-8.06764
-8.07372
-8.07977
-8.0858
-8.09179
-8.09774
-8.10365
-8.10949
-8.11528
-8.121
-8.12664
-8.1322
-8.13768
-8.14306
-8.14834
-8.15351
-8.15857
-8.16351
-8.16833
-8.17302
-8.17756
-8.18197
-8.18623
-8.19033
-8.19428
-8.19806
-8.20167
-8.20511
-8.20837
-8.21145
-8.21435
-8.21705
-8.21956
-8.22187
-8.22399
-8.2259
-8.2276
-8.2291
-8.23038
-8.23146
-8.23232
-8.23297
-8.2334
-8.23362
-8.23362
-8.2334
-8.23297
-8.23233
-8.23147
-8.23039
-8.22911
-8.22761
-8.22591
-8.224
-8.22189
-8.21958
-8.21707
-8.21437
-8.21148
-8.2084
-8.20514
-8.20171
-8.19809
-8.19431
-8.19037
-8.18627
-8.18201
-8.17761
-8.17306
-8.16838
-8.16356
-8.15862
-8.15356
-8.14839
-8.14311
-8.13773
-8.13226
-8.1267
-8.12106
-8.11534
-8.10956
-8.10371
-8.09781
-8.09186
-8.08587
-8.07984
-8.07378
-8.0677
-8.06161
-8.05551
-8.0494
-8.04329
-8.0372
-8.03111
-8.02505
-8.01902
-8.01302
-8.00706
-8.00114
-7.99527
-7.98945
-7.9837
-7.97801
-7.97239
-7.96685
-7.96138
-7.956
-7.95071
-7.94552
-7.94042
-7.93542
-7.93053
-7.92575
-7.92109
-7.91654
-7.91211
-7.90781
-7.90363
-7.89959
-7.89568
-7.8919
-7.88827
-7.88477
-7.88143
-7.87823
-7.87517
-7.87227
-7.86953
-7.86693
-7.8645
-7.86222
-7.86011
-7.85815
-7.85636
-7.85474
-7.85327
-7.85198
-7.85085
-7.84989
-7.8491
-7.84847
-7.84802
-7.84774
-7.84761
-11.7711
-11.7712
-11.7715
-11.772
-11.7726
-11.7734
-11.7743
-11.7755
-11.7767
-11.7782
-11.7798
-11.7816
-11.7836
-11.7857
-11.788
-11.7904
-11.793
-11.7958
-11.7987
-11.8017
-11.8049
-11.8083
-11.8118
-11.8154
-11.8192
-11.8231
-11.8272
-11.8314
-11.8357
-11.8401
-11.8447
-11.8494
-11.8542
-11.8591
-11.8641
-11.8692
-11.8744
-11.8797
-11.8851
-11.8905
-11.8961
-11.9017
-11.9074
-11.9132
-11.919
-11.9249
-11.9309
-11.9368
-11.9429
-11.9489
-11.955
-11.9611
-11.9672
-11.9733
-11.9794
-11.9856
-11.9917
-11.9978
-12.0038
-12.0099
-12.0159
-12.0219
-12.0278
-12.0337
-12.0395
-12.0452
-12.0509
-12.0564
-12.0619
-12.0673
-12.0726
-12.0778
-12.0829
-12.0878
-12.0927
-12.0974
-12.1019
-12.1064
-12.1106
-12.1148
-12.1187
-12.1225
-12.1261
-12.1296
-12.1329
-12.136
-12.1389
-12.1416
-12.1441
-12.1464
-12.1485
-12.1504
-12.1522
-12.1537
-12.155
-12.156
-12.1569
-12.1575
-12.158
-12.1582
-12.1582
-12.158
-12.1575
-12.1569
-12.156
-12.155
-12.1537
-12.1522
-12.1505
-12.1485
-12.1464
-12.1441
-12.1416
-12.1389
-12.136
-12.1329
-12.1296
-12.1262
-12.1225
-12.1188
-12.1148
-12.1107
-12.1064
-12.102
-12.0974
-12.0927
-12.0879
-12.0829
-12.0779
-12.0727
-12.0674
-12.062
-12.0565
-12.0509
-12.0453
-12.0395
-12.0337
-12.0279
-12.0219
-12.016
-12.01
-12.0039
-11.9978
-11.9917
-11.9856
-11.9795
-11.9734
-11.9673
-11.9612
-11.9551
-11.949
-11.9429
-11.9369
-11.9309
-11.925
-11.9191
-11.9133
-11.9075
-11.9018
-11.8962
-11.8906
-11.8852
-11.8798
-11.8745
-11.8693
-11.8641
-11.8591
-11.8542
-11.8494
-11.8448
-11.8402
-11.8358
-11.8315
-11.8273
-11.8232
-11.8193
-11.8155
-11.8119
-11.8084
-11.805
-11.8018
-11.7988
-11.7959
-11.7931
-11.7905
-11.7881
-11.7858
-11.7837
-11.7817
-11.7799
-11.7783
-11.7768
-11.7755
-11.7744
-11.7734
-11.7726
-11.772
-11.7716
-11.7713
-11.7712
-15.6945
-15.6946
-15.6949
-15.6953
-15.696
-15.6967
-15.6977
-15.6988
-15.7001
-15.7016
-15.7032
-15.705
-15.707
-15.7091
-15.7114
-15.7138
-15.7165
-15.7192
-15.7221
-15.7252
-15.7284
-15.7318
-15.7353
-15.7389
-15.7427
-15.7467
-15.7507
-15.7549
-15.7592
-15.7637
-15.7683
-15.7729
-15.7778
-15.7827
-15.7877
-15.7928
-15.798
-15.8034
-15.8088
-15.8143
-15.8198
-15.8255
-15.8312
-15.837
-15.8428
-15.8487
-15.8547
-15.8607
-15.8667
-15.8728
-15.8789
-15.885
-15.8912
-15.8973
-15.9035
-15.9096
-15.9157
-15.9219
-15.928
-15.934
-15.9401
-15.9461
-15.952
-15.9579
-15.9637
-15.9695
-15.9752
-15.9808
-15.9863
-15.9917
-15.997
-16.0022
-16.0073
-16.0123
-16.0172
-16.0219
-16.0265
-16.0309
-16.0352
-16.0393
-16.0433
-16.0471
-16.0508
-16.0542
-16.0575
-16.0606
-16.0636
-16.0663
-16.0688
-16.0711
-16.0733
-16.0752
-16.0769
-16.0784
-16.0797
-16.0808
-16.0817
-16.0823
-16.0828
-16.083
-16.083
-16.0828
-16.0823
-16.0817
-16.0808
-16.0797
-16.0784
-16.0769
-16.0752
-16.0733
-16.0712
-16.0688
-16.0663
-16.0636
-16.0607
-16.0576
-16.0543
-16.0508
-16.0472
-16.0434
-16.0394
-16.0352
-16.031
-16.0265
-16.0219
-16.0172
-16.0124
-16.0074
-16.0023
-15.9971
-15.9918
-15.9863
-15.9808
-15.9752
-15.9695
-15.9638
-15.9579
-15.9521
-15.9461
-15.9401
-15.9341
-15.928
-15.9219
-15.9158
-15.9097
-15.9035
-15.8974
-15.8912
-15.8851
-15.879
-15.8729
-15.8668
-15.8608
-15.8548
-15.8488
-15.8429
-15.8371
-15.8313
-15.8256
-15.8199
-15.8143
-15.8088
-15.8034
-15.7981
-15.7929
-15.7878
-15.7828
-15.7778
-15.773
-15.7683
-15.7638
-15.7593
-15.755
-15.7508
-15.7467
-15.7428
-15.739
-15.7354
-15.7319
-15.7285
-15.7253
-15.7222
-15.7193
-15.7165
-15.7139
-15.7115
-15.7092
-15.7071
-15.7051
-15.7033
-15.7017
-15.7002
-15.6989
-15.6978
-15.6968
-15.696
-15.6954
-15.6949
-15.6947
-15.6945
-19.6177
-19.6178
-19.6181
-19.6185
-19.6192
-19.62
-19.6209
-19.6221
-19.6234
-19.6248
-19.6265
-19.6283
-19.6302
-19.6324
-19.6347
-19.6371
-19.6397
-19.6425
-19.6454
-19.6485
-19.6517
-19.6551
-19.6586
-19.6623
-19.6661
-19.67
-19.6741
-19.6783
-19.6827
-19.6871
-19.6917
-19.6964
-19.7012
-19.7062
-19.7112
-19.7164
-19.7216
-19.7269
-19.7324
-19.7379
-19.7435
-19.7492
-19.7549
-19.7607
-19.7666
-19.7725
-19.7785
-19.7845
-19.7906
-19.7967
-19.8028
-19.809
-19.8151
-19.8213
-19.8275
-19.8336
-19.8398
-19.846
-19.8521
-19.8582
-19.8643
-19.8703
-19.8763
-19.8822
-19.888
-19.8938
-19.8995
-19.9052
-19.9107
-19.9162
-19.9215
-19.9268
-19.9319
-19.9369
-19.9418
-19.9465
-19.9511
-19.9556
-19.9599
-19.9641
-19.9681
-19.9719
-19.9756
-19.9791
-19.9824
-19.9855
-19.9885
-19.9912
-19.9937
-19.9961
-19.9982
-20.0002
-20.0019
-20.0034
-20.0047
-20.0058
-20.0067
-20.0073
-20.0078
-20.008
-20.008
-20.0078
-20.0074
-20.0067
-20.0058
-20.0047
-20.0034
-20.0019
-20.0002
-19.9983
-19.9961
-19.9938
-19.9912
-19.9885
-19.9855
-19.9824
-19.9791
-19.9756
-19.972
-19.9681
-19.9641
-19.96
-19.9556
-19.9512
-19.9466
-19.9418
-19.9369
-19.9319
-19.9268
-19.9216
-19.9162
-19.9108
-19.9052
-19.8996
-19.8939
-19.8881
-19.8822
-19.8763
-19.8703
-19.8643
-19.8583
-19.8522
-19.846
-19.8399
-19.8337
-19.8275
-19.8214
-19.8152
-19.809
-19.8029
-19.7968
-19.7907
-19.7846
-19.7786
-19.7726
-19.7667
-19.7608
-19.755
-19.7492
-19.7436
-19.738
-19.7324
-19.727
-19.7217
-19.7164
-19.7113
-19.7063
-19.7013
-19.6965
-19.6918
-19.6872
-19.6827
-19.6784
-19.6742
-19.6701
-19.6662
-19.6624
-19.6587
-19.6552
-19.6518
-19.6486
-19.6455
-19.6426
-19.6398
-19.6372
-19.6348
-19.6325
-19.6303
-19.6284
-19.6266
-19.6249
-19.6234
-19.6221
-19.621
-19.62
-19.6192
-19.6186
-19.6182
-19.6179
-19.6177
-23.5407
-23.5408
-23.5411
-23.5416
-23.5422
-23.543
-23.544
-23.5451
-23.5464
-23.5479
-23.5495
-23.5513
-23.5533
-23.5555
-23.5578
-23.5602
-23.5628
-23.5656
-23.5686
-23.5716
-23.5749
-23.5783
-23.5818
-23.5855
-23.5893
-23.5933
-23.5974
-23.6016
-23.6059
-23.6104
-23.615
-23.6198
-23.6246
-23.6296
-23.6346
-23.6398
-23.6451
-23.6504
-23.6559
-23.6614
-23.6671
-23.6728
-23.6785
-23.6844
-23.6903
-23.6962
-23.7022
-23.7083
-23.7144
-23.7205
-23.7267
-23.7329
-23.7391
-23.7453
-23.7515
-23.7577
-23.7639
-23.7701
-23.7763
-23.7824
-23.7885
-23.7946
-23.8006
-23.8065
-23.8124
-23.8182
-23.824
-23.8297
-23.8353
-23.8407
-23.8461
-23.8514
-23.8566
-23.8616
-23.8665
-23.8713
-23.876
-23.8805
-23.8848
-23.889
-23.893
-23.8969
-23.9006
-23.9041
-23.9074
-23.9106
-23.9135
-23.9163
-23.9189
-23.9212
-23.9234
-23.9253
-23.9271
-23.9286
-23.9299
-23.931
-23.9319
-23.9326
-23.933
-23.9332
-23.9332
-23.933
-23.9326
-23.9319
-23.931
-23.9299
-23.9286
-23.9271
-23.9254
-23.9234
-23.9213
-23.9189
-23.9163
-23.9136
-23.9106
-23.9075
-23.9041
-23.9006
-23.8969
-23.8931
-23.889
-23.8848
-23.8805
-23.876
-23.8714
-23.8666
-23.8617
-23.8566
-23.8515
-23.8462
-23.8408
-23.8353
-23.8297
-23.8241
-23.8183
-23.8125
-23.8066
-23.8006
-23.7946
-23.7886
-23.7825
-23.7763
-23.7702
-23.764
-23.7578
-23.7516
-23.7454
-23.7391
-23.7329
-23.7268
-23.7206
-23.7145
-23.7084
-23.7023
-23.6963
-23.6904
-23.6844
-23.6786
-23.6728
-23.6671
-23.6615
-23.656
-23.6505
-23.6452
-23.6399
-23.6347
-23.6297
-23.6247
-23.6199
-23.6151
-23.6105
-23.606
-23.6017
-23.5975
-23.5934
-23.5894
-23.5856
-23.5819
-23.5784
-23.575
-23.5717
-23.5687
-23.5657
-23.5629
-23.5603
-23.5579
-23.5556
-23.5534
-23.5514
-23.5496
-23.548
-23.5465
-23.5452
-23.5441
-23.5431
-23.5423
-23.5417
-23.5412
-23.5409
-23.5408
-27.4636
-27.4637
-27.464
-27.4644
-27.4651
-27.4659
-27.4668
-27.468
-27.4693
-27.4708
-27.4724
-27.4743
-27.4762
-27.4784
-27.4807
-27.4832
-27.4858
-27.4886
-27.4916
-27.4947
-27.4979
-27.5013
-27.5049
-27.5086
-27.5124
-27.5164
-27.5205
-27.5247
-27.5291
-27.5336
-27.5383
-27.543
-27.5479
-27.5529
-27.5579
-27.5631
-27.5684
-27.5738
-27.5793
-27.5849
-27.5905
-27.5963
-27.6021
-27.608
-27.6139
-27.6199
-27.6259
-27.632
-27.6382
-27.6443
-27.6505
-27.6568
-27.663
-27.6693
-27.6755
-27.6818
-27.688
-27.6942
-27.7004
-27.7066
-27.7128
-27.7189
-27.7249
-27.7309
-27.7369
-27.7427
-27.7485
-27.7543
-27.7599
-27.7654
-27.7708
-27.7762
-27.7814
-27.7865
-27.7914
-27.7962
-27.8009
-27.8054
-27.8098
-27.8141
-27.8181
-27.822
-27.8258
-27.8293
-27.8327
-27.8358
-27.8388
-27.8416
-27.8442
-27.8466
-27.8488
-27.8507
-27.8525
-27.854
-27.8554
-27.8565
-27.8574
-27.858
-27.8585
-27.8587
-27.8587
-27.8585
-27.858
-27.8574
-27.8565
-27.8554
-27.854
-27.8525
-27.8507
-27.8488
-27.8466
-27.8442
-27.8416
-27.8388
-27.8359
-27.8327
-27.8293
-27.8258
-27.8221
-27.8182
-27.8141
-27.8099
-27.8055
-27.801
-27.7963
-27.7915
-27.7865
-27.7814
-27.7762
-27.7709
-27.7655
-27.7599
-27.7543
-27.7486
-27.7428
-27.7369
-27.731
-27.725
-27.7189
-27.7128
-27.7067
-27.7005
-27.6943
-27.6881
-27.6818
-27.6756
-27.6693
-27.6631
-27.6568
-27.6506
-27.6444
-27.6383
-27.6321
-27.626
-27.62
-27.614
-27.608
-27.6022
-27.5964
-27.5906
-27.585
-27.5794
-27.5739
-27.5685
-27.5632
-27.558
-27.5529
-27.548
-27.5431
-27.5383
-27.5337
-27.5292
-27.5248
-27.5206
-27.5165
-27.5125
-27.5086
-27.505
-27.5014
-27.498
-27.4947
-27.4916
-27.4887
-27.4859
-27.4833
-27.4808
-27.4785
-27.4763
-27.4744
-27.4725
-27.4709
-27.4694
-27.4681
-27.4669
-27.466
-27.4652
-27.4645
-27.4641
-27.4638
-27.4637
-31.3863
-31.3864
-31.3867
-31.3871
-31.3878
-31.3886
-31.3896
-31.3907
-31.392
-31.3935
-31.3952
-31.397
-31.399
-31.4012
-31.4035
-31.406
-31.4086
-31.4114
-31.4144
-31.4175
-31.4208
-31.4242
-31.4278
-31.4315
-31.4353
-31.4393
-31.4435
-31.4478
-31.4522
-31.4567
-31.4613
-31.4661
-31.471
-31.476
-31.4812
-31.4864
-31.4917
-31.4971
-31.5027
-31.5083
-31.514
-31.5197
-31.5256
-31.5315
-31.5375
-31.5435
-31.5496
-31.5557
-31.5619
-31.5681
-31.5744
-31.5806
-31.5869
-31.5932
-31.5995
-31.6058
-31.6121
-31.6184
-31.6247
-31.6309
-31.6371
-31.6432
-31.6494
-31.6554
-31.6614
-31.6673
-31.6732
-31.6789
-31.6846
-31.6902
-31.6957
-31.701
-31.7063
-31.7114
-31.7164
-31.7213
-31.726
-31.7306
-31.735
-31.7393
-31.7434
-31.7473
-31.7511
-31.7547
-31.7581
-31.7613
-31.7643
-31.7671
-31.7697
-31.7721
-31.7743
-31.7763
-31.7781
-31.7797
-31.781
-31.7821
-31.783
-31.7837
-31.7842
-31.7844
-31.7844
-31.7842
-31.7837
-31.783
-31.7821
-31.781
-31.7797
-31.7781
-31.7763
-31.7744
-31.7722
-31.7698
-31.7671
-31.7643
-31.7613
-31.7581
-31.7547
-31.7511
-31.7474
-31.7434
-31.7393
-31.7351
-31.7306
-31.7261
-31.7213
-31.7165
-31.7115
-31.7063
-31.7011
-31.6957
-31.6902
-31.6847
-31.679
-31.6732
-31.6674
-31.6615
-31.6555
-31.6494
-31.6433
-31.6372
-31.631
-31.6247
-31.6185
-31.6122
-31.6059
-31.5996
-31.5933
-31.587
-31.5807
-31.5745
-31.5682
-31.562
-31.5558
-31.5497
-31.5436
-31.5376
-31.5316
-31.5257
-31.5198
-31.514
-31.5084
-31.5027
-31.4972
-31.4918
-31.4865
-31.4812
-31.4761
-31.4711
-31.4662
-31.4614
-31.4568
-31.4522
-31.4478
-31.4436
-31.4394
-31.4354
-31.4316
-31.4279
-31.4243
-31.4209
-31.4176
-31.4145
-31.4115
-31.4087
-31.4061
-31.4036
-31.4013
-31.3991
-31.3971
-31.3953
-31.3936
-31.3921
-31.3908
-31.3896
-31.3887
-31.3879
-31.3872
-31.3868
-31.3865
-31.3863
-35.3088
-35.3089
-35.3092
-35.3097
-35.3103
-35.3111
-35.3121
-35.3133
-35.3146
-35.3161
-35.3177
-35.3196
-35.3216
-35.3238
-35.3261
-35.3286
-35.3313
-35.3341
-35.3371
-35.3402
-35.3435
-35.3469
-35.3505
-35.3543
-35.3581
-35.3622
-35.3663
-35.3706
-35.3751
-35.3796
-35.3843
-35.3891
-35.3941
-35.3991
-35.4043
-35.4095
-35.4149
-35.4204
-35.4259
-35.4316
-35.4373
-35.4431
-35.449
-35.455
-35.461
-35.4671
-35.4732
-35.4794
-35.4856
-35.4919
-35.4982
-35.5045
-35.5109
-35.5172
-35.5236
-35.5299
-35.5363
-35.5426
-35.5489
-35.5552
-35.5615
-35.5677
-35.5738
-35.5799
-35.586
-35.592
-35.5979
-35.6037
-35.6094
-35.6151
-35.6206
-35.626
-35.6313
-35.6365
-35.6416
-35.6465
-35.6513
-35.6559
-35.6604
-35.6647
-35.6688
-35.6728
-35.6766
-35.6802
-35.6837
-35.6869
-35.69
-35.6928
-35.6955
-35.6979
-35.7001
-35.7021
-35.7039
-35.7055
-35.7069
-35.708
-35.7089
-35.7096
-35.7101
-35.7103
-35.7103
-35.7101
-35.7096
-35.7089
-35.708
-35.7069
-35.7055
-35.704
-35.7022
-35.7002
-35.6979
-35.6955
-35.6928
-35.69
-35.687
-35.6837
-35.6803
-35.6767
-35.6729
-35.6689
-35.6647
-35.6604
-35.6559
-35.6513
-35.6465
-35.6416
-35.6366
-35.6314
-35.6261
-35.6207
-35.6151
-35.6095
-35.6038
-35.5979
-35.592
-35.5861
-35.58
-35.5739
-35.5677
-35.5615
-35.5553
-35.549
-35.5427
-35.5363
-35.53
-35.5236
-35.5173
-35.5109
-35.5046
-35.4983
-35.492
-35.4857
-35.4795
-35.4733
-35.4672
-35.4611
-35.455
-35.4491
-35.4432
-35.4374
-35.4317
-35.426
-35.4204
-35.415
-35.4096
-35.4043
-35.3992
-35.3941
-35.3892
-35.3844
-35.3797
-35.3752
-35.3707
-35.3664
-35.3623
-35.3582
-35.3544
-35.3506
-35.347
-35.3436
-35.3403
-35.3372
-35.3342
-35.3314
-35.3287
-35.3262
-35.3239
-35.3217
-35.3197
-35.3178
-35.3162
-35.3147
-35.3133
-35.3122
-35.3112
-35.3104
-35.3098
-35.3093
-35.309
-35.3089
-39.2311
-39.2313
-39.2315
-39.232
-39.2327
-39.2335
-39.2345
-39.2356
-39.237
-39.2385
-39.2402
-39.242
-39.244
-39.2462
-39.2486
-39.2511
-39.2538
-39.2566
-39.2596
-39.2627
-39.2661
-39.2695
-39.2731
-39.2769
-39.2808
-39.2849
-39.2891
-39.2934
-39.2979
-39.3024
-39.3072
-39.312
-39.317
-39.3221
-39.3273
-39.3326
-39.338
-39.3435
-39.3491
-39.3548
-39.3606
-39.3664
-39.3724
-39.3784
-39.3844
-39.3906
-39.3968
-39.403
-39.4093
-39.4156
-39.422
-39.4284
-39.4348
-39.4412
-39.4476
-39.454
-39.4604
-39.4668
-39.4732
-39.4795
-39.4859
-39.4921
-39.4984
-39.5045
-39.5107
-39.5167
-39.5227
-39.5286
-39.5343
-39.54
-39.5456
-39.5511
-39.5565
-39.5617
-39.5669
-39.5718
-39.5767
-39.5814
-39.5859
-39.5903
-39.5945
-39.5985
-39.6023
-39.606
-39.6095
-39.6128
-39.6159
-39.6187
-39.6214
-39.6239
-39.6261
-39.6282
-39.63
-39.6316
-39.633
-39.6341
-39.635
-39.6357
-39.6362
-39.6364
-39.6364
-39.6362
-39.6357
-39.635
-39.6341
-39.633
-39.6316
-39.63
-39.6282
-39.6262
-39.6239
-39.6214
-39.6188
-39.6159
-39.6128
-39.6095
-39.606
-39.6024
-39.5985
-39.5945
-39.5903
-39.5859
-39.5814
-39.5767
-39.5719
-39.5669
-39.5618
-39.5566
-39.5512
-39.5457
-39.5401
-39.5344
-39.5286
-39.5227
-39.5168
-39.5107
-39.5046
-39.4984
-39.4922
-39.4859
-39.4796
-39.4733
-39.4669
-39.4605
-39.4541
-39.4477
-39.4412
-39.4348
-39.4284
-39.4221
-39.4157
-39.4094
-39.4031
-39.3969
-39.3907
-39.3845
-39.3785
-39.3724
-39.3665
-39.3606
-39.3549
-39.3492
-39.3436
-39.3381
-39.3326
-39.3273
-39.3222
-39.3171
-39.3121
-39.3073
-39.3025
-39.2979
-39.2935
-39.2891
-39.285
-39.2809
-39.277
-39.2732
-39.2696
-39.2662
-39.2628
-39.2597
-39.2567
-39.2538
-39.2512
-39.2487
-39.2463
-39.2441
-39.2421
-39.2402
-39.2386
-39.2371
-39.2357
-39.2346
-39.2336
-39.2327
-39.2321
-39.2316
-39.2313
-39.2312
-43.1533
-43.1534
-43.1537
-43.1542
-43.1548
-43.1557
-43.1567
-43.1578
-43.1592
-43.1607
-43.1624
-43.1642
-43.1663
-43.1685
-43.1708
-43.1734
-43.1761
-43.1789
-43.182
-43.1851
-43.1885
-43.192
-43.1956
-43.1994
-43.2033
-43.2074
-43.2116
-43.216
-43.2205
-43.2251
-43.2299
-43.2348
-43.2398
-43.2449
-43.2502
-43.2555
-43.261
-43.2665
-43.2722
-43.2779
-43.2837
-43.2897
-43.2956
-43.3017
-43.3078
-43.314
-43.3203
-43.3266
-43.3329
-43.3393
-43.3457
-43.3522
-43.3586
-43.3651
-43.3716
-43.3781
-43.3846
-43.391
-43.3975
-43.4039
-43.4103
-43.4167
-43.423
-43.4292
-43.4354
-43.4415
-43.4475
-43.4535
-43.4594
-43.4651
-43.4708
-43.4764
-43.4818
-43.4871
-43.4923
-43.4973
-43.5022
-43.507
-43.5116
-43.516
-43.5202
-43.5243
-43.5282
-43.5319
-43.5355
-43.5388
-43.5419
-43.5449
-43.5476
-43.5501
-43.5524
-43.5544
-43.5563
-43.5579
-43.5593
-43.5605
-43.5614
-43.5621
-43.5626
-43.5628
-43.5628
-43.5626
-43.5621
-43.5614
-43.5605
-43.5593
-43.5579
-43.5563
-43.5544
-43.5524
-43.5501
-43.5476
-43.5449
-43.542
-43.5388
-43.5355
-43.532
-43.5283
-43.5244
-43.5203
-43.516
-43.5116
-43.507
-43.5023
-43.4974
-43.4923
-43.4872
-43.4818
-43.4764
-43.4709
-43.4652
-43.4594
-43.4536
-43.4476
-43.4416
-43.4354
-43.4293
-43.423
-43.4167
-43.4104
-43.404
-43.3976
-43.3911
-43.3846
-43.3782
-43.3717
-43.3652
-43.3587
-43.3523
-43.3458
-43.3394
-43.333
-43.3267
-43.3204
-43.3141
-43.3079
-43.3018
-43.2957
-43.2897
-43.2838
-43.278
-43.2722
-43.2666
-43.261
-43.2556
-43.2502
-43.245
-43.2399
-43.2349
-43.23
-43.2252
-43.2206
-43.2161
-43.2117
-43.2075
-43.2034
-43.1995
-43.1957
-43.1921
-43.1886
-43.1852
-43.1821
-43.179
-43.1762
-43.1735
-43.1709
-43.1686
-43.1664
-43.1643
-43.1625
-43.1608
-43.1593
-43.1579
-43.1568
-43.1558
-43.1549
-43.1543
-43.1538
-43.1535
-43.1534
-47.0753
-47.0754
-47.0757
-47.0762
-47.0768
-47.0777
-47.0787
-47.0799
-47.0812
-47.0827
-47.0844
-47.0863
-47.0884
-47.0906
-47.093
-47.0955
-47.0982
-47.1011
-47.1042
-47.1074
-47.1107
-47.1143
-47.1179
-47.1217
-47.1257
-47.1298
-47.1341
-47.1385
-47.143
-47.1477
-47.1525
-47.1574
-47.1625
-47.1676
-47.1729
-47.1783
-47.1838
-47.1894
-47.1951
-47.2009
-47.2068
-47.2128
-47.2189
-47.225
-47.2312
-47.2374
-47.2438
-47.2501
-47.2565
-47.263
-47.2695
-47.276
-47.2825
-47.2891
-47.2956
-47.3022
-47.3088
-47.3153
-47.3218
-47.3283
-47.3348
-47.3412
-47.3476
-47.3539
-47.3602
-47.3664
-47.3725
-47.3785
-47.3845
-47.3903
-47.3961
-47.4017
-47.4072
-47.4126
-47.4178
-47.423
-47.4279
-47.4327
-47.4374
-47.4419
-47.4462
-47.4503
-47.4543
-47.4581
-47.4617
-47.465
-47.4682
-47.4712
-47.4739
-47.4765
-47.4788
-47.4809
-47.4828
-47.4844
-47.4858
-47.487
-47.488
-47.4887
-47.4892
-47.4894
-47.4894
-47.4892
-47.4887
-47.488
-47.487
-47.4859
-47.4844
-47.4828
-47.4809
-47.4788
-47.4765
-47.474
-47.4712
-47.4682
-47.4651
-47.4617
-47.4581
-47.4543
-47.4504
-47.4462
-47.4419
-47.4374
-47.4328
-47.428
-47.423
-47.4179
-47.4126
-47.4073
-47.4017
-47.3961
-47.3904
-47.3845
-47.3786
-47.3726
-47.3664
-47.3602
-47.354
-47.3477
-47.3413
-47.3349
-47.3284
-47.3219
-47.3154
-47.3088
-47.3023
-47.2957
-47.2891
-47.2826
-47.2761
-47.2695
-47.2631
-47.2566
-47.2502
-47.2438
-47.2375
-47.2313
-47.2251
-47.2189
-47.2129
-47.2069
-47.201
-47.1952
-47.1895
-47.1839
-47.1784
-47.173
-47.1677
-47.1626
-47.1575
-47.1526
-47.1478
-47.1431
-47.1386
-47.1342
-47.1299
-47.1258
-47.1218
-47.118
-47.1143
-47.1108
-47.1075
-47.1043
-47.1012
-47.0983
-47.0956
-47.0931
-47.0907
-47.0885
-47.0864
-47.0845
-47.0828
-47.0813
-47.08
-47.0788
-47.0778
-47.0769
-47.0763
-47.0758
-47.0755
-47.0754
-50.9971
-50.9972
-50.9975
-50.998
-50.9987
-50.9995
-51.0005
-51.0017
-51.0031
-51.0046
-51.0063
-51.0082
-51.0103
-51.0125
-51.0149
-51.0175
-51.0202
-51.0232
-51.0262
-51.0295
-51.0328
-51.0364
-51.0401
-51.0439
-51.048
-51.0521
-51.0564
-51.0608
-51.0654
-51.0701
-51.075
-51.0799
-51.085
-51.0903
-51.0956
-51.1011
-51.1066
-51.1123
-51.118
-51.1239
-51.1298
-51.1359
-51.142
-51.1482
-51.1545
-51.1608
-51.1672
-51.1736
-51.1801
-51.1866
-51.1932
-51.1998
-51.2064
-51.213
-51.2197
-51.2263
-51.2329
-51.2396
-51.2462
-51.2528
-51.2593
-51.2658
-51.2723
-51.2787
-51.2851
-51.2913
-51.2975
-51.3037
-51.3097
-51.3156
-51.3214
-51.3272
-51.3328
-51.3382
-51.3435
-51.3487
-51.3538
-51.3587
-51.3634
-51.368
-51.3723
-51.3766
-51.3806
-51.3844
-51.388
-51.3915
-51.3947
-51.3977
-51.4005
-51.4031
-51.4055
-51.4076
-51.4095
-51.4112
-51.4126
-51.4138
-51.4148
-51.4155
-51.416
-51.4162
-51.4162
-51.416
-51.4155
-51.4148
-51.4138
-51.4126
-51.4112
-51.4095
-51.4076
-51.4055
-51.4031
-51.4006
-51.3977
-51.3947
-51.3915
-51.3881
-51.3844
-51.3806
-51.3766
-51.3724
-51.368
-51.3634
-51.3587
-51.3538
-51.3488
-51.3436
-51.3383
-51.3328
-51.3272
-51.3215
-51.3157
-51.3097
-51.3037
-51.2976
-51.2914
-51.2851
-51.2788
-51.2724
-51.2659
-51.2594
-51.2528
-51.2462
-51.2396
-51.233
-51.2264
-51.2197
-51.2131
-51.2065
-51.1998
-51.1933
-51.1867
-51.1802
-51.1737
-51.1672
-51.1609
-51.1545
-51.1483
-51.1421
-51.136
-51.1299
-51.124
-51.1181
-51.1124
-51.1067
-51.1011
-51.0957
-51.0904
-51.0851
-51.08
-51.0751
-51.0702
-51.0655
-51.0609
-51.0565
-51.0522
-51.048
-51.044
-51.0402
-51.0365
-51.0329
-51.0295
-51.0263
-51.0232
-51.0203
-51.0176
-51.015
-51.0126
-51.0104
-51.0083
-51.0064
-51.0047
-51.0032
-51.0018
-51.0006
-50.9996
-50.9988
-50.9981
-50.9976
-50.9973
-50.9972
-54.9187
-54.9189
-54.9192
-54.9197
-54.9203
-54.9212
-54.9222
-54.9234
-54.9248
-54.9263
-54.9281
-54.93
-54.932
-54.9343
-54.9367
-54.9393
-54.9421
-54.945
-54.9481
-54.9514
-54.9548
-54.9584
-54.9621
-54.966
-54.97
-54.9742
-54.9786
-54.983
-54.9877
-54.9924
-54.9973
-55.0023
-55.0075
-55.0128
-55.0182
-55.0237
-55.0293
-55.035
-55.0408
-55.0468
-55.0528
-55.0589
-55.0651
-55.0713
-55.0777
-55.0841
-55.0905
-55.097
-55.1036
-55.1102
-55.1169
-55.1235
-55.1302
-55.137
-55.1437
-55.1504
-55.1571
-55.1639
-55.1706
-55.1772
-55.1839
-55.1905
-55.197
-55.2035
-55.21
-55.2164
-55.2227
-55.2289
-55.235
-55.241
-55.2469
-55.2527
-55.2584
-55.264
-55.2694
-55.2747
-55.2798
-55.2848
-55.2896
-55.2942
-55.2987
-55.3029
-55.307
-55.3109
-55.3146
-55.3181
-55.3214
-55.3245
-55.3273
-55.33
-55.3324
-55.3345
-55.3365
-55.3382
-55.3396
-55.3409
-55.3419
-55.3426
-55.3431
-55.3433
-55.3433
-55.3431
-55.3426
-55.3419
-55.3409
-55.3397
-55.3382
-55.3365
-55.3346
-55.3324
-55.33
-55.3274
-55.3245
-55.3214
-55.3182
-55.3147
-55.311
-55.3071
-55.303
-55.2987
-55.2942
-55.2896
-55.2848
-55.2798
-55.2747
-55.2694
-55.264
-55.2585
-55.2528
-55.247
-55.2411
-55.2351
-55.2289
-55.2227
-55.2164
-55.2101
-55.2036
-55.1971
-55.1905
-55.1839
-55.1773
-55.1706
-55.1639
-55.1572
-55.1505
-55.1438
-55.137
-55.1303
-55.1236
-55.1169
-55.1103
-55.1037
-55.0971
-55.0906
-55.0841
-55.0777
-55.0714
-55.0651
-55.059
-55.0529
-55.0468
-55.0409
-55.0351
-55.0294
-55.0238
-55.0182
-55.0129
-55.0076
-55.0024
-54.9974
-54.9925
-54.9878
-54.9831
-54.9787
-54.9743
-54.9701
-54.9661
-54.9622
-54.9585
-54.9549
-54.9515
-54.9482
-54.9451
-54.9422
-54.9394
-54.9368
-54.9344
-54.9321
-54.9301
-54.9282
-54.9264
-54.9249
-54.9235
-54.9223
-54.9213
-54.9204
-54.9198
-54.9193
-54.919
-54.9189
-58.8402
-58.8403
-58.8406
-58.8411
-58.8418
-58.8427
-58.8437
-58.8449
-58.8463
-58.8479
-58.8496
-58.8515
-58.8536
-58.8559
-58.8583
-58.861
-58.8638
-58.8667
-58.8698
-58.8731
-58.8766
-58.8802
-58.884
-58.8879
-58.892
-58.8962
-58.9006
-58.9051
-58.9098
-58.9146
-58.9195
-58.9246
-58.9298
-58.9351
-58.9406
-58.9462
-58.9518
-58.9576
-58.9635
-58.9695
-58.9756
-58.9818
-58.988
-58.9944
-59.0008
-59.0073
-59.0138
-59.0204
-59.0271
-59.0338
-59.0405
-59.0473
-59.0541
-59.0609
-59.0677
-59.0745
-59.0813
-59.0882
-59.095
-59.1017
-59.1085
-59.1152
-59.1218
-59.1285
-59.135
-59.1415
-59.1479
-59.1542
-59.1604
-59.1665
-59.1725
-59.1784
-59.1842
-59.1899
-59.1954
-59.2007
-59.206
-59.211
-59.2159
-59.2206
-59.2252
-59.2295
-59.2337
-59.2377
-59.2414
-59.245
-59.2483
-59.2515
-59.2544
-59.257
-59.2595
-59.2617
-59.2637
-59.2654
-59.2669
-59.2682
-59.2692
-59.2699
-59.2704
-59.2707
-59.2707
-59.2704
-59.2699
-59.2692
-59.2682
-59.2669
-59.2654
-59.2637
-59.2617
-59.2595
-59.2571
-59.2544
-59.2515
-59.2484
-59.245
-59.2415
-59.2377
-59.2337
-59.2296
-59.2252
-59.2207
-59.216
-59.2111
-59.206
-59.2008
-59.1954
-59.1899
-59.1843
-59.1785
-59.1726
-59.1666
-59.1605
-59.1542
-59.1479
-59.1415
-59.1351
-59.1285
-59.1219
-59.1153
-59.1085
-59.1018
-59.095
-59.0882
-59.0814
-59.0746
-59.0678
-59.0609
-59.0541
-59.0473
-59.0406
-59.0338
-59.0272
-59.0205
-59.0139
-59.0074
-59.0009
-58.9945
-58.9881
-58.9819
-58.9757
-58.9696
-58.9636
-58.9577
-58.9519
-58.9463
-58.9407
-58.9352
-58.9299
-58.9247
-58.9196
-58.9147
-58.9099
-58.9052
-58.9007
-58.8963
-58.8921
-58.888
-58.8841
-58.8803
-58.8767
-58.8732
-58.8699
-58.8668
-58.8639
-58.8611
-58.8584
-58.856
-58.8537
-58.8516
-58.8497
-58.848
-58.8464
-58.845
-58.8438
-58.8428
-58.8419
-58.8412
-58.8408
-58.8404
-58.8403
-62.7615
-62.7616
-62.7619
-62.7624
-62.7631
-62.764
-62.765
-62.7662
-62.7676
-62.7692
-62.771
-62.7729
-62.775
-62.7773
-62.7798
-62.7824
-62.7853
-62.7882
-62.7914
-62.7947
-62.7982
-62.8019
-62.8057
-62.8096
-62.8138
-62.818
-62.8225
-62.827
-62.8318
-62.8366
-62.8416
-62.8468
-62.852
-62.8574
-62.8629
-62.8686
-62.8743
-62.8802
-62.8861
-62.8922
-62.8984