/*--------------------------------*- C++ -*----------------------------------*\
| =========                 |                                                 |
| \\      /  F ield         | OpenFOAM: The Open Source CFD Toolbox           |
|  \\    /   O peration     | Version:  2412                                  |
|   \\  /    A nd           | Website:  www.openfoam.com                      |
|    \\/     M anipulation  |                                                 |
\*---------------------------------------------------------------------------*/
FoamFile
{
    version     2.0;
    format      ascii;
    arch        "LSB;label=32;scalar=64";
    class       volScalarField;
    location    "1.05";
    object      p_rgh;
}
// * * * * * * * * * * * * * * * * * * * * * * * * * * * * * * * * * * * * * //

dimensions      [1 -1 -2 0 0 0 0];

internalField   nonuniform List<scalar> 
40000
(
1.962
1.96187
1.9616
1.96117
1.96056
1.95978
1.95883
1.9577
1.95641
1.95496
1.95333
1.95155
1.9496
1.94748
1.94521
1.94278
1.9402
1.93745
1.93456
1.93151
1.92831
1.92497
1.92149
1.91786
1.91409
1.91018
1.90615
1.90198
1.89768
1.89326
1.88872
1.88406
1.87929
1.87441
1.86942
1.86433
1.85915
1.85387
1.8485
1.84305
1.83751
1.8319
1.82623
1.82048
1.81468
1.80882
1.80292
1.79697
1.79098
1.78496
1.77891
1.77284
1.76676
1.76067
1.75457
1.74848
1.7424
1.73634
1.7303
1.72428
1.71831
1.71237
1.70649
1.70065
1.69488
1.68918
1.68356
1.67801
1.67255
1.66718
1.66192
1.65676
1.65171
1.64679
1.64199
1.63731
1.63278
1.62839
1.62414
1.62005
1.61612
1.61235
1.60875
1.60532
1.60206
1.59899
1.59611
1.59342
1.59091
1.58861
1.5865
1.5846
1.5829
1.58141
1.58013
1.57905
1.5782
1.57755
1.57712
1.5769
1.5769
1.57712
1.57755
1.57819
1.57905
1.58012
1.5814
1.58289
1.58458
1.58648
1.58859
1.59089
1.59339
1.59608
1.59897
1.60203
1.60528
1.60871
1.61231
1.61608
1.62001
1.6241
1.62835
1.63274
1.63727
1.64194
1.64674
1.65166
1.65671
1.66187
1.66713
1.67249
1.67795
1.6835
1.68912
1.69482
1.70059
1.70642
1.71231
1.71824
1.72422
1.73023
1.73627
1.74233
1.74841
1.7545
1.7606
1.76669
1.77277
1.77884
1.78488
1.7909
1.79689
1.80284
1.80875
1.8146
1.8204
1.82615
1.83182
1.83743
1.84296
1.84842
1.85378
1.85906
1.86425
1.86934
1.87432
1.87921
1.88398
1.88863
1.89317
1.89759
1.90189
1.90606
1.91009
1.914
1.91776
1.92139
1.92488
1.92822
1.93142
1.93446
1.93736
1.9401
1.94269
1.94512
1.94739
1.94951
1.95146
1.95324
1.95487
1.95633
1.95762
1.95875
1.95971
1.9605
1.96112
1.96158
1.96186
1.96198
1.96211
1.962
1.96173
1.9613
1.96069
1.9599
1.95895
1.95783
1.95653
1.95508
1.95345
1.95167
1.94971
1.9476
1.94533
1.9429
1.94031
1.93756
1.93467
1.93162
1.92842
1.92508
1.92159
1.91796
1.91419
1.91028
1.90624
1.90207
1.89777
1.89335
1.88881
1.88415
1.87937
1.87449
1.8695
1.86441
1.85922
1.85393
1.84856
1.8431
1.83757
1.83196
1.82627
1.82053
1.81472
1.80886
1.80295
1.79699
1.791
1.78498
1.77893
1.77285
1.76677
1.76067
1.75457
1.74848
1.74239
1.73632
1.73028
1.72426
1.71828
1.71234
1.70645
1.70061
1.69483
1.68913
1.6835
1.67794
1.67248
1.66711
1.66184
1.65668
1.65163
1.6467
1.64189
1.63721
1.63267
1.62828
1.62403
1.61993
1.616
1.61222
1.60862
1.60519
1.60193
1.59886
1.59597
1.59327
1.59077
1.58846
1.58635
1.58445
1.58275
1.58125
1.57997
1.5789
1.57804
1.57739
1.57696
1.57674
1.57674
1.57696
1.57739
1.57803
1.57889
1.57996
1.58124
1.58273
1.58443
1.58633
1.58844
1.59075
1.59325
1.59594
1.59883
1.6019
1.60515
1.60858
1.61219
1.61596
1.6199
1.62399
1.62824
1.63263
1.63717
1.64184
1.64665
1.65158
1.65663
1.66179
1.66706
1.67242
1.67789
1.68344
1.68907
1.69477
1.70055
1.70638
1.71227
1.71821
1.72419
1.73021
1.73625
1.74232
1.74841
1.7545
1.7606
1.76669
1.77278
1.77885
1.7849
1.79093
1.79692
1.80287
1.80878
1.81464
1.82045
1.82619
1.83187
1.83749
1.84302
1.84848
1.85385
1.85913
1.86432
1.86941
1.8744
1.87929
1.88406
1.88872
1.89326
1.89768
1.90198
1.90615
1.91019
1.9141
1.91787
1.9215
1.92499
1.92833
1.93153
1.93457
1.93747
1.94022
1.9428
1.94524
1.94751
1.94962
1.95158
1.95336
1.95499
1.95645
1.95774
1.95887
1.95983
1.96062
1.96124
1.9617
1.96198
1.9621
1.96242
1.9623
1.96203
1.96158
1.96097
1.96018
1.95923
1.9581
1.95681
1.95535
1.95372
1.95194
1.94998
1.94787
1.94559
1.94316
1.94057
1.93782
1.93492
1.93187
1.92867
1.92532
1.92182
1.91819
1.91441
1.9105
1.90646
1.90228
1.89798
1.89355
1.889
1.88433
1.87955
1.87466
1.86967
1.86457
1.85937
1.85408
1.8487
1.84324
1.83769
1.83207
1.82638
1.82063
1.81481
1.80894
1.80302
1.79706
1.79106
1.78502
1.77896
1.77288
1.76678
1.76068
1.75457
1.74846
1.74236
1.73628
1.73023
1.7242
1.71821
1.71226
1.70635
1.70051
1.69472
1.689
1.68336
1.6778
1.67232
1.66694
1.66166
1.65649
1.65143
1.64649
1.64167
1.63698
1.63244
1.62803
1.62377
1.61967
1.61572
1.61194
1.60833
1.60489
1.60163
1.59855
1.59565
1.59295
1.59044
1.58813
1.58601
1.5841
1.5824
1.5809
1.57962
1.57854
1.57768
1.57703
1.5766
1.57638
1.57638
1.5766
1.57703
1.57767
1.57853
1.57961
1.58089
1.58239
1.58409
1.586
1.58811
1.59042
1.59293
1.59563
1.59852
1.6016
1.60486
1.60829
1.61191
1.61569
1.61963
1.62373
1.62799
1.63239
1.63694
1.64162
1.64644
1.65138
1.65644
1.66161
1.66689
1.67227
1.67774
1.6833
1.68894
1.69466
1.70044
1.70629
1.71219
1.71814
1.72413
1.73016
1.73622
1.7423
1.74839
1.75449
1.7606
1.76671
1.7728
1.77889
1.78495
1.79098
1.79698
1.80294
1.80886
1.81473
1.82055
1.8263
1.83199
1.83761
1.84315
1.84862
1.854
1.85929
1.86448
1.86958
1.87458
1.87947
1.88425
1.88891
1.89346
1.89789
1.90219
1.90637
1.91041
1.91432
1.9181
1.92173
1.92523
1.92857
1.93177
1.93483
1.93773
1.94047
1.94307
1.9455
1.94778
1.94989
1.95185
1.95364
1.95526
1.95673
1.95802
1.95915
1.96011
1.9609
1.96153
1.96198
1.96226
1.96239
1.96289
1.96277
1.96249
1.96204
1.96142
1.96063
1.95967
1.95855
1.95725
1.95579
1.95416
1.95237
1.95041
1.94829
1.94601
1.94358
1.94098
1.93823
1.93532
1.93226
1.92906
1.9257
1.9222
1.91856
1.91478
1.91086
1.90681
1.90262
1.89831
1.89387
1.88931
1.88464
1.87985
1.87495
1.86994
1.86483
1.85962
1.85432
1.84893
1.84345
1.83789
1.83226
1.82656
1.82079
1.81496
1.80907
1.80314
1.79716
1.79114
1.78509
1.77902
1.77292
1.7668
1.76068
1.75456
1.74843
1.74232
1.73622
1.73015
1.7241
1.71809
1.71213
1.70621
1.70034
1.69454
1.6888
1.68314
1.67756
1.67207
1.66667
1.66138
1.65619
1.65111
1.64615
1.64132
1.63662
1.63205
1.62763
1.62336
1.61924
1.61528
1.61149
1.60786
1.60441
1.60114
1.59805
1.59514
1.59243
1.58991
1.58759
1.58547
1.58355
1.58184
1.58034
1.57905
1.57797
1.57711
1.57646
1.57602
1.5758
1.5758
1.57602
1.57645
1.5771
1.57796
1.57904
1.58033
1.58183
1.58354
1.58545
1.58757
1.58989
1.59241
1.59512
1.59802
1.60111
1.60438
1.60783
1.61145
1.61525
1.61921
1.62332
1.62759
1.63201
1.63657
1.64127
1.6461
1.65106
1.65613
1.66132
1.66662
1.67202
1.67751
1.68308
1.68874
1.69448
1.70028
1.70614
1.71206
1.71803
1.72404
1.73008
1.73616
1.74225
1.74836
1.75449
1.76061
1.76673
1.77284
1.77894
1.78502
1.79107
1.79708
1.80306
1.80899
1.81488
1.82071
1.82648
1.83218
1.83781
1.84337
1.84884
1.85424
1.85954
1.86474
1.86985
1.87486
1.87976
1.88455
1.88923
1.89379
1.89822
1.90253
1.90672
1.91077
1.91469
1.91847
1.92211
1.92561
1.92896
1.93217
1.93523
1.93813
1.94089
1.94348
1.94592
1.9482
1.95032
1.95228
1.95407
1.9557
1.95717
1.95847
1.9596
1.96056
1.96135
1.96198
1.96243
1.96271
1.96284
1.96353
1.9634
1.96312
1.96267
1.96204
1.96125
1.96029
1.95916
1.95786
1.9564
1.95476
1.95297
1.951
1.94888
1.9466
1.94415
1.94155
1.93879
1.93587
1.93281
1.92959
1.92623
1.92272
1.91907
1.91528
1.91135
1.90729
1.90309
1.89877
1.89432
1.88974
1.88505
1.88025
1.87533
1.87031
1.86519
1.85996
1.85465
1.84924
1.84374
1.83817
1.83252
1.8268
1.82101
1.81516
1.80925
1.8033
1.7973
1.79126
1.78519
1.77909
1.77297
1.76684
1.76069
1.75454
1.7484
1.74226
1.73614
1.73004
1.72397
1.71794
1.71195
1.706
1.70011
1.69429
1.68853
1.68284
1.67724
1.67172
1.6663
1.66098
1.65577
1.65067
1.64569
1.64084
1.63611
1.63153
1.62709
1.6228
1.61866
1.61468
1.61087
1.60722
1.60376
1.60047
1.59736
1.59444
1.59172
1.58918
1.58685
1.58472
1.58279
1.58108
1.57957
1.57827
1.57718
1.57632
1.57566
1.57523
1.57501
1.57501
1.57522
1.57566
1.57631
1.57718
1.57826
1.57955
1.58106
1.58278
1.5847
1.58683
1.58916
1.59169
1.59442
1.59733
1.60044
1.60372
1.60719
1.61083
1.61464
1.61862
1.62276
1.62705
1.63149
1.63607
1.64079
1.64564
1.65062
1.65572
1.66093
1.66625
1.67167
1.67718
1.68278
1.68847
1.69423
1.70005
1.70594
1.71188
1.71787
1.72391
1.72998
1.73607
1.74219
1.74833
1.75447
1.76062
1.76676
1.7729
1.77902
1.78512
1.79119
1.79722
1.80322
1.80918
1.81508
1.82093
1.82672
1.83244
1.83809
1.84366
1.84915
1.85456
1.85988
1.8651
1.87023
1.87525
1.88016
1.88497
1.88966
1.89423
1.89868
1.903
1.9072
1.91126
1.91519
1.91898
1.92263
1.92614
1.9295
1.93272
1.93578
1.9387
1.94146
1.94406
1.9465
1.94879
1.95091
1.95288
1.95468
1.95631
1.95778
1.95908
1.96021
1.96118
1.96197
1.9626
1.96305
1.96334
1.96346
1.96433
1.9642
1.96391
1.96346
1.96284
1.96204
1.96108
1.95994
1.95864
1.95717
1.95553
1.95373
1.95176
1.94963
1.94734
1.94488
1.94227
1.9395
1.93658
1.93351
1.93028
1.92691
1.92339
1.91972
1.91592
1.91197
1.9079
1.90369
1.89935
1.89488
1.89029
1.88559
1.88076
1.87583
1.87079
1.86565
1.8604
1.85506
1.84963
1.84412
1.83852
1.83285
1.8271
1.82129
1.81541
1.80949
1.80351
1.79748
1.79142
1.78532
1.77919
1.77304
1.76688
1.76071
1.75453
1.74835
1.74219
1.73604
1.72991
1.72381
1.71774
1.71172
1.70575
1.69983
1.69397
1.68818
1.68246
1.67683
1.67128
1.66583
1.66048
1.65524
1.65011
1.6451
1.64022
1.63547
1.63086
1.62639
1.62207
1.61791
1.61391
1.61007
1.60641
1.60292
1.59961
1.59648
1.59355
1.5908
1.58826
1.58591
1.58377
1.58183
1.5801
1.57858
1.57727
1.57618
1.57531
1.57465
1.57421
1.57399
1.57399
1.57421
1.57465
1.5753
1.57617
1.57726
1.57857
1.58008
1.58181
1.58375
1.58589
1.58824
1.59078
1.59352
1.59646
1.59958
1.60289
1.60638
1.61004
1.61387
1.61787
1.62203
1.62635
1.63082
1.63543
1.64017
1.64506
1.65006
1.65519
1.66043
1.66578
1.67123
1.67677
1.6824
1.68812
1.69391
1.69976
1.70568
1.71166
1.71768
1.72374
1.72984
1.73597
1.74212
1.74828
1.75446
1.76063
1.76681
1.77297
1.77912
1.78524
1.79134
1.7974
1.80343
1.80941
1.81534
1.82121
1.82702
1.83276
1.83844
1.84403
1.84955
1.85498
1.86032
1.86556
1.8707
1.87575
1.88068
1.8855
1.89021
1.89479
1.89926
1.9036
1.90781
1.91188
1.91583
1.91963
1.92329
1.92681
1.93019
1.93341
1.93649
1.93941
1.94218
1.94479
1.94724
1.94954
1.95167
1.95364
1.95544
1.95708
1.95855
1.95986
1.96099
1.96196
1.96276
1.96339
1.96384
1.96413
1.96425
1.96529
1.96517
1.96488
1.96442
1.9638
1.963
1.96203
1.96089
1.95958
1.95811
1.95646
1.95465
1.95268
1.95054
1.94823
1.94577
1.94315
1.94037
1.93744
1.93435
1.93111
1.92773
1.92419
1.92051
1.91669
1.91273
1.90864
1.90441
1.90005
1.89557
1.89096
1.88623
1.88139
1.87643
1.87137
1.8662
1.86093
1.85557
1.85011
1.84457
1.83895
1.83325
1.82747
1.82163
1.81573
1.80977
1.80376
1.7977
1.7916
1.78547
1.77931
1.77313
1.76693
1.76072
1.75451
1.7483
1.7421
1.73591
1.72975
1.72361
1.71751
1.71145
1.70543
1.69948
1.69358
1.68775
1.682
1.67633
1.67075
1.66526
1.65987
1.6546
1.64943
1.64439
1.63947
1.63469
1.63005
1.62555
1.6212
1.61701
1.61297
1.60911
1.60542
1.6019
1.59857
1.59542
1.59246
1.5897
1.58713
1.58477
1.58261
1.58065
1.57891
1.57738
1.57606
1.57496
1.57408
1.57342
1.57298
1.57275
1.57275
1.57297
1.57342
1.57408
1.57496
1.57605
1.57737
1.5789
1.58064
1.58259
1.58475
1.58711
1.58967
1.59244
1.59539
1.59854
1.60187
1.60539
1.60908
1.61294
1.61697
1.62116
1.62551
1.63
1.63465
1.63943
1.64434
1.64938
1.65454
1.65982
1.66521
1.67069
1.67627
1.68194
1.68769
1.69352
1.69941
1.70537
1.71138
1.71744
1.72354
1.72968
1.73584
1.74203
1.74823
1.75444
1.76065
1.76686
1.77305
1.77924
1.7854
1.79153
1.79762
1.80368
1.80969
1.81565
1.82155
1.82739
1.83317
1.83887
1.84449
1.85003
1.85549
1.86085
1.86612
1.87128
1.87635
1.8813
1.88615
1.89087
1.89548
1.89996
1.90432
1.90855
1.91264
1.9166
1.92042
1.9241
1.92763
1.93102
1.93426
1.93735
1.94028
1.94306
1.94568
1.94814
1.95044
1.95258
1.95456
1.95637
1.95802
1.95949
1.9608
1.96194
1.96291
1.96372
1.96435
1.9648
1.96509
1.96522
1.96643
1.96631
1.96602
1.96556
1.96493
1.96412
1.96315
1.96201
1.96069
1.95921
1.95756
1.95574
1.95376
1.95161
1.94929
1.94682
1.94419
1.9414
1.93845
1.93535
1.93209
1.92869
1.92514
1.92144
1.91761
1.91363
1.90951
1.90526
1.90088
1.89638
1.89175
1.88699
1.88213
1.87714
1.87205
1.86686
1.86156
1.85617
1.85068
1.84511
1.83945
1.83372
1.82791
1.82203
1.8161
1.8101
1.80405
1.79796
1.79182
1.78565
1.77945
1.77323
1.76699
1.76074
1.75449
1.74824
1.74199
1.73576
1.72955
1.72337
1.71723
1.71112
1.70507
1.69907
1.69313
1.68725
1.68146
1.67574
1.67012
1.66459
1.65916
1.65384
1.64863
1.64355
1.63859
1.63377
1.62909
1.62455
1.62016
1.61594
1.61187
1.60797
1.60425
1.6007
1.59734
1.59416
1.59118
1.58839
1.5858
1.58342
1.58124
1.57927
1.57751
1.57596
1.57464
1.57353
1.57264
1.57197
1.57152
1.5713
1.5713
1.57152
1.57196
1.57263
1.57352
1.57463
1.57595
1.57749
1.57925
1.58122
1.5834
1.58578
1.58837
1.59116
1.59414
1.59731
1.60067
1.60422
1.60794
1.61183
1.6159
1.62012
1.62451
1.62904
1.63372
1.63855
1.6435
1.64858
1.65379
1.6591
1.66453
1.67006
1.67569
1.6814
1.68719
1.69306
1.699
1.705
1.71106
1.71716
1.72331
1.72948
1.73569
1.74192
1.74816
1.75442
1.76067
1.76692
1.77316
1.77938
1.78558
1.79175
1.79788
1.80397
1.81002
1.81602
1.82196
1.82783
1.83364
1.83937
1.84503
1.8506
1.85608
1.86148
1.86677
1.87197
1.87706
1.88204
1.88691
1.89166
1.89629
1.9008
1.90517
1.90942
1.91354
1.91752
1.92135
1.92505
1.9286
1.932
1.93526
1.93836
1.9413
1.9441
1.94673
1.9492
1.95151
1.95366
1.95565
1.95747
1.95912
1.9606
1.96192
1.96306
1.96404
1.96484
1.96548
1.96594
1.96622
1.96635
1.96774
1.96761
1.96732
1.96686
1.96623
1.96542
1.96444
1.96329
1.96197
1.96048
1.95882
1.95699
1.955
1.95284
1.95052
1.94803
1.94538
1.94258
1.93961
1.9365
1.93323
1.9298
1.92623
1.92252
1.91866
1.91466
1.91052
1.90625
1.90184
1.89731
1.89265
1.88787
1.88298
1.87796
1.87284
1.86762
1.86229
1.85686
1.85134
1.84573
1.84004
1.83426
1.82842
1.8225
1.81652
1.81049
1.8044
1.79826
1.79208
1.78586
1.77962
1.77335
1.76706
1.76077
1.75447
1.74816
1.74187
1.73559
1.72933
1.7231
1.71691
1.71075
1.70464
1.69859
1.6926
1.68668
1.68083
1.67507
1.66939
1.66381
1.65833
1.65296
1.64771
1.64258
1.63758
1.63271
1.62798
1.6234
1.61897
1.6147
1.6106
1.60666
1.6029
1.59932
1.59592
1.59272
1.5897
1.58688
1.58427
1.58186
1.57966
1.57767
1.57589
1.57433
1.57299
1.57187
1.57097
1.57029
1.56984
1.56962
1.56961
1.56984
1.57029
1.57096
1.57186
1.57298
1.57432
1.57588
1.57765
1.57964
1.58184
1.58425
1.58686
1.58968
1.59269
1.5959
1.59929
1.60287
1.60663
1.61056
1.61467
1.61893
1.62336
1.62794
1.63266
1.63753
1.64253
1.64766
1.65291
1.65828
1.66376
1.66933
1.67501
1.68077
1.68662
1.69254
1.69853
1.70458
1.71069
1.71684
1.72303
1.72926
1.73552
1.7418
1.74809
1.75439
1.76069
1.76699
1.77328
1.77954
1.78579
1.792
1.79818
1.80432
1.81041
1.81644
1.82242
1.82834
1.83418
1.83995
1.84565
1.85125
1.85677
1.8622
1.86753
1.87276
1.87788
1.88289
1.88779
1.89257
1.89722
1.90176
1.90616
1.91043
1.91457
1.91857
1.92243
1.92614
1.92971
1.93313
1.9364
1.93952
1.94248
1.94529
1.94794
1.95042
1.95275
1.95491
1.9569
1.95873
1.96039
1.96188
1.9632
1.96435
1.96533
1.96614
1.96678
1.96724
1.96753
1.96765
1.96922
1.96909
1.9688
1.96834
1.9677
1.96689
1.9659
1.96475
1.96342
1.96192
1.96025
1.95841
1.95641
1.95423
1.9519
1.9494
1.94674
1.94391
1.94093
1.9378
1.93451
1.93106
1.92747
1.92373
1.91985
1.91583
1.91166
1.90736
1.90293
1.89837
1.89368
1.88887
1.88394
1.87889
1.87374
1.86847
1.86311
1.85764
1.85208
1.84643
1.8407
1.83488
1.82899
1.82303
1.81701
1.81092
1.80479
1.7986
1.79237
1.7861
1.77981
1.77349
1.76715
1.7608
1.75444
1.74808
1.74174
1.7354
1.72909
1.7228
1.71654
1.71033
1.70417
1.69806
1.69201
1.68603
1.68012
1.6743
1.66857
1.66293
1.6574
1.65197
1.64667
1.64148
1.63643
1.63151
1.62673
1.6221
1.61762
1.61331
1.60916
1.60518
1.60137
1.59775
1.59432
1.59107
1.58803
1.58518
1.58253
1.58009
1.57787
1.57585
1.57406
1.57248
1.57112
1.56999
1.56908
1.56839
1.56794
1.56771
1.56771
1.56793
1.56839
1.56907
1.56998
1.57111
1.57246
1.57404
1.57584
1.57785
1.58007
1.58251
1.58515
1.588
1.59105
1.59429
1.59772
1.60134
1.60514
1.60912
1.61327
1.61758
1.62206
1.62668
1.63146
1.63638
1.64143
1.64662
1.65192
1.65735
1.66288
1.66851
1.67424
1.68006
1.68597
1.69195
1.69799
1.7041
1.71027
1.71648
1.72273
1.72902
1.73533
1.74166
1.74801
1.75437
1.76072
1.76708
1.77341
1.77973
1.78603
1.79229
1.79852
1.80471
1.81085
1.81693
1.82295
1.82891
1.8348
1.84062
1.84635
1.852
1.85756
1.86302
1.86839
1.87365
1.87881
1.88385
1.88878
1.89359
1.89828
1.90284
1.90727
1.91157
1.91574
1.91976
1.92364
1.92738
1.93097
1.93441
1.9377
1.94084
1.94382
1.94664
1.9493
1.9518
1.95414
1.95631
1.95832
1.96016
1.96183
1.96333
1.96465
1.96581
1.9668
1.96761
1.96825
1.96872
1.96901
1.96913
1.97088
1.97075
1.97046
1.96999
1.96934
1.96853
1.96754
1.96637
1.96504
1.96353
1.96185
1.96
1.95798
1.95579
1.95344
1.95093
1.94825
1.94541
1.94241
1.93925
1.93594
1.93247
1.92886
1.9251
1.92119
1.91713
1.91294
1.90861
1.90415
1.89955
1.89483
1.88998
1.88502
1.87993
1.87474
1.86943
1.86403
1.85852
1.85291
1.84722
1.84144
1.83558
1.82964
1.82363
1.81755
1.81141
1.80522
1.79898
1.7927
1.78638
1.78002
1.77364
1.76724
1.76083
1.75442
1.748
1.74159
1.73519
1.72881
1.72246
1.71614
1.70986
1.70364
1.69746
1.69135
1.6853
1.67933
1.67345
1.66765
1.66195
1.65635
1.65087
1.6455
1.64025
1.63514
1.63016
1.62533
1.62064
1.61611
1.61174
1.60754
1.60351
1.59966
1.596
1.59252
1.58924
1.58615
1.58326
1.58059
1.57812
1.57586
1.57382
1.572
1.5704
1.56903
1.56788
1.56696
1.56626
1.5658
1.56557
1.56557
1.5658
1.56626
1.56695
1.56787
1.56902
1.57039
1.57199
1.5738
1.57584
1.5781
1.58056
1.58324
1.58612
1.58921
1.59249
1.59597
1.59963
1.60348
1.60751
1.61171
1.61607
1.6206
1.62528
1.63012
1.63509
1.64021
1.64545
1.65082
1.6563
1.6619
1.66759
1.67339
1.67927
1.68524
1.69128
1.6974
1.70357
1.7098
1.71607
1.72239
1.72874
1.73512
1.74152
1.74793
1.75434
1.76076
1.76717
1.77357
1.77995
1.7863
1.79262
1.79891
1.80515
1.81134
1.81747
1.82355
1.82956
1.8355
1.84136
1.84714
1.85283
1.85844
1.86394
1.86935
1.87465
1.87985
1.88493
1.8899
1.89474
1.89946
1.90406
1.90852
1.91285
1.91704
1.92109
1.925
1.92877
1.93238
1.93585
1.93916
1.94231
1.94531
1.94815
1.95083
1.95335
1.9557
1.95789
1.9599
1.96175
1.96343
1.96494
1.96628
1.96744
1.96843
1.96925
1.9699
1.97036
1.97066
1.97078
1.97271
1.97258
1.97228
1.97181
1.97116
1.97034
1.96934
1.96817
1.96683
1.96531
1.96362
1.96175
1.95972
1.95752
1.95515
1.95262
1.94992
1.94706
1.94404
1.94086
1.93752
1.93403
1.93039
1.9266
1.92266
1.91858
1.91435
1.90999
1.90549
1.90086
1.8961
1.89122
1.88621
1.88109
1.87585
1.8705
1.86505
1.85949
1.85384
1.84809
1.84226
1.83635
1.83035
1.82429
1.81816
1.81196
1.80571
1.79941
1.79306
1.78668
1.78026
1.77382
1.76735
1.76088
1.75439
1.7479
1.74142
1.73496
1.72851
1.72209
1.7157
1.70935
1.70305
1.6968
1.69062
1.6845
1.67846
1.6725
1.66664
1.66087
1.6552
1.64965
1.64421
1.6389
1.63372
1.62867
1.62378
1.61903
1.61444
1.61001
1.60576
1.60167
1.59777
1.59405
1.59053
1.5872
1.58407
1.58114
1.57843
1.57592
1.57364
1.57157
1.56972
1.5681
1.56671
1.56554
1.56461
1.56391
1.56344
1.5632
1.5632
1.56343
1.5639
1.5646
1.56553
1.5667
1.56809
1.56971
1.57155
1.57362
1.57591
1.57841
1.58112
1.58404
1.58717
1.5905
1.59402
1.59774
1.60164
1.60572
1.60997
1.6144
1.61899
1.62373
1.62863
1.63367
1.63885
1.64416
1.64959
1.65515
1.66081
1.66658
1.67244
1.6784
1.68444
1.69055
1.69674
1.70298
1.70928
1.71563
1.72202
1.72844
1.73489
1.74135
1.74783
1.75432
1.7608
1.76728
1.77374
1.78019
1.7866
1.79299
1.79933
1.80563
1.81188
1.81808
1.82421
1.83027
1.83627
1.84218
1.84801
1.85376
1.85941
1.86496
1.87042
1.87576
1.881
1.88612
1.89113
1.89602
1.90077
1.9054
1.9099
1.91426
1.91849
1.92257
1.92651
1.9303
1.93394
1.93743
1.94077
1.94395
1.94697
1.94983
1.95252
1.95506
1.95742
1.95962
1.96166
1.96352
1.96521
1.96673
1.96808
1.96925
1.97025
1.97107
1.97172
1.97219
1.97248
1.97261
1.97471
1.97458
1.97428
1.97381
1.97316
1.97233
1.97132
1.97014
1.96879
1.96726
1.96555
1.96368
1.96163
1.95941
1.95703
1.95447
1.95176
1.94887
1.94583
1.94263
1.93926
1.93575
1.93207
1.92825
1.92428
1.92017
1.91591
1.91151
1.90697
1.9023
1.8975
1.89257
1.88752
1.88235
1.87707
1.87167
1.86617
1.86056
1.85485
1.84905
1.84317
1.83719
1.83114
1.82502
1.81882
1.81256
1.80625
1.79988
1.79347
1.78701
1.78053
1.77401
1.76748
1.76092
1.75437
1.7478
1.74125
1.7347
1.72818
1.72168
1.71521
1.70879
1.70241
1.69608
1.68982
1.68362
1.6775
1.67147
1.66552
1.65968
1.65393
1.6483
1.64279
1.63741
1.63215
1.62704
1.62207
1.61726
1.6126
1.60811
1.60379
1.59965
1.59569
1.59192
1.58834
1.58496
1.58178
1.57882
1.57606
1.57352
1.57119
1.56909
1.56722
1.56557
1.56416
1.56297
1.56203
1.56131
1.56084
1.5606
1.5606
1.56083
1.56131
1.56202
1.56297
1.56415
1.56556
1.56721
1.56908
1.57118
1.5735
1.57604
1.57879
1.58176
1.58493
1.58831
1.59189
1.59566
1.59962
1.60376
1.60807
1.61256
1.61722
1.62203
1.62699
1.63211
1.63736
1.64274
1.64825
1.65388
1.65962
1.66547
1.67141
1.67744
1.68356
1.68976
1.69602
1.70234
1.70872
1.71515
1.72161
1.72811
1.73463
1.74118
1.74773
1.75429
1.76085
1.7674
1.77394
1.78045
1.78694
1.79339
1.7998
1.80617
1.81248
1.81874
1.82494
1.83106
1.83711
1.84308
1.84897
1.85477
1.86048
1.86608
1.87159
1.87698
1.88227
1.88744
1.89249
1.89741
1.90221
1.90688
1.91142
1.91582
1.92008
1.92419
1.92816
1.93198
1.93565
1.93917
1.94253
1.94574
1.94878
1.95166
1.95438
1.95693
1.95932
1.96153
1.96358
1.96545
1.96716
1.96869
1.97004
1.97123
1.97223
1.97306
1.97371
1.97419
1.97448
1.97461
1.97689
1.97676
1.97646
1.97598
1.97532
1.97449
1.97348
1.97229
1.97092
1.96938
1.96766
1.96577
1.96371
1.96147
1.95907
1.95649
1.95375
1.95085
1.94778
1.94455
1.94116
1.93761
1.93391
1.93005
1.92605
1.9219
1.9176
1.91316
1.90858
1.90387
1.89903
1.89405
1.88895
1.88373
1.8784
1.87295
1.86739
1.86173
1.85596
1.8501
1.84416
1.83812
1.832
1.82581
1.81955
1.81322
1.80684
1.8004
1.79391
1.78738
1.78082
1.77423
1.76761
1.76098
1.75434
1.7477
1.74106
1.73443
1.72782
1.72124
1.71469
1.70818
1.70171
1.6953
1.68895
1.68267
1.67646
1.67034
1.66431
1.65838
1.65256
1.64684
1.64125
1.63578
1.63045
1.62526
1.62022
1.61533
1.6106
1.60604
1.60165
1.59744
1.59342
1.58959
1.58595
1.58252
1.57929
1.57627
1.57347
1.57089
1.56853
1.56639
1.56449
1.56281
1.56137
1.56017
1.55921
1.55848
1.558
1.55775
1.55775
1.55799
1.55848
1.5592
1.56016
1.56136
1.5628
1.56447
1.56638
1.56851
1.57087
1.57345
1.57625
1.57927
1.58249
1.58593
1.58956
1.59339
1.59741
1.60161
1.606
1.61056
1.61528
1.62017
1.62521
1.6304
1.63573
1.6412
1.64679
1.6525
1.65833
1.66426
1.67028
1.6764
1.68261
1.68889
1.69524
1.70165
1.70811
1.71462
1.72117
1.72775
1.73436
1.74099
1.74763
1.75427
1.76091
1.76754
1.77415
1.78074
1.78731
1.79383
1.80032
1.80676
1.81314
1.81947
1.82573
1.83192
1.83804
1.84407
1.85002
1.85588
1.86164
1.86731
1.87286
1.87831
1.88365
1.88887
1.89396
1.89894
1.90378
1.90849
1.91307
1.91751
1.9218
1.92596
1.92996
1.93382
1.93752
1.94106
1.94445
1.94768
1.95075
1.95366
1.9564
1.95897
1.96137
1.96361
1.96567
1.96756
1.96928
1.97082
1.97219
1.97338
1.97439
1.97523
1.97588
1.97636
1.97666
1.97679
1.97925
1.97912
1.97882
1.97833
1.97767
1.97683
1.97581
1.97461
1.97323
1.97167
1.96994
1.96804
1.96595
1.9637
1.96128
1.95868
1.95592
1.95299
1.94989
1.94663
1.94321
1.93963
1.93589
1.932
1.92796
1.92377
1.91943
1.91495
1.91033
1.90557
1.90068
1.89566
1.89051
1.88523
1.87984
1.87434
1.86872
1.86299
1.85717
1.85125
1.84523
1.83913
1.83294
1.82668
1.82034
1.81394
1.80748
1.80096
1.7944
1.78779
1.78114
1.77447
1.76777
1.76105
1.75432
1.74759
1.74086
1.73414
1.72744
1.72077
1.71412
1.70752
1.70096
1.69446
1.68801
1.68164
1.67534
1.66913
1.663
1.65698
1.65106
1.64526
1.63958
1.63402
1.62861
1.62333
1.6182
1.61323
1.60843
1.60379
1.59933
1.59505
1.59096
1.58706
1.58337
1.57987
1.57659
1.57352
1.57067
1.56804
1.56563
1.56346
1.56152
1.55982
1.55835
1.55713
1.55615
1.55541
1.55492
1.55467
1.55467
1.55491
1.5554
1.55614
1.55712
1.55834
1.55981
1.56151
1.56344
1.56561
1.56802
1.57064
1.57349
1.57656
1.57984
1.58334
1.58703
1.59093
1.59502
1.59929
1.60375
1.60839
1.61319
1.61816
1.62328
1.62856
1.63397
1.63953
1.64521
1.65101
1.65692
1.66295
1.66907
1.67528
1.68158
1.68795
1.69439
1.70089
1.70745
1.71406
1.7207
1.72737
1.73407
1.74079
1.74752
1.75425
1.76098
1.76769
1.77439
1.78107
1.78771
1.79432
1.80088
1.8074
1.81386
1.82026
1.8266
1.83286
1.83905
1.84515
1.85116
1.85708
1.86291
1.86863
1.87425
1.87976
1.88515
1.89042
1.89557
1.90059
1.90548
1.91024
1.91486
1.91934
1.92368
1.92787
1.93191
1.9358
1.93954
1.94311
1.94653
1.94979
1.95289
1.95582
1.95858
1.96118
1.9636
1.96586
1.96794
1.96984
1.97157
1.97313
1.97451
1.97571
1.97673
1.97757
1.97823
1.97872
1.97902
1.97915
1.98179
1.98166
1.98135
1.98086
1.9802
1.97935
1.97831
1.9771
1.97571
1.97414
1.9724
1.97047
1.96838
1.9661
1.96365
1.96103
1.95825
1.95529
1.95216
1.94887
1.94542
1.9418
1.93803
1.9341
1.93002
1.92579
1.92141
1.91688
1.91221
1.9074
1.90246
1.89738
1.89218
1.88685
1.8814
1.87583
1.87015
1.86436
1.85847
1.85248
1.84639
1.84022
1.83396
1.82762
1.8212
1.81472
1.80818
1.80158
1.79492
1.78823
1.78149
1.77473
1.76794
1.76113
1.7543
1.74748
1.74065
1.73384
1.72704
1.72026
1.71352
1.70681
1.70015
1.69355
1.68701
1.68053
1.67413
1.66782
1.66159
1.65547
1.64946
1.64356
1.63778
1.63213
1.62662
1.62125
1.61604
1.61098
1.60609
1.60137
1.59683
1.59247
1.58831
1.58434
1.58057
1.57701
1.57367
1.57054
1.56763
1.56496
1.56251
1.56029
1.55832
1.55658
1.55509
1.55384
1.55284
1.55209
1.55159
1.55134
1.55133
1.55158
1.55208
1.55283
1.55383
1.55508
1.55657
1.5583
1.56028
1.56249
1.56494
1.56761
1.57052
1.57364
1.57698
1.58054
1.58431
1.58827
1.59243
1.59679
1.60133
1.60605
1.61094
1.61599
1.62121
1.62657
1.63208
1.63773
1.6435
1.6494
1.65542
1.66154
1.66776
1.67407
1.68047
1.68694
1.69348
1.70009
1.70675
1.71345
1.72019
1.72697
1.73377
1.74058
1.7474
1.75423
1.76105
1.76786
1.77465
1.78142
1.78815
1.79485
1.8015
1.8081
1.81464
1.82112
1.82753
1.83387
1.84013
1.84631
1.8524
1.85839
1.86428
1.87007
1.87575
1.88131
1.88676
1.89209
1.8973
1.90237
1.90731
1.91212
1.91679
1.92132
1.9257
1.92993
1.93401
1.93794
1.94171
1.94532
1.94878
1.95207
1.95519
1.95815
1.96094
1.96355
1.966
1.96828
1.97038
1.9723
1.97405
1.97561
1.977
1.97822
1.97925
1.98009
1.98076
1.98125
1.98155
1.98169
1.98451
1.98437
1.98407
1.98358
1.9829
1.98204
1.981
1.97978
1.97838
1.97679
1.97503
1.97309
1.97097
1.96867
1.9662
1.96356
1.96074
1.95775
1.9546
1.95128
1.94779
1.94414
1.94033
1.93636
1.93223
1.92796
1.92353
1.91895
1.91423
1.90937
1.90438
1.89924
1.89398
1.88859
1.88307
1.87744
1.87169
1.86584
1.85987
1.85381
1.84764
1.84139
1.83505
1.82863
1.82213
1.81556
1.80893
1.80224
1.7955
1.78871
1.78188
1.77501
1.76812
1.76121
1.75429
1.74736
1.74043
1.73351
1.72661
1.71973
1.71288
1.70606
1.6993
1.69258
1.68593
1.67935
1.67284
1.66642
1.66009
1.65386
1.64774
1.64173
1.63585
1.6301
1.62449
1.61902
1.61371
1.60856
1.60357
1.59876
1.59414
1.5897
1.58545
1.58141
1.57757
1.57394
1.57053
1.56734
1.56438
1.56164
1.55915
1.55689
1.55487
1.5531
1.55158
1.55031
1.54929
1.54852
1.54801
1.54775
1.54775
1.548
1.54851
1.54928
1.5503
1.55157
1.55309
1.55486
1.55687
1.55913
1.56162
1.56435
1.56731
1.5705
1.57391
1.57754
1.58138
1.58542
1.58966
1.5941
1.59873
1.60353
1.60851
1.61366
1.61897
1.62444
1.63005
1.6358
1.64168
1.64768
1.6538
1.66003
1.66636
1.67278
1.67928
1.68587
1.69252
1.69923
1.706
1.71281
1.71966
1.72654
1.73344
1.74036
1.74729
1.75422
1.76114
1.76805
1.77494
1.7818
1.78863
1.79542
1.80216
1.80885
1.81548
1.82205
1.82855
1.83497
1.84131
1.84756
1.85372
1.85979
1.86575
1.87161
1.87736
1.88299
1.8885
1.89389
1.89915
1.90429
1.90928
1.91414
1.91886
1.92344
1.92786
1.93214
1.93626
1.94023
1.94404
1.94769
1.95118
1.9545
1.95766
1.96064
1.96346
1.9661
1.96857
1.97087
1.97299
1.97493
1.97669
1.97828
1.97968
1.9809
1.98194
1.9828
1.98347
1.98396
1.98427
1.98441
1.98741
1.98728
1.98697
1.98647
1.98579
1.98492
1.98387
1.98264
1.98122
1.97962
1.97784
1.97588
1.97374
1.97142
1.96893
1.96625
1.96341
1.96039
1.9572
1.95384
1.95032
1.94663
1.94278
1.93877
1.9346
1.93027
1.9258
1.92117
1.9164
1.91148
1.90642
1.90123
1.8959
1.89045
1.88487
1.87917
1.87335
1.86741
1.86137
1.85523
1.84899
1.84265
1.83622
1.82971
1.82313
1.81647
1.80974
1.80295
1.79611
1.78922
1.78229
1.77533
1.76833
1.76132
1.75428
1.74725
1.74021
1.73317
1.72616
1.71916
1.7122
1.70527
1.69838
1.69155
1.68478
1.67808
1.67146
1.66492
1.65848
1.65213
1.6459
1.63978
1.63379
1.62793
1.62221
1.61664
1.61122
1.60597
1.60088
1.59598
1.59126
1.58673
1.5824
1.57827
1.57435
1.57065
1.56717
1.56391
1.56089
1.5581
1.55555
1.55324
1.55118
1.54937
1.54782
1.54652
1.54548
1.54469
1.54417
1.54391
1.54391
1.54417
1.54469
1.54547
1.54651
1.54781
1.54936
1.55117
1.55323
1.55553
1.55808
1.56086
1.56389
1.56714
1.57062
1.57432
1.57824
1.58236
1.58669
1.59122
1.59594
1.60084
1.60592
1.61117
1.61659
1.62216
1.62788
1.63373
1.63973
1.64584
1.65208
1.65842
1.66486
1.6714
1.67802
1.68472
1.69149
1.69832
1.7052
1.71213
1.71909
1.72609
1.7331
1.74013
1.74717
1.75421
1.76124
1.76826
1.77525
1.78222
1.78915
1.79603
1.80287
1.80966
1.81639
1.82305
1.82963
1.83614
1.84257
1.8489
1.85514
1.86129
1.86733
1.87326
1.87908
1.88478
1.89036
1.89582
1.90114
1.90633
1.91139
1.91631
1.92108
1.9257
1.93018
1.9345
1.93867
1.94268
1.94653
1.95022
1.95375
1.9571
1.96029
1.96331
1.96615
1.96883
1.97132
1.97364
1.97578
1.97774
1.97952
1.98112
1.98254
1.98377
1.98482
1.98569
1.98637
1.98686
1.98717
1.98731
1.9905
1.99036
1.99005
1.98955
1.98886
1.98798
1.98692
1.98568
1.98424
1.98263
1.98083
1.97885
1.97669
1.97434
1.97182
1.96912
1.96625
1.9632
1.95997
1.95658
1.95301
1.94928
1.94539
1.94133
1.93712
1.93274
1.92821
1.92353
1.9187
1.91373
1.90861
1.90335
1.89796
1.89243
1.88678
1.88101
1.87511
1.8691
1.86298
1.85675
1.85042
1.844
1.83748
1.83088
1.8242
1.81744
1.81061
1.80372
1.79678
1.78978
1.78274
1.77567
1.76856
1.76143
1.75429
1.74713
1.73997
1.73282
1.72568
1.71856
1.71148
1.70442
1.69742
1.69046
1.68357
1.67674
1.67
1.66333
1.65677
1.6503
1.64394
1.6377
1.63159
1.62561
1.61978
1.61409
1.60857
1.60321
1.59802
1.59301
1.58819
1.58356
1.57914
1.57492
1.57092
1.56714
1.56358
1.56025