/*--------------------------------*- C++ -*----------------------------------*\
| =========                 |                                                 |
| \\      /  F ield         | OpenFOAM: The Open Source CFD Toolbox           |
|  \\    /   O peration     | Version:  2412                                  |
|   \\  /    A nd           | Website:  www.openfoam.com                      |
|    \\/     M anipulation  |                                                 |
\*---------------------------------------------------------------------------*/
FoamFile
{
    version     2.0;
    format      ascii;
    arch        "LSB;label=32;scalar=64";
    class       surfaceScalarField;
    location    "1.05";
    object      phi;
}
// * * * * * * * * * * * * * * * * * * * * * * * * * * * * * * * * * * * * * //

dimensions      [0 3 -1 0 0 0 0];

oriented        oriented;

internalField   nonuniform List<scalar> 
79600
(
1.45042e-11
-1.45288e-11
2.16272e-11
-7.12319e-12
3.65392e-11
-1.49122e-11
5.35713e-11
-1.70317e-11
7.18032e-11
-1.8231e-11
9.00945e-11
-1.82901e-11
1.08193e-10
-1.80975e-11
1.26046e-10
-1.78537e-11
1.43625e-10
-1.75796e-11
1.60966e-10
-1.73421e-11
1.78093e-10
-1.71289e-11
1.95014e-10
-1.69218e-11
2.11736e-10
-1.6722e-11
2.28263e-10
-1.65252e-11
2.44592e-10
-1.63278e-11
2.60721e-10
-1.61267e-11
2.7664e-10
-1.59179e-11
2.92343e-10
-1.57015e-11
3.07821e-10
-1.54766e-11
3.23065e-10
-1.52417e-11
3.38063e-10
-1.49962e-11
3.52805e-10
-1.47396e-11
3.67278e-10
-1.44712e-11
3.81471e-10
-1.4191e-11
3.95372e-10
-1.38987e-11
4.08968e-10
-1.35942e-11
4.22247e-10
-1.32777e-11
4.35198e-10
-1.29494e-11
4.47809e-10
-1.26094e-11
4.60068e-10
-1.22576e-11
4.71963e-10
-1.18938e-11
4.83483e-10
-1.15178e-11
4.94614e-10
-1.11294e-11
5.05344e-10
-1.07288e-11
5.15661e-10
-1.0316e-11
5.25552e-10
-9.89082e-12
5.35006e-10
-9.45316e-12
5.4401e-10
-9.00302e-12
5.52551e-10
-8.5403e-12
5.60615e-10
-8.0649e-12
5.68191e-10
-7.57687e-12
5.75265e-10
-7.07618e-12
5.81826e-10
-6.56275e-12
5.87861e-10
-6.03686e-12
5.93359e-10
-5.49901e-12
5.98308e-10
-4.94986e-12
6.02697e-10
-4.39007e-12
6.06517e-10
-3.82012e-12
6.09757e-10
-3.24024e-12
6.12408e-10
-2.65072e-12
6.14462e-10
-2.05211e-12
6.15909e-10
-1.44509e-12
6.16741e-10
-8.30298e-13
6.16949e-10
-2.07238e-13
6.16527e-10
4.22179e-13
6.15472e-10
1.05522e-12
6.13776e-10
1.69416e-12
6.11438e-10
2.33731e-12
6.08452e-10
2.98507e-12
6.04814e-10
3.63651e-12
6.00523e-10
4.29091e-12
5.95575e-10
4.94756e-12
5.89968e-10
5.60571e-12
5.83703e-10
6.26444e-12
5.7678e-10
6.92271e-12
5.69201e-10
7.57949e-12
5.60967e-10
8.2337e-12
5.52084e-10
8.88417e-12
5.42556e-10
9.52965e-12
5.32387e-10
1.01689e-11
5.21585e-10
1.08011e-11
5.10157e-10
1.14253e-11
4.98114e-10
1.20409e-11
4.85465e-10
1.26474e-11
4.72221e-10
1.32436e-11
4.58392e-10
1.38282e-11
4.43991e-10
1.43999e-11
4.29032e-10
1.49576e-11
4.1353e-10
1.55005e-11
3.97502e-10
1.60276e-11
3.80964e-10
1.65377e-11
3.63934e-10
1.70295e-11
3.46434e-10
1.75017e-11
3.28482e-10
1.7953e-11
3.101e-10
1.83827e-11
2.91311e-10
1.87899e-11
2.72137e-10
1.91739e-11
2.52603e-10
1.95337e-11
2.32734e-10
1.98688e-11
2.12556e-10
2.01785e-11
1.92095e-10
2.04621e-11
1.71377e-10
2.07191e-11
1.50429e-10
2.09483e-11
1.29278e-10
2.11496e-11
1.07954e-10
2.13228e-11
8.64853e-11
2.1468e-11
6.49001e-11
2.15849e-11
4.32269e-11
2.16731e-11
2.14947e-11
2.17323e-11
-2.6654e-13
2.17618e-11
-2.20275e-11
2.17615e-11
-4.37595e-11
2.1732e-11
-6.5433e-11
2.16733e-11
-8.70182e-11
2.15854e-11
-1.08487e-10
2.14688e-11
-1.2981e-10
2.13241e-11
-1.5096e-10
2.11511e-11
-1.71908e-10
2.09493e-11
-1.92627e-10
2.07197e-11
-2.1309e-10
2.04634e-11
-2.33269e-10
2.01804e-11
-2.5314e-10
1.98712e-11
-2.72676e-10
1.95369e-11
-2.91852e-10
1.91779e-11
-3.10644e-10
1.87943e-11
-3.29031e-10
1.83871e-11
-3.46989e-10
1.79575e-11
-3.64495e-10
1.7506e-11
-3.8153e-10
1.70338e-11
-3.98073e-10
1.65428e-11
-4.14106e-10
1.60339e-11
-4.29612e-10
1.5508e-11
-4.44577e-10
1.4966e-11
-4.58985e-10
1.44087e-11
-4.72824e-10
1.38379e-11
-4.8608e-10
1.32548e-11
-4.98741e-10
1.26593e-11
-5.10797e-10
1.20529e-11
-5.22237e-10
1.14377e-11
-5.33052e-10
1.08143e-11
-5.43234e-10
1.01819e-11
-5.52779e-10
9.54294e-12
-5.6168e-10
8.89955e-12
-5.69931e-10
8.25137e-12
-5.77531e-10
7.59875e-12
-5.84479e-10
6.94439e-12
-5.9077e-10
6.28979e-12
-5.96403e-10
5.63432e-12
-6.01381e-10
4.97858e-12
-6.05705e-10
4.32372e-12
-6.09373e-10
3.66989e-12
-6.12388e-10
3.0176e-12
-6.14754e-10
2.36725e-12
-6.16473e-10
1.71938e-12
-6.17549e-10
1.07571e-12
-6.17986e-10
4.38496e-13
-6.17791e-10
-1.92942e-13
-6.16971e-10
-8.1781e-13
-6.15537e-10
-1.43127e-12
-6.13499e-10
-2.03432e-12
-6.10869e-10
-2.62763e-12
-6.07656e-10
-3.21168e-12
-6.03871e-10
-3.78601e-12
-5.99523e-10
-4.34928e-12
-5.9462e-10
-4.90239e-12
-5.89173e-10
-5.44689e-12
-5.83191e-10
-5.98187e-12
-5.76683e-10
-6.50628e-12
-5.69662e-10
-7.02006e-12
-5.62139e-10
-7.52325e-12
-5.54125e-10
-8.01462e-12
-5.45632e-10
-8.49259e-12
-5.36676e-10
-8.95634e-12
-5.27271e-10
-9.40542e-12
-5.17431e-10
-9.83943e-12
-5.07168e-10
-1.02604e-11
-4.96498e-10
-1.067e-11
-4.85431e-10
-1.10673e-11
-4.73981e-10
-1.14516e-11
-4.62156e-10
-1.18242e-11
-4.49968e-10
-1.21882e-11
-4.37428e-10
-1.25407e-11
-4.24549e-10
-1.28792e-11
-4.11351e-10
-1.3201e-11
-3.97846e-10
-1.35036e-11
-3.84055e-10
-1.37905e-11
-3.69991e-10
-1.40647e-11
-3.5566e-10
-1.43295e-11
-3.41074e-10
-1.45861e-11
-3.26238e-10
-1.48346e-11
-3.11162e-10
-1.50748e-11
-2.95859e-10
-1.5303e-11
-2.80343e-10
-1.5515e-11
-2.64634e-10
-1.57088e-11
-2.48748e-10
-1.58842e-11
-2.32701e-10
-1.60448e-11
-2.16503e-10
-1.61969e-11
-2.00161e-10
-1.63424e-11
-1.83679e-10
-1.64808e-11
-1.67064e-10
-1.66109e-11
-1.50332e-10
-1.67292e-11
-1.33499e-10
-1.68319e-11
-1.16577e-10
-1.69203e-11
-9.95853e-11
-1.69961e-11
-8.25303e-11
-1.70572e-11
-6.54232e-11
-1.71062e-11
-4.82896e-11
-1.71343e-11
-3.11666e-11
-1.71156e-11
-1.42811e-11
-1.68712e-11
-1.42698e-11
2.6286e-11
-4.0815e-11
4.69221e-11
-2.77593e-11
6.43904e-11
-3.23797e-11
8.25565e-11
-3.51962e-11
1.01183e-10
-3.6856e-11
1.20388e-10
-3.74944e-11
1.39982e-10
-3.76915e-11
1.59754e-10
-3.76283e-11
1.79602e-10
-3.743e-11
1.99431e-10
-3.71728e-11
2.19183e-10
-3.68822e-11
2.38827e-10
-3.65651e-11
2.58334e-10
-3.62269e-11
2.7768e-10
-3.58691e-11
2.96846e-10
-3.54912e-11
3.15814e-10
-3.50918e-11
3.34568e-10
-3.46693e-11
3.53092e-10
-3.4223e-11
3.7137e-10
-3.37523e-11
3.89388e-10
-3.32564e-11
4.07131e-10
-3.27349e-11
4.24582e-10
-3.21873e-11
4.41728e-10
-3.16131e-11
4.58552e-10
-3.10116e-11
4.75039e-10
-3.03827e-11
4.91174e-10
-2.97263e-11
5.06942e-10
-2.90425e-11
5.22327e-10
-2.83316e-11
5.37313e-10
-2.75936e-11
5.51887e-10
-2.68282e-11
5.6603e-10
-2.60353e-11
5.7973e-10
-2.52147e-11
5.92968e-10
-2.43663e-11
6.05731e-10
-2.34901e-11
6.18002e-10
-2.25863e-11
6.29767e-10
-2.16548e-11
6.41011e-10
-2.06955e-11
6.51716e-10
-1.97085e-11
6.61869e-10
-1.86938e-11
6.71454e-10
-1.76514e-11
6.80456e-10
-1.65814e-11
6.88861e-10
-1.54838e-11
6.96655e-10
-1.4359e-11
7.03825e-10
-1.32078e-11
7.10356e-10
-1.20311e-11
7.16235e-10
-1.08299e-11
7.21449e-10
-9.60504e-12
7.25986e-10
-8.35719e-12
7.29834e-10
-7.08715e-12
7.32982e-10
-5.79598e-12
7.35418e-10
-4.48499e-12
7.3713e-10
-3.1556e-12
7.3811e-10
-1.80918e-12
7.3835e-10
-4.47089e-13
7.3784e-10
9.30733e-13
7.36573e-10
2.32101e-12
7.3454e-10
3.72459e-12
7.31737e-10
5.13905e-12
7.28158e-10
6.5629e-12
7.23798e-10
7.99453e-12
7.18656e-10
9.43237e-12
7.12728e-10
1.08749e-11
7.06013e-10
1.23204e-11
6.98511e-10
1.3767e-11
6.90221e-10
1.52125e-11
6.81147e-10
1.66544e-11
6.71292e-10
1.80903e-11
6.6066e-10
1.95177e-11
6.49255e-10
2.09343e-11
6.37083e-10
2.23381e-11
6.24153e-10
2.37273e-11
6.10475e-10
2.50999e-11
5.9606e-10
2.64539e-11
5.80919e-10
2.77866e-11
5.65066e-10
2.90955e-11
5.48514e-10
3.0378e-11
5.31279e-10
3.16321e-11
5.13379e-10
3.28556e-11
4.94832e-10
3.40466e-11
4.75657e-10
3.52025e-11
4.55874e-10
3.63205e-11
4.35507e-10
3.73978e-11
4.14578e-10
3.8432e-11
3.93111e-10
3.94209e-11
3.71131e-10
4.03628e-11
3.48666e-10
4.1256e-11
3.25741e-10
4.20987e-11
3.02386e-10
4.28893e-11
2.7863e-10
4.36259e-11
2.54504e-10
4.43065e-11
2.30037e-10
4.49296e-11
2.05262e-10
4.54939e-11
1.80211e-10
4.59983e-11
1.54917e-10
4.64423e-11
1.29414e-10
4.68251e-11
1.03736e-10
4.7146e-11
7.79171e-11
4.74039e-11
5.19928e-11
4.75977e-11
2.59977e-11
4.7727e-11
-3.24484e-14
4.77916e-11
-2.60618e-11
4.77913e-11
-5.2056e-11
4.77262e-11
-7.79802e-11
4.75972e-11
-1.03798e-10
4.74045e-11
-1.29475e-10
4.71481e-11
-1.54978e-10
4.68283e-11
-1.80272e-10
4.64461e-11
-2.05324e-10
4.60016e-11
-2.30099e-10
4.5496e-11
-2.54567e-10
4.49316e-11
-2.78694e-10
4.43095e-11
-3.02449e-10
4.36299e-11
-3.25804e-10
4.28943e-11
-3.48729e-10
4.21046e-11
-3.71195e-10
4.1262e-11
-3.93175e-10
4.0368e-11
-4.14644e-10
3.94253e-11
-4.35575e-10
3.84362e-11
-4.55943e-10
3.74027e-11
-4.75725e-10
3.63271e-11
-4.949e-10
3.5211e-11
-5.13448e-10
3.40567e-11
-5.31349e-10
3.28668e-11
-5.48584e-10
3.16436e-11
-5.65137e-10
3.03895e-11
-5.80994e-10
2.91077e-11
-5.96138e-10
2.78004e-11
-6.10555e-10
2.6469e-11
-6.24236e-10
2.51161e-11
-6.37169e-10
2.37447e-11
-6.49344e-10
2.23556e-11
-6.60754e-10
2.09509e-11
-6.71393e-10
1.95348e-11
-6.81254e-10
1.81099e-11
-6.90333e-10
1.66768e-11
-6.98628e-10
1.52379e-11
-7.06137e-10
1.37971e-11
-7.12856e-10
1.23553e-11
-7.18788e-10
1.09127e-11
-7.23934e-10
9.47146e-12
-7.28295e-10
8.03373e-12
-7.31877e-10
6.60091e-12
-7.34683e-10
5.17447e-12
-7.36719e-10
3.75628e-12
-7.3799e-10
2.34906e-12
-7.38505e-10
9.55587e-13
-7.38269e-10
-4.23504e-13
-7.37294e-10
-1.78754e-12
-7.35588e-10
-3.13363e-12
-7.3316e-10
-4.46012e-12
-7.30021e-10
-5.7668e-12
-7.26181e-10
-7.05254e-12
-7.21651e-10
-8.3162e-12
-7.16443e-10
-9.55697e-12
-7.1057e-10
-1.07751e-11
-7.04045e-10
-1.19712e-11
-6.9688e-10
-1.31446e-11
-6.89091e-10
-1.42943e-11
-6.80693e-10
-1.54198e-11
-6.71699e-10
-1.65191e-11
-6.62122e-10
-1.75913e-11
-6.51977e-10
-1.86359e-11
-6.41282e-10
-1.96523e-11
-6.30048e-10
-2.06385e-11
-6.18292e-10
-2.15946e-11
-6.06029e-10
-2.2522e-11
-5.93276e-10
-2.34232e-11
-5.80047e-10
-2.42959e-11
-5.66358e-10
-2.51422e-11
-5.52226e-10
-2.59604e-11
-5.37663e-10
-2.67518e-11
-5.22687e-10
-2.75161e-11
-5.07313e-10
-2.82512e-11
-4.9156e-10
-2.89566e-11
-4.75438e-10
-2.96269e-11
-4.58961e-10
-3.02657e-11
-4.42147e-10
-3.08782e-11
-4.25008e-10
-3.14638e-11
-4.07565e-10
-3.2027e-11
-3.89834e-10
-3.25678e-11
-3.71829e-10
-3.30812e-11
-3.53561e-10
-3.35683e-11
-3.35044e-10
-3.40277e-11
-3.16294e-10
-3.44542e-11
-2.97325e-10
-3.48505e-11
-2.78154e-10
-3.52186e-11
-2.5879e-10
-3.55589e-11
-2.39249e-10
-3.58797e-11
-2.19545e-10
-3.61796e-11
-1.99694e-10
-3.64559e-11
-1.79713e-10
-3.67104e-11
-1.59619e-10
-3.6935e-11
-1.39419e-10
-3.71255e-11
-1.19124e-10
-3.72885e-11
-9.87504e-11
-3.74294e-11
-7.83063e-11
-3.75505e-11
-5.78102e-11
-3.76428e-11
-3.72797e-11
-3.76717e-11
-1.69078e-11
-3.72668e-11
-3.11746e-11
1.94019e-11
-6.02171e-11
4.31754e-11
-5.15318e-11
6.37907e-11
-5.29934e-11
8.37799e-11
-5.51839e-11
1.03569e-10
-5.66451e-11
1.234e-10
-5.7326e-11
1.43333e-10
-5.76264e-11
1.63323e-10
-5.76205e-11
1.83328e-10
-5.74361e-11
2.03301e-10
-5.71474e-11
2.23203e-10
-5.67858e-11
2.43005e-10
-5.63671e-11
2.62679e-10
-5.59004e-11
2.82201e-10
-5.53904e-11
3.0155e-10
-5.48391e-11
3.20707e-10
-5.42471e-11
3.39653e-10
-5.36141e-11
3.58373e-10
-5.29404e-11
3.76849e-10
-5.22258e-11
3.95065e-10
-5.14702e-11
4.13006e-10
-5.06732e-11
4.30656e-10
-4.98346e-11
4.47999e-10
-4.89535e-11
4.6502e-10
-4.80297e-11
4.81703e-10
-4.70628e-11
4.98032e-10
-4.60528e-11
5.13991e-10
-4.49998e-11
5.29564e-10
-4.39038e-11
5.44737e-10
-4.27647e-11
5.59492e-10
-4.15823e-11
5.73814e-10
-4.03563e-11
5.87687e-10
-3.90866e-11
6.01094e-10
-3.77734e-11
6.14021e-10
-3.64165e-11
6.26452e-10
-3.50161e-11
6.3837e-10
-3.35722e-11
6.49761e-10
-3.20849e-11
6.60608e-10
-3.05543e-11
6.70895e-10
-2.89807e-11
6.80608e-10
-2.73641e-11
6.89731e-10
-2.57049e-11
6.98251e-10
-2.40036e-11
7.06153e-10
-2.22607e-11
7.13422e-10
-2.04774e-11
7.20045e-10
-1.86549e-11
7.26009e-10
-1.67943e-11
7.31299e-10
-1.48967e-11
7.35905e-10
-1.29631e-11
7.39814e-10
-1.0995e-11
7.43013e-10
-8.99399e-12
7.45491e-10
-6.96216e-12
7.47237e-10
-4.90146e-12
7.48241e-10
-2.81376e-12
7.48494e-10
-7.00762e-13
7.47987e-10
1.43665e-12
7.46711e-10
3.59605e-12
7.4466e-10
5.77515e-12
7.41827e-10
7.9713e-12
7.38207e-10
1.01819e-11
7.33797e-10
1.24046e-11
7.28592e-10
1.46371e-11
7.22591e-10
1.68768e-11
7.15791e-10
1.91211e-11
7.08193e-10
2.13666e-11
6.99797e-10
2.36099e-11
6.90605e-10
2.58473e-11
6.8062e-10
2.80754e-11
6.69846e-10
3.02908e-11
6.58289e-10
3.24902e-11
6.45955e-10
3.46705e-11
6.32852e-10
3.68284e-11
6.18989e-10
3.89604e-11
6.04379e-10
4.10628e-11
5.89032e-10
4.31316e-11
5.72961e-10
4.51631e-11
5.56183e-10
4.71538e-11
5.38713e-10
4.91005e-11
5.20568e-10
5.09998e-11
5.01766e-10
5.28479e-11
4.82328e-10
5.46408e-11
4.62273e-10
5.63743e-11
4.41625e-10
5.80448e-11
4.20407e-10
5.96488e-11
3.98644e-10
6.11835e-11
3.76362e-10
6.26459e-11
3.53586e-10
6.40329e-11
3.30344e-10
6.53417e-11
3.06665e-10
6.65693e-11
2.8258e-10
6.77128e-11
2.58118e-10
6.87696e-11
2.33311e-10
6.97373e-11
2.0819e-10
7.06142e-11
1.8279e-10
7.13988e-11
1.57143e-10
7.20896e-11
1.31284e-10
7.2685e-11
1.05247e-10
7.31834e-11
7.9066e-11
7.35835e-11
5.27779e-11
7.38842e-11
2.64184e-11
7.40848e-11
2.31097e-14
7.41853e-11
-2.63713e-11
7.41854e-11
-5.27293e-11
7.40849e-11
-7.90162e-11
7.38843e-11
-1.05196e-10
7.35844e-11
-1.31232e-10
7.31853e-11
-1.57091e-10
7.26874e-11
-1.82739e-10
7.20925e-11
-2.0814e-10
7.14021e-11
-2.3326e-10
7.06174e-11
-2.58067e-10
6.97405e-11
-2.82529e-10
6.87736e-11
-3.06613e-10
6.77176e-11
-3.30291e-10
6.65745e-11
-3.53532e-10
6.53474e-11
-3.76308e-10
6.40392e-11
-3.98591e-10
6.26522e-11
-4.20355e-10
6.11898e-11
-4.41573e-10
5.96555e-11
-4.62219e-10
5.80523e-11
-4.82273e-10
5.6383e-11
-5.01711e-10
5.46507e-11
-5.20512e-10
5.28589e-11
-5.38658e-10
5.10121e-11
-5.56128e-10
4.9114e-11
-5.72905e-10
4.71675e-11
-5.88976e-10
4.51769e-11
-6.04324e-10
4.31466e-11
-6.18934e-10
4.10791e-11
-6.32797e-10
3.89773e-11
-6.45902e-10
3.68458e-11
-6.58238e-10
3.46886e-11
-6.69795e-10
3.25081e-11
-6.80571e-10
3.03085e-11
-6.90559e-10
2.80947e-11
-6.99752e-10
2.58695e-11
-7.08148e-10
2.36352e-11
-7.15748e-10
2.13958e-11
-7.22548e-10
1.91545e-11
-7.28548e-10
1.6913e-11
-7.33751e-10
1.46743e-11
-7.38159e-10
1.24418e-11
-7.41775e-10
1.02178e-11
-7.44607e-10
8.00548e-12
-7.46657e-10
5.80767e-12
-7.47931e-10
3.62694e-12
-7.4844e-10
1.46585e-12
-7.4819e-10
-6.73309e-13
-7.47188e-10
-2.78706e-12
-7.45445e-10
-4.87503e-12
-7.42971e-10
-6.93421e-12
-7.39776e-10
-8.9631e-12
-7.3587e-10
-1.09593e-11
-7.31263e-10
-1.29215e-11
-7.2597e-10
-1.48495e-11
-7.20004e-10
-1.67422e-11
-7.13377e-10
-1.85987e-11
-7.06103e-10
-2.04184e-11
-6.98197e-10
-2.2201e-11
-6.89675e-10
-2.39446e-11
-6.80548e-10
-2.56466e-11
-6.70834e-10
-2.73066e-11
-6.60546e-10
-2.89244e-11
-6.49698e-10
-3.04989e-11
-6.38306e-10
-3.2028e-11
-6.26387e-10
-3.35134e-11
-6.13956e-10
-3.4955e-11
-6.01026e-10
-3.63538e-11
-5.87616e-10
-3.77083e-11
-5.73739e-10
-3.902e-11
-5.59414e-10
-4.02878e-11
-5.44655e-10
-4.15107e-11
-5.29478e-10
-4.26912e-11
-5.13902e-10
-4.38279e-11
-4.97936e-10
-4.4919e-11
-4.816e-10
-4.59641e-11
-4.64906e-10
-4.69622e-11
-4.47867e-10
-4.79152e-11
-4.30502e-10
-4.8827e-11
-4.1283e-10
-4.96989e-11
-3.94864e-10
-5.05311e-11
-3.76622e-10
-5.13243e-11
-3.58117e-10
-5.20741e-11
-3.39358e-10
-5.27797e-11
-3.20366e-10
-5.34434e-11
-3.0115e-10
-5.40629e-11
-2.81728e-10
-5.46396e-11
-2.62115e-10
-5.51757e-11
-2.4232e-10
-5.56722e-11
-2.22363e-10
-5.61333e-11
-2.02263e-10
-5.6559e-11
-1.82029e-10
-5.6943e-11
-1.61678e-10
-5.72855e-11
-1.4122e-10
-5.75842e-11
-1.20664e-10
-5.78411e-11
-1.00026e-10
-5.80629e-11
-7.93173e-11
-5.82513e-11
-5.85527e-11
-5.83972e-11
-3.77567e-11
-5.84655e-11
-1.71695e-11
-5.78579e-11
-4.83497e-11
1.69305e-11
-7.71473e-11
4.00985e-11
-7.46982e-11
6.18569e-11
-7.47503e-11
8.26472e-11
-7.59738e-11
1.03023e-10
-7.70221e-11
1.23302e-10
-7.76071e-11
1.43521e-10
-7.78477e-11
1.63693e-10
-7.77953e-11
1.83823e-10
-7.7567e-11
2.03887e-10
-7.7213e-11
2.23862e-10
-7.67621e-11
2.43725e-10
-7.62309e-11
2.63453e-10
-7.56296e-11
2.83026e-10
-7.49642e-11
3.02426e-10
-7.42379e-11
3.21632e-10
-7.34524e-11
3.40628e-10
-7.26089e-11
3.59398e-10
-7.1708e-11
3.77924e-10
-7.075e-11
3.9619e-10
-6.97352e-11
4.14182e-10
-6.86631e-11
4.31883e-10
-6.75335e-11
4.49278e-10
-6.63459e-11
4.6635e-10
-6.50998e-11
4.83085e-10
-6.37952e-11
4.99465e-10
-6.24319e-11
5.15476e-10
-6.10099e-11
5.31101e-10
-5.95288e-11
5.46325e-10
-5.79885e-11
5.61132e-10
-5.63888e-11
5.75506e-10
-5.47295e-11
5.8943e-10
-5.30106e-11
6.02889e-10
-5.12322e-11
6.15866e-10
-4.93941e-11
6.28347e-10
-4.74965e-11
6.40316e-10
-4.55395e-11
6.51756e-10
-4.35233e-11
6.62652e-10
-4.14482e-11
6.72988e-10
-3.93147e-11
6.82749e-10
-3.71231e-11
6.91919e-10
-3.4874e-11
7.00485e-10
-3.2568e-11
7.08432e-10
-3.02062e-11
7.15744e-10
-2.77899e-11
7.22409e-10
-2.53203e-11
7.28412e-10
-2.27988e-11
7.33742e-10
-2.02269e-11
7.38384e-10
-1.7606e-11
7.42328e-10
-1.49381e-11
7.45559e-10
-1.22256e-11
7.48067e-10
-9.47092e-12
7.49841e-10
-6.67639e-12
7.50871e-10
-3.84432e-12
7.51147e-10
-9.7776e-13
7.50661e-10
1.92323e-12
7.49404e-10
4.85442e-12
7.47367e-10
7.81166e-12
7.44546e-10
1.0792e-11
7.40935e-10
1.37924e-11
7.3653e-10
1.68096e-11
7.31328e-10
1.98403e-11
7.25326e-10
2.28809e-11
7.18522e-10
2.59273e-11
7.10916e-10
2.89749e-11
7.02506e-10
3.20191e-11
6.93297e-10
3.50556e-11
6.83292e-10
3.80799e-11
6.72494e-10
4.10879e-11
6.60908e-10
4.40747e-11
6.48542e-10
4.70358e-11
6.35403e-10
4.99663e-11
6.21501e-10
5.28612e-11
6.06846e-10
5.57155e-11
5.91451e-10
5.85242e-11
5.75328e-10
6.12825e-11
5.58495e-10
6.39858e-11
5.40965e-10
6.66294e-11
5.22757e-10
6.92082e-11
5.03888e-10
7.17168e-11
4.84377e-10
7.41498e-11
4.64246e-10
7.65024e-11
4.43519e-10
7.877e-11
4.22218e-10
8.09484e-11
4.00368e-10
8.30332e-11
3.77996e-10
8.50199e-11
3.55126e-10
8.6904e-11
3.31788e-10
8.86815e-11
3.0801e-10
9.03485e-11
2.83822e-10
9.19015e-11
2.59254e-10
9.33371e-11
2.3434e-10
9.46521e-11
2.09111e-10
9.58439e-11
1.836e-10
9.69103e-11
1.57842e-10
9.78489e-11
1.3187e-10
9.86574e-11
1.05718e-10
9.93339e-11
7.94216e-11
9.9877e-11
5.3017e-11
1.00286e-10
2.65411e-11
1.00559e-10
2.91903e-14
1.00696e-10
-2.64824e-11
1.00696e-10
-5.29571e-11
1.0056e-10
-7.93598e-11
1.00287e-10
-1.05655e-10
9.98783e-11
-1.31807e-10
9.93354e-11
-1.57779e-10
9.8659e-11
-1.83539e-10
9.78507e-11
-2.0905e-10
9.69132e-11
-2.34278e-10
9.58479e-11
-2.59191e-10
9.46565e-11
-2.83757e-10
9.33418e-11
-3.07944e-10
9.19065e-11
-3.3172e-10
9.03536e-11
-3.55058e-10
8.86868e-11
-3.77927e-10
8.69102e-11
-4.003e-10
8.50274e-11
-4.22149e-10
8.3042e-11
-4.4345e-10
8.09586e-11
-4.64177e-10
7.87813e-11
-4.84307e-10
7.65142e-11
-5.03817e-10
7.41621e-11
-5.22687e-10
7.17296e-11
-5.40896e-10
6.92221e-11
-5.58426e-10
6.66449e-11
-5.7526e-10
6.40022e-11
-5.91381e-10
6.12987e-11
-6.06777e-10
5.85404e-11
-6.21432e-10
5.57323e-11
-6.35334e-10
5.28778e-11
-6.48475e-10
4.99825e-11
-6.60843e-10
4.70529e-11
-6.72428e-10
4.4093e-11
-6.83226e-10
4.11067e-11
-6.93232e-10
3.80997e-11
-7.02441e-10
3.50775e-11
-7.10849e-10
3.20436e-11
-7.18456e-10
2.90018e-11
-7.25261e-10
2.59569e-11
-7.31263e-10
2.29131e-11
-7.36464e-10
1.98743e-11
-7.40866e-10
1.68442e-11
-7.44474e-10
1.38262e-11
-7.47293e-10
1.08245e-11
-7.49328e-10
7.84324e-12
-7.50584e-10
4.88535e-12
-7.51072e-10
1.95347e-12
-7.50797e-10
-9.48678e-13
-7.49768e-10
-3.81543e-12
-7.47996e-10
-6.64748e-12
-7.4549e-10
-9.44096e-12
-7.4226e-10
-1.21933e-11
-7.38317e-10
-1.49019e-11
-7.33673e-10
-1.75651e-11
-7.28341e-10
-2.01819e-11
-7.22334e-10
-2.27503e-11
-7.15665e-10
-2.52687e-11
-7.08349e-10
-2.77368e-11
-7.00399e-10
-3.0153e-11
-6.9183e-10
-3.2515e-11
-6.82656e-10
-3.48207e-11
-6.72893e-10
-3.70701e-11
-6.62556e-10
-3.92621e-11
-6.51658e-10
-4.13954e-11
-6.40215e-10
-4.34697e-11
-6.28244e-10
-4.54849e-11
-6.15761e-10
-4.74409e-11
-6.02778e-10
-4.93364e-11
-5.89317e-10
-5.11731e-11
-5.75387e-10
-5.29495e-11
-5.61006e-10
-5.46656e-11
-5.46193e-10
-5.63229e-11
-5.30961e-10
-5.79215e-11
-5.1533e-10
-5.94608e-11
-4.99311e-10
-6.0939e-11
-4.82919e-10
-6.23555e-11
-4.66171e-10
-6.37106e-11
-4.49079e-10
-6.50045e-11
-4.31661e-10
-6.6242e-11
-4.13936e-10
-6.74247e-11
-3.95916e-10
-6.85499e-11
-3.77617e-10
-6.96209e-11
-3.59054e-10
-7.0636e-11
-3.4024e-10
-7.15909e-11
-3.21191e-10
-7.24893e-11
-3.01923e-10
-7.33303e-11
-2.8245e-10
-7.41137e-11
-2.62786e-10
-7.48418e-11
-2.42942e-10
-7.55148e-11
-2.22934e-10
-7.61371e-11
-2.02781e-10
-7.67101e-11
-1.82496e-10
-7.72295e-11
-1.62091e-10
-7.76916e-11
-1.41576e-10
-7.80989e-11
-1.20962e-10
-7.8456e-11
-1.00272e-10
-7.87636e-11
-7.95143e-11
-7.90137e-11
-5.87032e-11
-7.92066e-11
-3.7861e-11
-7.92978e-11
-1.72428e-11
-7.84766e-11
-6.55901e-11
1.62504e-11
-9.33967e-11
3.85464e-11
-9.69929e-11
6.03987e-11
-9.66024e-11
8.16337e-11
-9.72101e-11
1.02459e-10
-9.78504e-11
1.23063e-10
-9.82137e-11
1.43508e-10
-9.82949e-11
1.63864e-10
-9.81519e-11
1.84134e-10
-9.78379e-11
2.0431e-10
-9.73901e-11
2.24377e-10
-9.68308e-11
2.44318e-10
-9.61745e-11
2.64117e-10
-9.54303e-11
2.83756e-10
-9.4604e-11
3.03218e-10
-9.36993e-11
3.22485e-10
-9.27186e-11
3.41541e-10
-9.16635e-11
3.60369e-10
-9.05351e-11
3.78953e-10
-8.93337e-11
3.97278e-10
-8.80596e-11
4.15328e-10
-8.67125e-11
4.33088e-10
-8.5292e-11
4.50541e-10
-8.37978e-11
4.67673e-10
-8.22298e-11
4.84467e-10
-8.05877e-11
5.00906e-10
-7.88713e-11
5.16976e-10
-7.70801e-11
5.32661e-10
-7.5214e-11
5.47945e-10
-7.32725e-11
5.62812e-10
-7.12555e-11
5.77246e-10
-6.91629e-11
5.9123e-10
-6.69947e-11
6.04748e-10
-6.47509e-11
6.17786e-10
-6.24314e-11
6.30327e-10
-6.00363e-11
6.42355e-10
-5.75658e-11
6.53854e-10
-5.50203e-11
6.64809e-10
-5.24003e-11
6.75204e-10
-4.97065e-11
6.85022e-10
-4.69394e-11
6.9425e-10
-4.40998e-11
7.02872e-10
-4.11885e-11
7.10873e-10
-3.82068e-11
7.18239e-10
-3.51561e-11
7.24955e-10
-3.20379e-11
7.31009e-10
-2.88538e-11
7.36388e-10
-2.56056e-11
7.41077e-10
-2.22956e-11
7.45066e-10
-1.89262e-11
7.48339e-10
-1.55001e-11
7.50887e-10
-1.202e-11
7.52699e-10
-8.48876e-12
7.53764e-10
-4.90929e-12
7.54073e-10
-1.28624e-12
7.53617e-10
2.38136e-12
7.52386e-10
6.08661e-12
7.50373e-10
9.8247e-12
7.47572e-10
1.35925e-11
7.43977e-10
1.73863e-11
7.39586e-10
2.1202e-11
7.34394e-10
2.50351e-11
7.28397e-10
2.88804e-11
7.21594e-10
3.27325e-11
7.13983e-10
3.6586e-11
7.05565e-10
4.04355e-11
6.96343e-10
4.4276e-11
6.8632e-10
4.8102e-11
6.755e-10
5.19077e-11
6.63888e-10
5.56869e-11
6.51491e-10
5.94332e-11
6.38315e-10
6.31405e-11
6.24372e-10
6.68027e-11
6.09671e-10
7.04138e-11
5.94225e-10
7.39677e-11
5.78048e-10
7.74584e-11
5.61154e-10
8.08795e-11
5.4356e-10
8.42246e-11
5.25281e-10
8.74872e-11
5.06336e-10
9.06606e-11
4.86745e-10
9.37386e-11
4.66529e-10
9.67155e-11
4.45711e-10
9.95856e-11
4.24316e-10
1.02343e-10
4.02368e-10
1.04983e-10
3.79891e-10
1.07497e-10
3.56914e-10
1.09882e-10
3.33464e-10
1.12131e-10
3.09571e-10
1.14241e-10
2.85264e-10
1.16207e-10
2.60575e-10
1.18025e-10
2.35537e-10
1.1969e-10
2.10181e-10
1.212e-10
1.84542e-10
1.2255e-10
1.58654e-10
1.23738e-10
1.32549e-10
1.24761e-10
1.06264e-10
1.25617e-10
7.98322e-11
1.26305e-10
5.32919e-11
1.26823e-10
2.66795e-11
1.2717e-10
3.0708e-14
1.27343e-10
-2.66185e-11
1.27343e-10
-5.32307e-11
1.2717e-10
-7.97695e-11
1.26824e-10
-1.062e-10
1.26307e-10
-1.32486e-10
1.25619e-10
-1.58591e-10
1.24763e-10
-1.8448e-10
1.23741e-10
-2.1012e-10
1.22554e-10
-2.35475e-10
1.21205e-10
-2.60511e-10
1.19696e-10
-2.85199e-10
1.1803e-10
-3.09504e-10
1.16213e-10
-3.33395e-10
1.14247e-10
-3.56843e-10
1.12138e-10
-3.79819e-10
1.09889e-10
-4.02295e-10
1.07506e-10
-4.24244e-10
1.04993e-10
-4.45639e-10
1.02356e-10
-4.66456e-10
9.95995e-11
-4.86672e-10
9.67301e-11
-5.06264e-10
9.37536e-11
-5.25209e-10
9.0676e-11
-5.43488e-10
8.7503e-11
-5.61085e-10
8.42412e-11
-5.7798e-10
8.08968e-11
-5.94157e-10
7.74757e-11
-6.09603e-10
7.39847e-11
-6.24305e-10
7.04307e-11
-6.38248e-10
6.68194e-11
-6.51424e-10
6.31564e-11
-6.63822e-10
5.94492e-11
-6.75434e-10
5.57042e-11
-6.86253e-10
5.19265e-11
-6.96275e-10
4.81219e-11
-7.05496e-10
4.42976e-11
-7.13912e-10
4.04591e-11
-7.21522e-10
3.66109e-11
-7.28327e-10
3.27589e-11
-7.34324e-10
2.8909e-11
-7.39516e-10
2.5066e-11
-7.43906e-10
2.12344e-11
-7.47498e-10
1.74187e-11
-7.50297e-10
1.36238e-11
-7.52308e-10
9.85467e-12
-7.53538e-10
6.11575e-12
-7.53995e-10
2.41067e-12
-7.53688e-10
-1.25595e-12
-7.52624e-10
-4.87954e-12
-7.50813e-10
-8.45849e-12
-7.48266e-10
-1.19888e-11
-7.44991e-10
-1.54669e-11
-7.41003e-10
-1.88902e-11
-7.36313e-10
-2.22565e-11
-7.30932e-10
-2.55632e-11
-7.24875e-10
-2.8808e-11
-7.18155e-10
-3.19894e-11
-7.10787e-10
-3.51072e-11
-7.02784e-10
-3.81585e-11
-6.94159e-10
-4.11402e-11
-6.84929e-10
-4.4051e-11
-6.75108e-10
-4.68904e-11
-6.64712e-10
-4.96579e-11
-6.53755e-10
-5.23516e-11
-6.42254e-10
-5.49721e-11
-6.30223e-10
-5.75165e-11
-6.17678e-10
-5.99854e-11
-6.04635e-10
-6.23783e-11
-5.91112e-10
-6.46964e-11
-5.77121e-10
-6.69385e-11
-5.6268e-10
-6.91047e-11
-5.47806e-10
-7.11966e-11
-5.32514e-10
-7.32137e-11
-5.16821e-10
-7.5155e-11
-5.00742e-10
-7.70199e-11
-4.8429e-10
-7.88068e-11
-4.67481e-10
-8.05154e-11
-4.50331e-10
-8.21503e-11
-4.32857e-10
-8.37135e-11
-4.15072e-10
-8.52064e-11
-3.96996e-10
-8.66297e-11
-3.7864e-10
-8.79794e-11
-3.60016e-10
-8.92553e-11
-3.41148e-10
-9.04592e-11
-3.22045e-10
-9.15906e-11
-3.02722e-10
-9.26501e-11
-2.83195e-10
-9.36395e-11
-2.63475e-10
-9.456e-11
-2.43577e-10
-9.54113e-11
-2.23516e-10
-9.61961e-11
-2.03307e-10
-9.69172e-11
-1.82964e-10
-9.75704e-11
-1.62503e-10
-9.81521e-11
-1.41932e-10
-9.86681e-11
-1.21263e-10
-9.91218e-11
-1.00518e-10
-9.95108e-11
-7.97168e-11
-9.98242e-11
-5.88589e-11
-1.00063e-10
-3.79763e-11
-1.0018e-10
-1.73087e-11
-9.91443e-11
-8.28948e-11
1.61863e-11
-1.09582e-10
3.79449e-11
-1.18751e-10
5.97119e-11
-1.18371e-10
8.11014e-11
-1.18602e-10
1.0215e-10
-1.18902e-10
1.22957e-10
-1.19023e-10
1.43602e-10
-1.18941e-10
1.64125e-10
-1.18675e-10
1.84536e-10
-1.1825e-10
2.04833e-10
-1.17688e-10
2.25005e-10
-1.17005e-10
2.45041e-10
-1.16213e-10
2.64928e-10
-1.15318e-10
2.84649e-10
-1.14326e-10
3.0419e-10
-1.1324e-10
3.23533e-10
-1.12062e-10
3.42664e-10
-1.10794e-10
3.61566e-10
-1.09438e-10
3.80224e-10
-1.07993e-10
3.98622e-10
-1.06459e-10
4.16746e-10
-1.04837e-10
4.3458e-10
-1.03125e-10
4.52108e-10
-1.01325e-10
4.69314e-10
-9.94352e-11
4.86182e-10
-9.74557e-11
5.02697e-10
-9.5386e-11
5.18842e-10
-9.32257e-11
5.34602e-10
-9.09743e-11
5.49961e-10
-8.86316e-11
5.64904e-10
-8.61974e-11
5.79413e-10
-8.36716e-11
5.93473e-10
-8.10543e-11
6.07068e-10
-7.83451e-11
6.20181e-10
-7.55441e-11
6.32797e-10
-7.26513e-11
6.44901e-10
-6.9667e-11
6.56475e-10
-6.65919e-11
6.67504e-10
-6.34267e-11
6.77972e-10
-6.01721e-11
6.87863e-10
-5.68289e-11
6.97163e-10
-5.33979e-11
7.05855e-10
-4.98801e-11
7.13925e-10
-4.62769e-11
7.21358e-10
-4.25899e-11
7.2814e-10
-3.8821e-11
7.34258e-10
-3.49721e-11
7.39698e-10
-3.10457e-11
7.44448e-10
-2.70443e-11
7.48492e-10
-2.29708e-11
7.5182e-10
-1.88281e-11
7.54419e-10
-1.46196e-11
7.56279e-10
-1.03484e-11
7.5739e-10
-6.01828e-12
7.5774e-10
-1.63477e-12
7.57322e-10
2.80192e-12
7.56125e-10
7.2841e-12
7.54142e-10
1.1807e-11
7.51367e-10
1.63668e-11
7.47794e-10
2.09589e-11
7.4342e-10
2.55778e-11
7.3824e-10
3.02178e-11
7.3225e-10
3.48723e-11
7.25447e-10
3.95351e-11
7.17832e-10
4.42e-11
7.09405e-10
4.88611e-11
7.00168e-10
5.3512e-11
6.90124e-10
5.81458e-11
6.79277e-10
6.27551e-11
6.67632e-10
6.73321e-11
6.55196e-10
7.18692e-11
6.41976e-10
7.63593e-11
6.27981e-10
8.07953e-11
6.13224e-10
8.517e-11
5.97715e-10
8.9476e-11
5.81469e-10
9.37053e-11
5.64499e-10
9.78501e-11
5.46822e-10
1.01903e-10
5.28455e-10
1.05855e-10
5.09415e-10
1.097e-10
4.89722e-10
1.13429e-10
4.69399e-10
1.17037e-10
4.48469e-10
1.20516e-10
4.26954e-10
1.23858e-10
4.04881e-10
1.27056e-10
3.82275e-10
1.30103e-10
3.59162e-10
1.32993e-10
3.35572e-10
1.35719e-10
3.11535e-10
1.38277e-10
2.8708e-10
1.40661e-10
2.62239e-10
1.42864e-10
2.37045e-10
1.44883e-10
2.11531e-10
1.46713e-10
1.8573e-10
1.4835e-10
1.59677e-10
1.4979e-10
1.33406e-10
1.51031e-10
1.06951e-10
1.5207e-10
8.03504e-11
1.52904e-10
5.36387e-11
1.53532e-10
2.68535e-11
1.53952e-10
3.15395e-14
1.54162e-10
-2.67907e-11
1.54162e-10
-5.35757e-11
1.53952e-10
-8.02859e-11
1.53533e-10
-1.06886e-10
1.52906e-10
-1.3334e-10
1.52073e-10
-1.59613e-10
1.51036e-10
-1.85667e-10
1.49796e-10
-2.11468e-10
1.48356e-10
-2.36983e-10
1.4672e-10
-2.62176e-10
1.4489e-10
-2.87015e-10
1.4287e-10
-3.11469e-10
1.40667e-10
-3.35504e-10
1.38284e-10
-3.59091e-10
1.35727e-10
-3.82202e-10
1.33001e-10
-4.04808e-10
1.30112e-10
-4.26881e-10
1.27066e-10
-4.48395e-10
1.2387e-10
-4.69325e-10
1.2053e-10
-4.89648e-10
1.17053e-10
-5.09341e-10
1.13446e-10
-5.28381e-10
1.09716e-10
-5.4675e-10
1.05872e-10
-5.64429e-10
1.01919e-10
-5.814e-10
9.78665e-11
-5.97647e-10
9.37222e-11
-6.13156e-10
8.9493e-11
-6.27915e-10
8.5187e-11
-6.4191e-10
8.08123e-11
-6.5513e-10
7.63758e-11
-6.67566e-10
7.18849e-11
-6.79211e-10
6.7348e-11
-6.90057e-10
6.27723e-11
-7.00098e-10
5.81648e-11
-7.09334e-10
5.3533e-11
-7.17759e-10
4.88842e-11
-7.25374e-10
4.42246e-11
-7.32176e-10
3.95606e-11
-7.38167e-10
3.48993e-11
-7.43347e-10
3.02463e-11
-7.47722e-10
2.56075e-11
-7.51293e-10
2.09894e-11
-7.54065e-10
1.63975e-11
-7.56046e-10
1.18367e-11
-7.57243e-10
7.3127e-12
-7.57662e-10
2.83067e-12
-7.57312e-10
-1.60462e-12
-7.56203e-10
-5.98926e-12
-7.54344e-10
-1.03189e-11
-7.51745e-10
-1.45891e-11
-7.48416e-10
-1.87954e-11
-7.44371e-10
-2.29353e-11
-7.39621e-10
-2.70064e-11
-7.34179e-10
-3.1005e-11
-7.28059e-10
-3.49288e-11
-7.21275e-10
-3.87757e-11
-7.1384e-10
-4.2544e-11
-7.05768e-10
-4.62314e-11
-6.97073e-10
-4.98351e-11
-6.87771e-10
-5.33535e-11
-6.77877e-10
-5.67837e-11
-6.67407e-10
-6.01268e-11
-6.56377e-10
-6.33822e-11
-6.448e-10
-6.65489e-11
-6.32694e-10
-6.96231e-11
-6.20072e-10
-7.26043e-11
-6.06953e-10
-7.54946e-11
-5.93353e-10
-7.82948e-11
-5.79286e-10
-8.10035e-11
-5.64771e-10
-8.36222e-11
-5.49821e-10
-8.61482e-11
-5.34451e-10
-8.85809e-11
-5.18683e-10
-9.09232e-11
-5.02527e-10
-9.31728e-11
-4.85999e-10