/*--------------------------------*- C++ -*----------------------------------*\
| =========                 |                                                 |
| \\      /  F ield         | OpenFOAM: The Open Source CFD Toolbox           |
|  \\    /   O peration     | Version:  2412                                  |
|   \\  /    A nd           | Website:  www.openfoam.com                      |
|    \\/     M anipulation  |                                                 |
\*---------------------------------------------------------------------------*/
FoamFile
{
    version     2.0;
    format      ascii;
    arch        "LSB;label=32;scalar=64";
    class       volVectorField;
    location    "1.05";
    object      U;
}
// * * * * * * * * * * * * * * * * * * * * * * * * * * * * * * * * * * * * * //

dimensions      [0 1 -1 0 0 0 0];

internalField   nonuniform List<vector> 
40000
(
(1.28363e-05 -8.5222e-07 0)
(1.50028e-05 2.65999e-06 0)
(2.97332e-05 -5.20771e-06 0)
(4.37658e-05 -7.20538e-06 0)
(6.27699e-05 -7.89314e-06 0)
(8.09084e-05 -7.99862e-06 0)
(9.91431e-05 -7.89694e-06 0)
(0.000117084 -7.78205e-06 0)
(0.00013478 -7.6503e-06 0)
(0.00015226 -7.54601e-06 0)
(0.000169501 -7.45937e-06 0)
(0.000186529 -7.37504e-06 0)
(0.000203358 -7.29405e-06 0)
(0.00021999 -7.21442e-06 0)
(0.000236424 -7.13455e-06 0)
(0.000252656 -7.05243e-06 0)
(0.000268681 -6.96602e-06 0)
(0.000284495 -6.87562e-06 0)
(0.000300088 -6.78087e-06 0)
(0.00031545 -6.6813e-06 0)
(0.000330573 -6.57658e-06 0)
(0.000345444 -6.46662e-06 0)
(0.000360053 -6.35121e-06 0)
(0.000374387 -6.23006e-06 0)
(0.000388435 -6.10311e-06 0)
(0.000402184 -5.97038e-06 0)
(0.000415623 -5.83201e-06 0)
(0.00042874 -5.68827e-06 0)
(0.000441522 -5.53933e-06 0)
(0.000453959 -5.38513e-06 0)
(0.000466037 -5.22555e-06 0)
(0.000477746 -5.06047e-06 0)
(0.000489072 -4.88986e-06 0)
(0.000500004 -4.71374e-06 0)
(0.000510529 -4.53222e-06 0)
(0.000520634 -4.34536e-06 0)
(0.000530308 -4.15305e-06 0)
(0.000539538 -3.95523e-06 0)
(0.000548311 -3.75191e-06 0)
(0.000556614 -3.54308e-06 0)
(0.000564434 -3.32865e-06 0)
(0.00057176 -3.1086e-06 0)
(0.000578578 -2.883e-06 0)
(0.000584877 -2.65184e-06 0)
(0.000590644 -2.41529e-06 0)
(0.000595868 -2.17373e-06 0)
(0.000600538 -1.92747e-06 0)
(0.000604643 -1.67667e-06 0)
(0.000608174 -1.42144e-06 0)
(0.00061112 -1.16201e-06 0)
(0.000613473 -8.98618e-07 0)
(0.000615224 -6.31628e-07 0)
(0.000616365 -3.61503e-07 0)
(0.000616886 -8.84721e-08 0)
(0.00061678 1.87912e-07 0)
(0.000616042 4.6751e-07 0)
(0.000614667 7.49536e-07 0)
(0.000612651 1.03371e-06 0)
(0.000609988 1.3195e-06 0)
(0.000606677 1.60673e-06 0)
(0.000602712 1.89535e-06 0)
(0.000598092 2.1851e-06 0)
(0.000592815 2.4756e-06 0)
(0.000586879 2.76643e-06 0)
(0.000580285 3.05716e-06 0)
(0.000573033 3.3473e-06 0)
(0.000565126 3.63629e-06 0)
(0.000556568 3.92358e-06 0)
(0.000547362 4.20861e-06 0)
(0.000537513 4.49081e-06 0)
(0.000527027 4.76967e-06 0)
(0.000515912 5.04481e-06 0)
(0.000504176 5.31599e-06 0)
(0.000491828 5.58296e-06 0)
(0.000478881 5.84533e-06 0)
(0.000465343 6.10256e-06 0)
(0.000451227 6.3541e-06 0)
(0.000436546 6.59951e-06 0)
(0.000421314 6.83847e-06 0)
(0.000405548 7.07067e-06 0)
(0.000389263 7.29563e-06 0)
(0.000372478 7.5127e-06 0)
(0.000355212 7.72123e-06 0)
(0.000337485 7.92074e-06 0)
(0.000319317 8.11085e-06 0)
(0.00030073 8.29115e-06 0)
(0.000281747 8.46119e-06 0)
(0.000262391 8.62051e-06 0)
(0.000242689 8.76874e-06 0)
(0.000222664 8.90564e-06 0)
(0.000202343 9.03093e-06 0)
(0.000181752 9.14423e-06 0)
(0.000160916 9.24511e-06 0)
(0.000139865 9.33339e-06 0)
(0.000118626 9.40925e-06 0)
(9.7228e-05 9.47293e-06 0)
(7.5699e-05 9.52442e-06 0)
(5.40678e-05 9.56351e-06 0)
(3.23631e-05 9.58986e-06 0)
(1.06151e-05 9.60288e-06 0)
(-1.1148e-05 9.60233e-06 0)
(-3.28959e-05 9.5885e-06 0)
(-5.46006e-05 9.5618e-06 0)
(-7.62319e-05 9.52243e-06 0)
(-9.77606e-05 9.47057e-06 0)
(-0.000119159 9.40649e-06 0)
(-0.000140397 9.32992e-06 0)
(-0.000161448 9.24052e-06 0)
(-0.000182283 9.13881e-06 0)
(-0.000202876 9.02545e-06 0)
(-0.000223199 8.90043e-06 0)
(-0.000243225 8.76396e-06 0)
(-0.00026293 8.61657e-06 0)
(-0.000282287 8.45836e-06 0)
(-0.000301273 8.28938e-06 0)
(-0.000319864 8.11016e-06 0)
(-0.000338037 7.92113e-06 0)
(-0.00035577 7.72243e-06 0)
(-0.000373042 7.51456e-06 0)
(-0.000389832 7.29826e-06 0)
(-0.000406121 7.07395e-06 0)
(-0.000421892 6.842e-06 0)
(-0.00043713 6.60287e-06 0)
(-0.000451817 6.357e-06 0)
(-0.000465942 6.10516e-06 0)
(-0.000479491 5.84792e-06 0)
(-0.00049245 5.5852e-06 0)
(-0.000504809 5.31756e-06 0)
(-0.000516557 5.04613e-06 0)
(-0.000527686 4.77101e-06 0)
(-0.000538185 4.49188e-06 0)
(-0.000548049 4.20975e-06 0)
(-0.000557272 3.92565e-06 0)
(-0.000565849 3.63932e-06 0)
(-0.000573775 3.35088e-06 0)
(-0.000581049 3.06161e-06 0)
(-0.000587669 2.77226e-06 0)
(-0.000593631 2.4826e-06 0)
(-0.000598937 2.19304e-06 0)
(-0.000603587 1.90426e-06 0)
(-0.000607582 1.6163e-06 0)
(-0.000610923 1.32937e-06 0)
(-0.000613612 1.04351e-06 0)
(-0.000615654 7.5875e-07 0)
(-0.00061705 4.75425e-07 0)
(-0.000617807 1.93978e-07 0)
(-0.000617928 -8.49833e-08 0)
(-0.00061742 -3.59997e-07 0)
(-0.000616294 -6.30631e-07 0)
(-0.000614558 -8.97157e-07 0)
(-0.000612224 -1.15971e-06 0)
(-0.000609303 -1.41812e-06 0)
(-0.000605804 -1.67177e-06 0)
(-0.000601736 -1.91993e-06 0)
(-0.000597109 -2.16314e-06 0)
(-0.000591932 -2.40227e-06 0)
(-0.000586216 -2.63685e-06 0)
(-0.000579969 -2.86635e-06 0)
(-0.000573203 -3.09101e-06 0)
(-0.000565931 -3.31136e-06 0)
(-0.000558161 -3.52708e-06 0)
(-0.000549908 -3.73735e-06 0)
(-0.000541184 -3.94165e-06 0)
(-0.000532003 -4.1398e-06 0)
(-0.000522381 -4.3318e-06 0)
(-0.000512329 -4.51856e-06 0)
(-0.000501861 -4.70041e-06 0)
(-0.000490991 -4.87607e-06 0)
(-0.00047973 -5.04488e-06 0)
(-0.00046809 -5.2079e-06 0)
(-0.000456081 -5.36752e-06 0)
(-0.000443716 -5.52293e-06 0)
(-0.000431006 -5.67306e-06 0)
(-0.00041797 -5.81627e-06 0)
(-0.000404623 -5.95114e-06 0)
(-0.000390976 -6.07927e-06 0)
(-0.000377047 -6.20157e-06 0)
(-0.000362844 -6.3188e-06 0)
(-0.00034838 -6.4315e-06 0)
(-0.000333665 -6.54007e-06 0)
(-0.000318707 -6.64578e-06 0)
(-0.00030352 -6.74841e-06 0)
(-0.000288114 -6.84592e-06 0)
(-0.000272505 -6.93558e-06 0)
(-0.000256708 -7.01465e-06 0)
(-0.00024074 -7.08329e-06 0)
(-0.000224614 -7.14491e-06 0)
(-0.00020834 -7.20228e-06 0)
(-0.000191924 -7.25767e-06 0)
(-0.000175374 -7.31258e-06 0)
(-0.000158701 -7.36514e-06 0)
(-0.000141921 -7.4121e-06 0)
(-0.000125044 -7.45255e-06 0)
(-0.000108086 -7.4871e-06 0)
(-9.10608e-05 -7.51609e-06 0)
(-7.39816e-05 -7.54201e-06 0)
(-5.68593e-05 -7.55769e-06 0)
(-3.97114e-05 -7.54936e-06 0)
(-2.28074e-05 -7.46021e-06 0)
(-6.67551e-06 -6.6682e-06 0)
(1.8037e-05 -3.04399e-05 0)
(3.72197e-05 -1.74273e-05 0)
(5.64284e-05 -2.46781e-05 0)
(7.28778e-05 -2.72023e-05 0)
(9.14502e-05 -2.86651e-05 0)
(0.000110422 -2.88347e-05 0)
(0.000129926 -2.86641e-05 0)
(0.000149679 -2.83768e-05 0)
(0.00016954 -2.80372e-05 0)
(0.000189418 -2.77168e-05 0)
(0.000209236 -2.74119e-05 0)
(0.000228954 -2.71099e-05 0)
(0.000248545 -2.68109e-05 0)
(0.000267983 -2.651e-05 0)
(0.000287248 -2.62039e-05 0)
(0.000306322 -2.58886e-05 0)
(0.000325188 -2.55602e-05 0)
(0.000343832 -2.52179e-05 0)
(0.000362237 -2.48604e-05 0)
(0.000380389 -2.44863e-05 0)
(0.000398271 -2.40948e-05 0)
(0.00041587 -2.36852e-05 0)
(0.00043317 -2.32568e-05 0)
(0.000450157 -2.28091e-05 0)
(0.000466814 -2.23418e-05 0)
(0.000483127 -2.18546e-05 0)
(0.000499081 -2.13478e-05 0)
(0.00051466 -2.08216e-05 0)
(0.000529848 -2.02761e-05 0)
(0.00054463 -1.97111e-05 0)
(0.000558991 -1.91264e-05 0)
(0.000572914 -1.85217e-05 0)
(0.000586384 -1.7897e-05 0)
(0.000599387 -1.72523e-05 0)
(0.000611906 -1.65876e-05 0)
(0.000623926 -1.59029e-05 0)
(0.000635432 -1.51982e-05 0)
(0.000646408 -1.44734e-05 0)
(0.000656838 -1.37285e-05 0)
(0.000666708 -1.29634e-05 0)
(0.000676002 -1.2178e-05 0)
(0.000684706 -1.13723e-05 0)
(0.000692806 -1.05466e-05 0)
(0.000700289 -9.70123e-06 0)
(0.000707141 -8.83698e-06 0)
(0.000713347 -7.95473e-06 0)
(0.000718894 -7.05523e-06 0)
(0.000723771 -6.13902e-06 0)
(0.000727965 -5.20665e-06 0)
(0.000731464 -4.25889e-06 0)
(0.000734257 -3.29669e-06 0)
(0.000736332 -2.3212e-06 0)
(0.00073768 -1.33359e-06 0)
(0.00073829 -3.34698e-07 0)
(0.000738157 6.75181e-07 0)
(0.00073727 1.69563e-06 0)
(0.000735621 2.72498e-06 0)
(0.000733204 3.76216e-06 0)
(0.000730013 4.80589e-06 0)
(0.000726044 5.85521e-06 0)
(0.000721293 6.90925e-06 0)
(0.000715757 7.96697e-06 0)
(0.000709436 9.02708e-06 0)
(0.000702326 1.00881e-05 0)
(0.00069443 1.11485e-05 0)
(0.000685748 1.22065e-05 0)
(0.000676284 1.32601e-05 0)
(0.00066604 1.43076e-05 0)
(0.00065502 1.53471e-05 0)
(0.000643232 1.63771e-05 0)
(0.00063068 1.73961e-05 0)
(0.000617375 1.84026e-05 0)
(0.000603327 1.93953e-05 0)
(0.000588548 2.03726e-05 0)
(0.000573049 2.13325e-05 0)
(0.000556845 2.22733e-05 0)
(0.00053995 2.31932e-05 0)
(0.00052238 2.40906e-05 0)
(0.000504155 2.49641e-05 0)
(0.000485292 2.5812e-05 0)
(0.000465811 2.66324e-05 0)
(0.000445735 2.74232e-05 0)
(0.000425085 2.81824e-05 0)
(0.000403885 2.89086e-05 0)
(0.00038216 2.96003e-05 0)
(0.000359936 3.02562e-05 0)
(0.000337238 3.08751e-05 0)
(0.000314096 3.14554e-05 0)
(0.000290538 3.19959e-05 0)
(0.000266595 3.24953e-05 0)
(0.000242296 3.29524e-05 0)
(0.000217673 3.33663e-05 0)
(0.000192757 3.37361e-05 0)
(0.000167582 3.40611e-05 0)
(0.000142181 3.43412e-05 0)
(0.000116588 3.45761e-05 0)
(9.08363e-05 3.47649e-05 0)
(6.49617e-05 3.49071e-05 0)
(3.89989e-05 3.5002e-05 0)
(1.29842e-05 3.50493e-05 0)
(-1.30489e-05 3.50486e-05 0)
(-3.90627e-05 3.50003e-05 0)
(-6.50248e-05 3.49051e-05 0)
(-9.08989e-05 3.47633e-05 0)
(-0.000116649 3.4575e-05 0)
(-0.000142242 3.43408e-05 0)
(-0.000167644 3.40608e-05 0)
(-0.000192819 3.3735e-05 0)
(-0.000217735 3.33643e-05 0)
(-0.000242359 3.29507e-05 0)
(-0.000266659 3.24945e-05 0)
(-0.000290602 3.19962e-05 0)
(-0.00031416 3.14571e-05 0)
(-0.000337302 3.08783e-05 0)
(-0.000359999 3.02606e-05 0)
(-0.000382224 2.96052e-05 0)
(-0.00040395 2.89139e-05 0)
(-0.000425152 2.81883e-05 0)
(-0.000445803 2.74298e-05 0)
(-0.00046588 2.66404e-05 0)
(-0.000485361 2.58217e-05 0)
(-0.000504224 2.4975e-05 0)
(-0.00052245 2.41023e-05 0)
(-0.00054002 2.32052e-05 0)
(-0.000556916 2.22857e-05 0)
(-0.000573123 2.13461e-05 0)
(-0.000588625 2.03875e-05 0)
(-0.000603407 1.94112e-05 0)
(-0.000617457 1.84197e-05 0)
(-0.000630765 1.74146e-05 0)
(-0.00064332 1.63962e-05 0)
(-0.000655113 1.53666e-05 0)
(-0.000666138 1.4329e-05 0)
(-0.000676389 1.32846e-05 0)
(-0.000685859 1.22338e-05 0)
(-0.000694547 1.11791e-05 0)
(-0.000702449 1.01233e-05 0)
(-0.000709564 9.06661e-06 0)
(-0.000715889 8.00939e-06 0)
(-0.000721427 6.95341e-06 0)
(-0.00072618 5.89981e-06 0)
(-0.000730149 4.84951e-06 0)
(-0.000733341 3.80337e-06 0)
(-0.000735761 2.76251e-06 0)
(-0.000737413 1.72887e-06 0)
(-0.000738306 7.04449e-07 0)
(-0.000738445 -3.09584e-07 0)
(-0.000737841 -1.31123e-06 0)
(-0.000736501 -2.29856e-06 0)
(-0.000734435 -3.27096e-06 0)
(-0.000731652 -4.22857e-06 0)
(-0.000728163 -5.17078e-06 0)
(-0.000723977 -6.09655e-06 0)
(-0.000719106 -7.00494e-06 0)
(-0.000713563 -7.89669e-06 0)
(-0.000707361 -8.77293e-06 0)
(-0.000700512 -9.63281e-06 0)
(-0.000693033 -1.04753e-05 0)
(-0.000684938 -1.13e-05 0)
(-0.00067624 -1.21065e-05 0)
(-0.000666954 -1.28935e-05 0)
(-0.000657093 -1.36599e-05 0)
(-0.000646673 -1.4405e-05 0)
(-0.00063571 -1.51276e-05 0)
(-0.000624216 -1.58278e-05 0)
(-0.000612206 -1.65072e-05 0)
(-0.000599696 -1.7168e-05 0)
(-0.000586701 -1.7808e-05 0)
(-0.000573238 -1.8428e-05 0)
(-0.000559323 -1.90281e-05 0)
(-0.000544971 -1.96105e-05 0)
(-0.000530199 -2.01738e-05 0)
(-0.000515026 -2.07158e-05 0)
(-0.000499468 -2.12347e-05 0)
(-0.000483537 -2.17264e-05 0)
(-0.00046724 -2.21947e-05 0)
(-0.000450591 -2.26431e-05 0)
(-0.000433605 -2.30727e-05 0)
(-0.000416304 -2.34866e-05 0)
(-0.00039871 -2.38853e-05 0)
(-0.000380841 -2.42668e-05 0)
(-0.000362709 -2.46299e-05 0)
(-0.000344324 -2.4971e-05 0)
(-0.000325696 -2.52851e-05 0)
(-0.000306836 -2.55723e-05 0)
(-0.000287761 -2.5835e-05 0)
(-0.000268488 -2.60776e-05 0)
(-0.000249028 -2.63069e-05 0)
(-0.000229402 -2.65231e-05 0)
(-0.000209624 -2.67258e-05 0)
(-0.000189711 -2.69142e-05 0)
(-0.000169676 -2.7082e-05 0)
(-0.000149528 -2.72264e-05 0)
(-0.000129277 -2.73505e-05 0)
(-0.000108944 -2.74555e-05 0)
(-8.85412e-05 -2.75438e-05 0)
(-6.8066e-05 -2.76034e-05 0)
(-4.75274e-05 -2.7599e-05 0)
(-2.72831e-05 -2.72553e-05 0)
(-7.47363e-06 -2.28023e-05 0)
(9.99011e-06 -4.90555e-05 0)
(3.03367e-05 -3.85965e-05 0)
(5.49007e-05 -4.10916e-05 0)
(7.39695e-05 -4.41523e-05 0)
(9.36656e-05 -4.61353e-05 0)
(0.000113355 -4.7058e-05 0)
(0.000133225 -4.74128e-05 0)
(0.000153204 -4.74562e-05 0)
(0.000173225 -4.73181e-05 0)
(0.000193236 -4.70799e-05 0)
(0.000213192 -4.67758e-05 0)
(0.00023306 -4.64221e-05 0)
(0.000252811 -4.60294e-05 0)
(0.000272419 -4.56023e-05 0)
(0.000291862 -4.51427e-05 0)
(0.000311121 -4.46506e-05 0)
(0.000330179 -4.41255e-05 0)
(0.000349016 -4.35675e-05 0)
(0.000367618 -4.2976e-05 0)
(0.000385967 -4.23511e-05 0)
(0.000404048 -4.16922e-05 0)
(0.000421846 -4.0999e-05 0)
(0.000439344 -4.0271e-05 0)
(0.000456528 -3.95078e-05 0)
(0.000473381 -3.87092e-05 0)
(0.000489889 -3.78753e-05 0)
(0.000506036 -3.70062e-05 0)
(0.000521804 -3.6102e-05 0)
(0.000537179 -3.51627e-05 0)
(0.000552145 -3.41883e-05 0)
(0.000566686 -3.31786e-05 0)
(0.000580785 -3.21334e-05 0)
(0.000594427 -3.10526e-05 0)
(0.000607597 -2.99364e-05 0)
(0.000620277 -2.87845e-05 0)
(0.000632454 -2.75972e-05 0)
(0.00064411 -2.63742e-05 0)
(0.00065523 -2.51158e-05 0)
(0.000665799 -2.38221e-05 0)
(0.0006758 -2.24931e-05 0)
(0.000685218 -2.11289e-05 0)
(0.000694041 -1.97299e-05 0)
(0.000702252 -1.82965e-05 0)
(0.000709839 -1.68296e-05 0)
(0.000716786 -1.53304e-05 0)
(0.00072308 -1.37999e-05 0)
(0.000728709 -1.22391e-05 0)
(0.000733658 -1.06491e-05 0)
(0.000737916 -9.03075e-06 0)
(0.000741472 -7.38561e-06 0)
(0.000744311 -5.71531e-06 0)
(0.000746425 -4.02153e-06 0)
(0.000747801 -2.30583e-06 0)
(0.00074843 -5.69636e-07 0)
(0.000748304 1.18598e-06 0)
(0.000747415 2.95984e-06 0)
(0.000745752 4.74994e-06 0)
(0.000743311 6.5542e-06 0)
(0.000740085 8.37065e-06 0)
(0.00073607 1.01974e-05 0)
(0.000731263 1.20324e-05 0)
(0.000725659 1.38737e-05 0)
(0.000719259 1.5719e-05 0)
(0.00071206 1.75655e-05 0)
(0.000704062 1.94103e-05 0)
(0.000695267 2.12504e-05 0)
(0.000685679 2.30825e-05 0)
(0.000675299 2.49037e-05 0)
(0.000664133 2.67112e-05 0)
(0.000652187 2.85023e-05 0)
(0.000639468 3.02745e-05 0)
(0.000625984 3.20251e-05 0)
(0.000611746 3.37513e-05 0)
(0.000596765 3.545e-05 0)
(0.000581055 3.71182e-05 0)
(0.000564629 3.87529e-05 0)
(0.000547503 4.03517e-05 0)
(0.000529693 4.1912e-05 0)
(0.000511218 4.34308e-05 0)
(0.000492097 4.4905e-05 0)
(0.000472349 4.6331e-05 0)
(0.000451995 4.77055e-05 0)
(0.000431061 4.90256e-05 0)
(0.000409569 5.02884e-05 0)
(0.000387544 5.14917e-05 0)
(0.000365012 5.26328e-05 0)
(0.000342001 5.37093e-05 0)
(0.000318539 5.47187e-05 0)
(0.000294654 5.56585e-05 0)
(0.000270378 5.65266e-05 0)
(0.000245741 5.73208e-05 0)
(0.000220774 5.80398e-05 0)
(0.000195511 5.86825e-05 0)
(0.000169985 5.92479e-05 0)
(0.00014423 5.97351e-05 0)
(0.000118279 6.0143e-05 0)
(9.21668e-05 6.04706e-05 0)
(6.59293e-05 6.07168e-05 0)
(3.96023e-05 6.0881e-05 0)
(1.32225e-05 6.09631e-05 0)
(-1.3176e-05 6.09626e-05 0)
(-3.95544e-05 6.08795e-05 0)
(-6.58798e-05 6.07144e-05 0)
(-9.21161e-05 6.04679e-05 0)
(-0.000118227 6.01401e-05 0)
(-0.000144178 5.97313e-05 0)
(-0.000169935 5.92429e-05 0)
(-0.000195462 5.86758e-05 0)
(-0.000220725 5.80312e-05 0)
(-0.000245691 5.73111e-05 0)
(-0.000270328 5.65172e-05 0)
(-0.000294603 5.56502e-05 0)
(-0.000318486 5.47117e-05 0)
(-0.000341948 5.37044e-05 0)
(-0.000364959 5.26302e-05 0)
(-0.00038749 5.1491e-05 0)
(-0.000409515 5.02896e-05 0)
(-0.000431008 4.9029e-05 0)
(-0.000451942 4.77117e-05 0)
(-0.000472294 4.63401e-05 0)
(-0.000492042 4.49168e-05 0)
(-0.000511164 4.34446e-05 0)
(-0.000529639 4.1927e-05 0)
(-0.000547449 4.03672e-05 0)
(-0.000564575 3.87676e-05 0)
(-0.000581 3.7132e-05 0)
(-0.000596711 3.54637e-05 0)
(-0.000611692 3.37647e-05 0)
(-0.000625929 3.20377e-05 0)
(-0.000639414 3.02865e-05 0)
(-0.000652136 2.85136e-05 0)
(-0.000664083 2.67212e-05 0)
(-0.000675251 2.49135e-05 0)
(-0.000685633 2.30943e-05 0)
(-0.000695224 2.12652e-05 0)
(-0.00070402 1.94288e-05 0)
(-0.000712018 1.7589e-05 0)
(-0.000719218 1.57479e-05 0)
(-0.000725618 1.39066e-05 0)
(-0.000731218 1.20675e-05 0)
(-0.000736022 1.02335e-05 0)
(-0.000740033 8.4063e-06 0)
(-0.000743255 6.58808e-06 0)
(-0.000745693 4.78119e-06 0)
(-0.000747355 2.98822e-06 0)
(-0.000748246 1.21182e-06 0)
(-0.000748375 -5.46291e-07 0)
(-0.00074775 -2.28509e-06 0)
(-0.000746379 -4.00169e-06 0)
(-0.000744272 -5.69398e-06 0)
(-0.000741438 -7.36097e-06 0)
(-0.000737887 -9.00075e-06 0)
(-0.000733629 -1.0612e-05 0)
(-0.000728677 -1.21941e-05 0)
(-0.000723045 -1.3747e-05 0)
(-0.000716745 -1.52705e-05 0)
(-0.000709791 -1.67641e-05 0)
(-0.000702198 -1.82272e-05 0)
(-0.000693982 -1.9659e-05 0)
(-0.000685157 -2.10574e-05 0)
(-0.000675736 -2.24218e-05 0)
(-0.000665735 -2.3752e-05 0)
(-0.000655168 -2.50471e-05 0)
(-0.00064405 -2.63052e-05 0)
(-0.000632395 -2.75274e-05 0)
(-0.00062022 -2.87138e-05 0)
(-0.000607537 -2.98657e-05 0)
(-0.000594362 -3.09806e-05 0)
(-0.000580713 -3.20601e-05 0)
(-0.000566607 -3.31031e-05 0)
(-0.000552061 -3.41101e-05 0)
(-0.000537092 -3.50823e-05 0)
(-0.000521717 -3.6018e-05 0)
(-0.000505952 -3.69167e-05 0)
(-0.000489807 -3.77756e-05 0)
(-0.000473296 -3.85962e-05 0)
(-0.000456426 -3.93817e-05 0)
(-0.000439214 -4.01334e-05 0)
(-0.000421684 -4.08536e-05 0)
(-0.000403858 -4.15425e-05 0)
(-0.000385755 -4.21981e-05 0)
(-0.000367388 -4.28178e-05 0)
(-0.000348763 -4.33995e-05 0)
(-0.000329889 -4.39407e-05 0)
(-0.000310782 -4.44414e-05 0)
(-0.000291456 -4.49047e-05 0)
(-0.000271932 -4.53345e-05 0)
(-0.000252226 -4.57378e-05 0)
(-0.00023235 -4.61173e-05 0)
(-0.000212323 -4.64715e-05 0)
(-0.000192158 -4.6797e-05 0)
(-0.000171864 -4.70874e-05 0)
(-0.000151455 -4.73368e-05 0)
(-0.000130945 -4.75482e-05 0)
(-0.000110353 -4.77283e-05 0)
(-8.96885e-05 -4.788e-05 0)
(-6.89394e-05 -4.79943e-05 0)
(-4.81342e-05 -4.80387e-05 0)
(-2.7664e-05 -4.75334e-05 0)
(-7.55913e-06 -3.97327e-05 0)
(7.51785e-06 -7.0179e-05 0)
(2.75044e-05 -6.38315e-05 0)
(5.19962e-05 -6.40215e-05 0)
(7.26087e-05 -6.55576e-05 0)
(9.30316e-05 -6.67363e-05 0)
(0.000113223 -6.73387e-05 0)
(0.000133396 -6.75601e-05 0)
(0.000153561 -6.75479e-05 0)
(0.000173707 -6.73732e-05 0)
(0.000193809 -6.70804e-05 0)
(0.000213836 -6.66965e-05 0)
(0.000233764 -6.62384e-05 0)
(0.000253567 -6.57171e-05 0)
(0.000273224 -6.51391e-05 0)
(0.000292717 -6.45077e-05 0)
(0.000312025 -6.38246e-05 0)
(0.000331131 -6.30907e-05 0)
(0.000350018 -6.23066e-05 0)
(0.000368669 -6.14726e-05 0)
(0.000387068 -6.0589e-05 0)
(0.0004052 -5.96555e-05 0)
(0.000423048 -5.86719e-05 0)
(0.000440597 -5.76377e-05 0)
(0.000457833 -5.65526e-05 0)
(0.000474738 -5.54166e-05 0)
(0.000491298 -5.42297e-05 0)
(0.000507496 -5.2992e-05 0)
(0.000523316 -5.17034e-05 0)
(0.000538742 -5.03637e-05 0)
(0.00055376 -4.89728e-05 0)
(0.000568352 -4.75306e-05 0)
(0.000582502 -4.60368e-05 0)
(0.000596196 -4.44917e-05 0)
(0.000609416 -4.2895e-05 0)
(0.000622147 -4.12468e-05 0)
(0.000634374 -3.95471e-05 0)
(0.00064608 -3.77959e-05 0)
(0.00065725 -3.59937e-05 0)
(0.000667867 -3.41405e-05 0)
(0.000677917 -3.22367e-05 0)
(0.000687383 -3.02827e-05 0)
(0.000696252 -2.82791e-05 0)
(0.000704509 -2.62267e-05 0)
(0.000712139 -2.41267e-05 0)
(0.000719129 -2.19806e-05 0)
(0.000725464 -1.97895e-05 0)
(0.000731132 -1.75548e-05 0)
(0.000736119 -1.52778e-05 0)
(0.000740413 -1.29603e-05 0)
(0.000744002 -1.06042e-05 0)
(0.000746873 -8.21175e-06 0)
(0.000749015 -5.7851e-06 0)
(0.000750417 -3.3262e-06 0)
(0.000751072 -8.3688e-07 0)
(0.000750968 1.68114e-06 0)
(0.000750098 4.22515e-06 0)
(0.000748452 6.79252e-06 0)
(0.000746024 9.38034e-06 0)
(0.000742809 1.19858e-05 0)
(0.000738801 1.46062e-05 0)
(0.000733998 1.72385e-05 0)
(0.000728396 1.98796e-05 0)
(0.000721993 2.25258e-05 0)
(0.000714787 2.51732e-05 0)
(0.000706779 2.78175e-05 0)
(0.000697969 3.04545e-05 0)
(0.000688362 3.30804e-05 0)
(0.000677959 3.5691e-05 0)
(0.000666767 3.82826e-05 0)
(0.00065479 4.08512e-05 0)
(0.000642037 4.33928e-05 0)
(0.000628515 4.59035e-05 0)
(0.000614235 4.83789e-05 0)
(0.000599208 5.08149e-05 0)
(0.000583448 5.32074e-05 0)
(0.000566969 5.55525e-05 0)
(0.000549785 5.78463e-05 0)
(0.000531915 6.00848e-05 0)
(0.000513375 6.22633e-05 0)
(0.000494183 6.43769e-05 0)
(0.000474361 6.64212e-05 0)
(0.00045393 6.83918e-05 0)
(0.000432914 7.02847e-05 0)
(0.000411337 7.2096e-05 0)
(0.000389223 7.38217e-05 0)
(0.0003666 7.54583e-05 0)
(0.000343494 7.70018e-05 0)
(0.000319933 7.8449e-05 0)
(0.000295947 7.97966e-05 0)
(0.000271567 8.10414e-05 0)
(0.000246824 8.2181e-05 0)
(0.000221749 8.32131e-05 0)
(0.000196377 8.41362e-05 0)
(0.00017074 8.49485e-05 0)
(0.000144872 8.56481e-05 0)
(0.000118807 8.62335e-05 0)
(9.25804e-05 8.67036e-05 0)
(6.6227e-05 8.70574e-05 0)
(3.97836e-05 8.72939e-05 0)
(1.32872e-05 8.74128e-05 0)
(-1.32284e-05 8.74134e-05 0)
(-3.97238e-05 8.72953e-05 0)
(-6.61656e-05 8.70587e-05 0)
(-9.25178e-05 8.67047e-05 0)
(-0.000118744 8.62341e-05 0)
(-0.00014481 8.56473e-05 0)
(-0.000170679 8.49462e-05 0)
(-0.000196317 8.41329e-05 0)
(-0.000221689 8.32087e-05 0)
(-0.000246762 8.21755e-05 0)
(-0.000271504 8.10356e-05 0)
(-0.000295883 7.97911e-05 0)
(-0.000319867 7.84442e-05 0)
(-0.000343426 7.69985e-05 0)
(-0.000366531 7.54572e-05 0)
(-0.000389154 7.38233e-05 0)
(-0.000411267 7.21002e-05 0)
(-0.000432844 7.0292e-05 0)
(-0.00045386 6.84023e-05 0)
(-0.00047429 6.64346e-05 0)
(-0.000494113 6.43929e-05 0)
(-0.000513305 6.22812e-05 0)
(-0.000531846 6.01045e-05 0)
(-0.000549718 5.78673e-05 0)
(-0.000566901 5.55731e-05 0)
(-0.000583381 5.32263e-05 0)
(-0.000599141 5.08323e-05 0)
(-0.000614168 4.83947e-05 0)
(-0.000628448 4.59169e-05 0)
(-0.00064197 4.34036e-05 0)
(-0.000654725 4.08603e-05 0)
(-0.000666703 3.82903e-05 0)
(-0.000677895 3.56973e-05 0)
(-0.000688298 3.30869e-05 0)
(-0.000697906 3.04633e-05 0)
(-0.000706715 2.78295e-05 0)
(-0.000714723 2.51893e-05 0)
(-0.000721929 2.25469e-05 0)
(-0.000728332 1.99052e-05 0)
(-0.000733932 1.72674e-05 0)
(-0.000738732 1.46372e-05 0)
(-0.000742736 1.20174e-05 0)
(-0.000745947 9.4114e-06 0)
(-0.000748373 6.82282e-06 0)
(-0.000750017 4.25442e-06 0)
(-0.000750889 1.70898e-06 0)
(-0.000750996 -8.10099e-07 0)
(-0.000750345 -3.30091e-06 0)
(-0.000748945 -5.76038e-06 0)
(-0.000746807 -8.18585e-06 0)
(-0.000743939 -1.05753e-05 0)
(-0.000740352 -1.29261e-05 0)
(-0.000736057 -1.52369e-05 0)
(-0.000731067 -1.75071e-05 0)
(-0.000725395 -1.97355e-05 0)
(-0.000719054 -2.19209e-05 0)
(-0.000712058 -2.4063e-05 0)
(-0.000704422 -2.61608e-05 0)
(-0.000696161 -2.82126e-05 0)
(-0.000687289 -3.02162e-05 0)
(-0.00067782 -3.21714e-05 0)
(-0.00066777 -3.40775e-05 0)
(-0.000657153 -3.59332e-05 0)
(-0.000645984 -3.77369e-05 0)
(-0.000634279 -3.94897e-05 0)
(-0.000622052 -4.1191e-05 0)
(-0.000609316 -4.28403e-05 0)
(-0.000596089 -4.44374e-05 0)
(-0.000582387 -4.59819e-05 0)
(-0.000568227 -4.74736e-05 0)
(-0.000553627 -4.89129e-05 0)
(-0.000538604 -5.03015e-05 0)
(-0.000523174 -5.16383e-05 0)
(-0.000507353 -5.29215e-05 0)
(-0.000491153 -5.41511e-05 0)
(-0.000474586 -5.53269e-05 0)
(-0.000457663 -5.64503e-05 0)
(-0.000440398 -5.75258e-05 0)
(-0.000422817 -5.85546e-05 0)
(-0.000404939 -5.95348e-05 0)
(-0.000386781 -6.04679e-05 0)
(-0.000368357 -6.13496e-05 0)
(-0.000349673 -6.21769e-05 0)
(-0.00033074 -6.29528e-05 0)
(-0.000311576 -6.3677e-05 0)
(-0.000292197 -6.43522e-05 0)
(-0.000272625 -6.49828e-05 0)
(-0.000252873 -6.55707e-05 0)
(-0.000232953 -6.61198e-05 0)
(-0.000212877 -6.66287e-05 0)
(-0.000192657 -6.70886e-05 0)
(-0.000172303 -6.7494e-05 0)
(-0.000151833 -6.78434e-05 0)
(-0.000131267 -6.81419e-05 0)
(-0.000110626 -6.83979e-05 0)
(-8.99103e-05 -6.86115e-05 0)
(-6.91099e-05 -6.87795e-05 0)
(-4.82602e-05 -6.88639e-05 0)
(-2.77613e-05 -6.81574e-05 0)
(-7.6007e-06 -5.69663e-05 0)
(7.10687e-06 -8.57841e-05 0)
(2.64564e-05 -8.61318e-05 0)
(5.01411e-05 -8.57158e-05 0)
(7.13503e-05 -8.65942e-05 0)
(9.22768e-05 -8.73774e-05 0)
(0.000112895 -8.77918e-05 0)
(0.000133347 -8.79206e-05 0)
(0.000153702 -8.78373e-05 0)
(0.000173992 -8.75888e-05 0)
(0.000194206 -8.72097e-05 0)
(0.000214327 -8.67228e-05 0)
(0.000234333 -8.61436e-05 0)
(0.000254206 -8.54823e-05 0)
(0.000273929 -8.47453e-05 0)
(0.000293483 -8.39367e-05 0)
(0.000312851 -8.30591e-05 0)
(0.000332017 -8.2114e-05 0)
(0.000350962 -8.11026e-05 0)
(0.000369671 -8.00255e-05 0)
(0.000388128 -7.88829e-05 0)
(0.000406318 -7.76747e-05 0)
(0.000424224 -7.64008e-05 0)
(0.000441833 -7.50607e-05 0)
(0.000459127 -7.36543e-05 0)
(0.000476092 -7.21815e-05 0)
(0.00049271 -7.06421e-05 0)
(0.000508967 -6.9036e-05 0)
(0.000524846 -6.73631e-05 0)
(0.000540333 -6.5623e-05 0)
(0.00055541 -6.38156e-05 0)
(0.000570062 -6.19407e-05 0)
(0.000584272 -5.99982e-05 0)
(0.000598026 -5.79881e-05 0)
(0.000611306 -5.59104e-05 0)
(0.000624097 -5.3765e-05 0)
(0.000636383 -5.15521e-05 0)
(0.000648149 -4.92719e-05 0)
(0.000659378 -4.69248e-05 0)
(0.000670054 -4.45114e-05 0)
(0.000680161 -4.20322e-05 0)
(0.000689686 -3.94877e-05 0)
(0.000698611 -3.68788e-05 0)
(0.000706923 -3.42067e-05 0)
(0.000714608 -3.14728e-05 0)
(0.00072165 -2.86785e-05 0)
(0.000728037 -2.58255e-05 0)
(0.000733754 -2.29153e-05 0)
(0.000738789 -1.99498e-05 0)
(0.000743129 -1.69313e-05 0)
(0.000746761 -1.38624e-05 0)
(0.000749673 -1.07454e-05 0)
(0.000751853 -7.58292e-06 0)
(0.000753293 -4.37736e-06 0)
(0.000753982 -1.13128e-06 0)
(0.00075391 2.15187e-06 0)
(0.000753067 5.46874e-06 0)
(0.000751447 8.81608e-06 0)
(0.00074904 1.21903e-05 0)
(0.000745843 1.55878e-05 0)
(0.000741851 1.9005e-05 0)
(0.000737059 2.24378e-05 0)
(0.000731465 2.58816e-05 0)
(0.000725065 2.93314e-05 0)
(0.000717857 3.27822e-05 0)
(0.000709843 3.62289e-05 0)
(0.000701022 3.96667e-05 0)
(0.000691399 4.30905e-05 0)
(0.000680977 4.64955e-05 0)
(0.00066976 4.98763e-05 0)
(0.000657755 5.32273e-05 0)
(0.000644967 5.65434e-05 0)
(0.000631406 5.98191e-05 0)
(0.000617083 6.30493e-05 0)
(0.000602008 6.62284e-05 0)
(0.000586195 6.93513e-05 0)
(0.000569659 7.24125e-05 0)
(0.000552413 7.54066e-05 0)
(0.000534475 7.83276e-05 0)
(0.000515862 8.11694e-05 0)
(0.000496593 8.3926e-05 0)
(0.000476687 8.6592e-05 0)
(0.000456169 8.91622e-05 0)
(0.00043506 9.16312e-05 0)
(0.000413386 9.39937e-05 0)
(0.000391171 9.62443e-05 0)
(0.000368442 9.83781e-05 0)
(0.000345226 0.000100391 0)
(0.000321552 0.000102278 0)
(0.000297449 0.000104036 0)
(0.000272949 0.000105661 0)
(0.000248083 0.000107149 0)
(0.000222883 0.000108498 0)
(0.000197383 0.000109705 0)
(0.000171617 0.000110767 0)
(0.000145617 0.000111682 0)
(0.00011942 0.000112448 0)
(9.30585e-05 0.000113063 0)
(6.657e-05 0.000113526 0)
(3.99906e-05 0.000113836 0)
(1.33574e-05 0.000113992 0)
(-1.32956e-05 0.000113993 0)
(-3.99286e-05 0.000113839 0)
(-6.65074e-05 0.00011353 0)
(-9.29952e-05 0.000113068 0)
(-0.000119356 0.000112453 0)
(-0.000145555 0.000111688 0)
(-0.000171555 0.000110773 0)
(-0.000197323 0.000109711 0)
(-0.000222822 0.000108505 0)
(-0.000248021 0.000107156 0)
(-0.000272885 0.000105666 0)
(-0.000297384 0.000104041 0)
(-0.000321484 0.000102283 0)
(-0.000345156 0.000100395 0)
(-0.00036837 9.8383e-05 0)
(-0.000391098 9.62503e-05 0)
(-0.000413313 9.40013e-05 0)
(-0.000434987 9.16411e-05 0)
(-0.000456095 8.91744e-05 0)
(-0.000476613 8.66063e-05 0)
(-0.000496519 8.39421e-05 0)
(-0.000515789 8.11872e-05 0)
(-0.000534404 7.83471e-05 0)
(-0.000552344 7.54278e-05 0)
(-0.000569591 7.24345e-05 0)
(-0.000586129 6.93726e-05 0)
(-0.000601942 6.62486e-05 0)
(-0.000617017 6.30682e-05 0)
(-0.000631341 5.9836e-05 0)
(-0.000644902 5.65575e-05 0)
(-0.00065769 5.32396e-05 0)
(-0.000669696 4.98878e-05 0)
(-0.000680912 4.65062e-05 0)
(-0.000691333 4.31009e-05 0)
(-0.000700956 3.96782e-05 0)
(-0.000709775 3.62427e-05 0)
(-0.000717788 3.27985e-05 0)
(-0.000724995 2.9351e-05 0)
(-0.000731395 2.59053e-05 0)
(-0.000736989 2.24654e-05 0)
(-0.000741779 1.90357e-05 0)
(-0.000745768 1.562e-05 0)
(-0.000748962 1.22226e-05 0)
(-0.000751365 8.84835e-06 0)
(-0.000752985 5.50078e-06 0)
(-0.000753829 2.18316e-06 0)
(-0.000753904 -1.10005e-06 0)
(-0.000753219 -4.34557e-06 0)
(-0.000751782 -7.55063e-06 0)
(-0.000749603 -1.07119e-05 0)
(-0.000746693 -1.38264e-05 0)
(-0.000743061 -1.68917e-05 0)
(-0.00073872 -1.99057e-05 0)
(-0.000733682 -2.28668e-05 0)
(-0.000727961 -2.57728e-05 0)
(-0.00072157 -2.86228e-05 0)
(-0.000714523 -3.14163e-05 0)
(-0.000706834 -3.41511e-05 0)
(-0.000698518 -3.68243e-05 0)
(-0.00068959 -3.94342e-05 0)
(-0.000680065 -4.1981e-05 0)
(-0.000669957 -4.44634e-05 0)
(-0.00065928 -4.68794e-05 0)
(-0.000648052 -4.92287e-05 0)
(-0.000636287 -5.15098e-05 0)
(-0.000624 -5.37232e-05 0)
(-0.000611204 -5.58681e-05 0)
(-0.000597915 -5.79456e-05 0)
(-0.000584151 -5.99539e-05 0)
(-0.00056993 -6.18933e-05 0)
(-0.000555271 -6.3766e-05 0)
(-0.000540188 -6.55723e-05 0)
(-0.000524698 -6.73112e-05 0)
(-0.000508815 -6.8981e-05 0)
(-0.000492552 -7.05802e-05 0)
(-0.000475923 -7.21088e-05 0)
(-0.000458941 -7.35699e-05 0)
(-0.000441622 -7.49675e-05 0)
(-0.000423984 -7.63034e-05 0)
(-0.00040605 -7.75762e-05 0)
(-0.000387836 -7.87854e-05 0)
(-0.000369351 -7.99299e-05 0)
(-0.000350607 -8.10089e-05 0)
(-0.000331618 -8.20243e-05 0)
(-0.000312397 -8.29764e-05 0)
(-0.000292965 -8.38665e-05 0)
(-0.00027334 -8.46963e-05 0)
(-0.000253538 -8.54659e-05 0)
(-0.000233568 -8.61776e-05 0)
(-0.000213439 -8.68312e-05 0)
(-0.000193157 -8.74187e-05 0)
(-0.000172738 -8.79347e-05 0)
(-0.000152208 -8.83847e-05 0)
(-0.000131591 -8.87782e-05 0)
(-0.0001109 -8.91204e-05 0)
(-9.01354e-05 -8.94033e-05 0)
(-6.92884e-05 -8.96262e-05 0)
(-4.83981e-05 -8.97398e-05 0)
(-2.78597e-05 -8.88185e-05 0)
(-7.6403e-06 -7.42486e-05 0)
(7.0348e-06 -0.000101788 0)
(2.6364e-05 -0.000108083 0)
(4.92411e-05 -0.000107577 0)
(7.0686e-05 -0.000107905 0)
(9.18415e-05 -0.000108292 0)
(0.000112704 -0.000108491 0)
(0.000133373 -0.000108489 0)
(0.000153914 -0.000108296 0)
(0.000174354 -0.000107942 0)
(0.000194693 -0.000107453 0)