/*--------------------------------*- C++ -*----------------------------------*\
| =========                 |                                                 |
| \\      /  F ield         | OpenFOAM: The Open Source CFD Toolbox           |
|  \\    /   O peration     | Version:  2412                                  |
|   \\  /    A nd           | Website:  www.openfoam.com                      |
|    \\/     M anipulation  |                                                 |
\*---------------------------------------------------------------------------*/
FoamFile
{
    version     2.0;
    format      ascii;
    arch        "LSB;label=32;scalar=64";
    class       surfaceScalarField;
    location    "1.23";
    object      alphaPhi0.water;
}
// * * * * * * * * * * * * * * * * * * * * * * * * * * * * * * * * * * * * * //

dimensions      [0 3 -1 0 0 0 0];

oriented        oriented;

internalField   nonuniform List<scalar> 
79600
(
1.70031e-195
-5.45852e-192
1.16051e-185
-1.36274e-182
2.32421e-184
-1.62998e-181
4.61279e-184
-2.25211e-181
6.14132e-184
-2.27871e-181
7.21682e-184
-2.15572e-181
7.90449e-184
-1.97674e-181
8.22397e-184
-1.77021e-181
8.2053e-184
-1.55177e-181
7.89361e-184
-1.33251e-181
7.34466e-184
-1.12071e-181
6.62093e-184
-9.22634e-182
5.78762e-184
-7.42871e-182
4.90715e-184
-5.84378e-182
4.03505e-184
-4.48612e-182
3.21632e-184
-3.35655e-182
2.48333e-184
-2.44426e-182
1.85595e-184
-1.73022e-182
1.34147e-184
-1.18898e-182
9.36593e-185
-7.91879e-183
6.3088e-185
-5.10341e-183
4.09488e-185
-3.17768e-183
2.55809e-185
-1.90885e-183
1.53546e-185
-1.10415e-183
8.83144e-186
-6.13252e-184
4.84803e-186
-3.25746e-184
2.5282e-186
-1.64723e-184
1.24515e-186
-7.88488e-185
5.76232e-187
-3.55586e-185
2.49193e-187
-1.50247e-185
1.0016e-187
-5.91406e-186
3.72564e-188
-2.15796e-186
1.28105e-188
-7.28542e-187
4.07646e-189
-2.27681e-187
1.1993e-189
-6.57957e-188
3.23167e-190
-1.74281e-188
7.863e-191
-4.17506e-189
1.7035e-191
-8.92083e-190
3.25758e-192
-1.68392e-190
5.48779e-193
-2.7995e-191
8.13688e-194
-4.09254e-192
1.05696e-194
-5.23478e-193
1.19374e-195
-5.8116e-194
1.16406e-196
-5.55628e-195
9.75459e-198
-4.54798e-196
7.00424e-199
-3.1733e-197
4.30081e-200
-1.8798e-198
2.25331e-201
-9.40497e-200
1.00374e-202
-3.9401e-201
3.77519e-204
-1.3593e-202
1.18176e-205
-3.72107e-204
2.98098e-207
-7.28271e-206
5.55659e-209
-5.76996e-208
8.52499e-211
5.61769e-214
1.28447e-212
2.17563e-215
1.89984e-214
5.20944e-217
2.75724e-216
1.04813e-218
3.92446e-218
1.91329e-220
5.47515e-220
3.26716e-222
7.48278e-222
5.29794e-224
1.00114e-223
8.22638e-226
1.31035e-225
1.22922e-227
1.67649e-227
1.77291e-229
2.09502e-229
2.47282e-231
2.55487e-231
3.33902e-233
3.03767e-233
4.36722e-235
3.51785e-235
5.53376e-237
3.9639e-237
6.79222e-239
4.34097e-239
8.07277e-241
4.61474e-241
9.28555e-243
4.75599e-243
1.03286e-244
4.74529e-245
1.10998e-246
4.57682e-247
1.15123e-248
4.26035e-249
1.15092e-250
3.82083e-251
1.10754e-252
3.29531e-253
1.02434e-254
2.72765e-255
9.09002e-257
2.16223e-257
7.72528e-259
1.63764e-259
6.27496e-261
1.18205e-261
4.86061e-263
8.10865e-264
3.58177e-265
5.27035e-266
2.5042e-267
3.23482e-268
1.65622e-269
1.86792e-270
1.03279e-271
1.01053e-272
6.0501e-274
5.09763e-275
3.31567e-276
2.38498e-277
1.69205e-278
1.0285e-279
7.99789e-281
4.05866e-282
3.48001e-283
1.45313e-284
1.38388e-285
4.67179e-287
4.9868e-288
1.33172e-289
1.61167e-290
3.31234e-292
4.61273e-293
7.04018e-295
1.1506e-295
1.24285e-297
2.44968e-298
1.74911e-300
4.32694e-301
1.83946e-303
6.08578e-304
1.28511e-306
6.3889e-307
4.47962e-310
4.45038e-310
8.29978e-316
1.54473e-313
-5.11474e-310
1.77108e-313
-1.478e-306
5.1363e-310
-2.12025e-303
7.3875e-307
-2.0174e-300
7.03991e-304
-1.43335e-297
5.00401e-301
-8.11529e-295
2.83122e-298
-3.81534e-292
1.32868e-295
-1.53257e-289
5.32144e-293
-5.37105e-287
1.8573e-290
-1.66884e-284
5.74032e-288
-4.65596e-282
1.59113e-285
-1.1785e-279
3.99635e-283
-2.72961e-277
9.17331e-281
-5.82728e-275
1.93831e-278
-1.15378e-272
3.79346e-276
-2.13013e-270
6.91328e-274
-3.68442e-268
1.17869e-271
-5.99556e-266
1.88786e-269
-9.21315e-264
2.85094e-267
-1.34141e-261
4.0727e-265
-1.85616e-259
5.51996e-263
-2.44777e-257
7.11728e-261
-3.08409e-255
8.75141e-259
-3.72135e-253
1.02848e-256
-4.3095e-251
1.15755e-254
-4.79925e-249
1.25003e-252
-5.14927e-247
1.2974e-250
-5.33203e-245
1.29615e-248
-5.33715e-243
1.24814e-246
-5.17185e-241
1.15994e-244
-4.85851e-239
1.04146e-242
-4.43041e-237
9.04229e-241
-3.92636e-235
7.59758e-239
-3.38555e-233
6.18149e-237
-2.84325e-231
4.87178e-235
-2.32796e-229
3.71966e-233
-1.85999e-227
2.75086e-231
-1.45142e-225
1.96946e-229
-1.10709e-223
1.36348e-227
-8.26057e-222
9.11082e-226
-6.03368e-220
5.85849e-224
-4.31702e-218
3.60744e-222
-3.02744e-216
2.1094e-220
-2.08205e-214
1.15394e-218
-1.40488e-212
5.72965e-217
-9.3046e-211
2.39273e-215
-6.05085e-209
6.2104e-214
-3.24633e-207
-6.18099e-208
-1.28439e-205
-7.90978e-206
-4.08999e-204
-4.04025e-204
-1.083e-202
-1.4722e-202
-2.4195e-201
-4.25138e-201
-4.59295e-200
-1.01002e-199
-7.43618e-199
-2.00777e-198
-1.02929e-197
-3.36933e-197
-1.22074e-196
-4.79908e-196
-1.24434e-195
-5.82627e-195
-1.09554e-194
-6.05683e-194
-8.3904e-194
-5.42466e-193
-5.63242e-193
-4.21905e-192
-3.32907e-192
-2.87248e-191
-1.73395e-191
-1.7203e-190
-7.97499e-191
-9.07713e-190
-3.26778e-190
-4.23314e-189
-1.20963e-189
-1.76173e-188
-4.10292e-189
-6.63413e-188
-1.28717e-188
-2.29082e-187
-3.73783e-188
-7.31761e-187
-1.00355e-187
-2.16418e-186
-2.49391e-187
-5.92323e-186
-5.76123e-187
-1.50308e-185
-1.24387e-186
-3.55381e-185
-2.52372e-186
-7.87357e-185
-4.83587e-186
-1.64362e-184
-8.80339e-186
-3.24784e-184
-1.52977e-185
-6.11001e-184
-2.54771e-185
-1.09946e-183
-4.07754e-185
-1.89999e-183
-6.28177e-185
-3.16217e-183
-9.32632e-185
-5.0779e-183
-1.33593e-184
-7.8791e-183
-1.84854e-184
-1.18305e-182
-2.47375e-184
-1.7216e-182
-3.20442e-184
-2.43205e-182
-4.021e-184
-3.33983e-182
-4.89175e-184
-4.46399e-182
-5.77255e-184
-5.81558e-182
-6.60861e-184
-7.39467e-182
-7.33857e-184
-9.1874e-182
-7.89847e-184
-1.11655e-181
-8.22786e-184
-1.32862e-181
-8.27583e-184
-1.54915e-181
-8.00619e-184
-1.77127e-181
-7.39942e-184
-1.98731e-181
-6.43115e-184
-2.18833e-181
-4.96231e-184
-2.35398e-181
-2.51793e-184
-2.37835e-181
-1.15959e-185
-1.72589e-181
-1.32778e-195
-1.33579e-182
-4.30489e-192
1.14075e-191
-1.75159e-188
3.98666e-182
-2.32929e-179
7.02894e-181
-2.52915e-178
1.32892e-180
-3.3956e-178
1.72638e-180
-3.39496e-178
2.006e-180
-3.20188e-178
2.1903e-180
-2.94268e-178
2.28203e-180
-2.64868e-178
2.28604e-180
-2.33729e-178
2.21184e-180
-2.02239e-178
2.07258e-180
-1.71535e-178
1.88382e-180
-1.42535e-178
1.66226e-180
-1.15937e-178
1.42428e-180
-9.22184e-179
1.18486e-180
-7.16515e-179
9.56581e-181
-5.43134e-179
7.48922e-181
-4.01111e-179
5.68228e-181
-2.88268e-179
4.17445e-181
-2.01332e-179
2.96576e-181
-1.36427e-179
2.03512e-181
-8.95469e-180
1.3472e-181
-5.68447e-180
8.59313e-182
-3.48485e-180
5.27278e-182
-2.05935e-180
3.10432e-182
-1.16985e-180
1.74703e-182
-6.36409e-181
9.35699e-183
-3.30123e-181
4.74354e-183
-1.62424e-181
2.26587e-183
-7.54837e-182
1.01446e-183
-3.29599e-182
4.23357e-184
-1.34425e-182
1.63913e-184
-5.09345e-183
5.87811e-185
-1.78864e-183
1.95391e-185
-5.82142e-184
6.01563e-186
-1.75431e-184
1.70102e-186
-4.85515e-185
4.36056e-187
-1.2188e-185
9.99883e-188
-2.73787e-186
2.03237e-188
-5.44863e-187
3.653e-189
-9.57224e-188
5.80141e-190
-1.48196e-188
8.10808e-191
-2.01189e-189
9.90466e-192
-2.3755e-190
1.05099e-192
-2.42013e-191
9.65098e-194
-2.11522e-192
7.65843e-195
-1.57969e-193
5.2525e-196
-1.00471e-194
3.11706e-197
-5.4207e-196
1.60331e-198
-2.46566e-197
7.16081e-200
-9.3436e-199
2.78063e-201
-2.8738e-200
9.38633e-203
-6.69437e-202
2.74544e-204
-8.89028e-204
7.17346e-206
3.67004e-209
1.83254e-207
3.87453e-210
4.57597e-209
1.70824e-211
1.11659e-210
5.99834e-213
2.66157e-212
1.87255e-214
6.19517e-214
5.40705e-216
1.40751e-215
1.47131e-217
3.1197e-217
3.81113e-219
6.74217e-219
9.45361e-221
1.41983e-220
2.25387e-222
2.91156e-222
5.17656e-224
5.80936e-224
1.14693e-225
1.12689e-225
2.45335e-227
2.12321e-227
5.06823e-229
3.88179e-229
1.0112e-230
6.87926e-231
1.94804e-232
1.1804e-232
3.62189e-234
1.95869e-234
6.49488e-236
3.13895e-236
1.1224e-237
4.85152e-238
1.86743e-239
7.22091e-240
2.98796e-241
1.03329e-241
4.59186e-243
1.41909e-243
6.76815e-245
1.86693e-245
9.55289e-247
2.34794e-247
1.28892e-248
2.8165e-249
1.65922e-250
3.21464e-251
2.03352e-252
3.48166e-253
2.36719e-254
3.56763e-255
2.61051e-256
3.44733e-257
2.71938e-258
3.12966e-259
2.66723e-260
2.65845e-261
2.45429e-262
2.10302e-263
2.11005e-264
1.54106e-265
1.68714e-266
1.03963e-267
1.24795e-268
6.41043e-270
8.4871e-271
3.58207e-272
5.26893e-273
1.79534e-274
2.96062e-275
7.96922e-277
1.49031e-277
3.08315e-279
6.636e-280
1.01816e-281
2.57234e-282
2.78959e-284
8.5013e-285
6.08616e-287
2.3283e-287
9.91125e-290
5.07186e-290
1.07094e-292
8.23707e-293
5.76484e-296
8.8658e-296
1.31928e-301
4.74806e-299
-6.51952e-296
5.38187e-299
-1.21917e-292
1.01129e-295
-1.1311e-289
9.41753e-293
-6.95353e-287
5.80472e-290
-3.18868e-284
2.66584e-287
-1.16394e-281
9.73436e-285
-3.52411e-279
2.94494e-282
-9.10626e-277
7.59468e-280
-2.05063e-274
1.70484e-277
-4.08933e-272
3.38498e-275
-7.31395e-270
6.02049e-273
-1.1854e-267
9.69134e-271
-1.75592e-265
1.42402e-268
-2.39447e-263
1.92377e-266
-3.02456e-261
2.40416e-264
-3.55782e-259
2.79415e-262
-3.91571e-257
3.03409e-260
-4.0489e-255
3.0908e-258
-3.94787e-253
2.96449e-256
-3.64182e-251
2.68577e-254
-3.18783e-249
2.30508e-252
-2.65499e-247
1.87905e-250
-2.10905e-245
1.45829e-248
-1.60154e-243
1.07977e-246
-1.16496e-241
7.64261e-245
-8.13269e-240
5.17995e-243
-5.45836e-238
3.3672e-241
-3.52778e-236
2.10227e-239
-2.1989e-234
1.2622e-237
-1.32367e-232
7.29594e-236
-7.70543e-231
4.06412e-234
-4.3429e-229
2.18343e-232
-2.37258e-227
1.13209e-230
-1.25771e-225
5.66752e-229
-6.47564e-224
2.74023e-227
-3.24132e-222
1.27954e-225
-1.57856e-220
5.76811e-224
-7.48568e-219
2.50838e-222
-3.45888e-217
1.05082e-220
-1.55828e-215
4.23092e-219
-6.8486e-214
1.63125e-217
-2.93779e-212
5.98714e-216
-1.23052e-210
2.07093e-214
-5.03471e-209
6.62647e-213
-2.01286e-207
1.88568e-211
-7.86553e-206
4.27926e-210
-3.00476e-204
4.11297e-209
-1.02557e-202
-9.68187e-204
-3.03033e-201
-7.32019e-202
-7.7769e-200
-3.13813e-200
-1.73383e-198
-1.01714e-198
-3.35404e-197
-2.67272e-197
-5.62024e-196
-5.84572e-196
-8.14506e-195
-1.07713e-194
-1.01994e-193
-1.68276e-193
-1.10366e-192
-2.23822e-192
-1.03367e-191
-2.54376e-191
-8.4126e-191
-2.48073e-190
-5.98743e-190
-2.08838e-189
-3.75208e-189
-1.52992e-188
-2.07829e-188
-9.83341e-188
-1.01834e-187
-5.57194e-187
-4.42514e-187
-2.78823e-186
-1.72103e-186
-1.23671e-185
-6.07102e-186
-4.91164e-185
-1.9677e-185
-1.77019e-184
-5.90954e-185
-5.86141e-184
-1.64541e-184
-1.79781e-183
-4.24414e-184
-5.11178e-183
-1.0158e-183
-1.34729e-182
-2.26661e-183
-3.29955e-182
-4.7411e-183
-7.54895e-182
-9.3455e-183
-1.62299e-181
-1.74374e-182
-3.2963e-181
-3.09673e-182
-6.35027e-181
-5.25753e-182
-1.16662e-180
-8.56569e-182
-2.05269e-180
-1.34268e-181
-3.47244e-180
-2.02816e-181
-5.66307e-180
-2.9557e-181
-8.92005e-180
-4.16072e-181
-1.35897e-179
-5.66451e-181
-2.0056e-179
-7.46741e-181
-2.87189e-179
-9.54048e-181
-3.99667e-179
-1.18215e-180
-5.41275e-179
-1.42171e-180
-7.14241e-179
-1.66037e-180
-9.19599e-179
-1.88335e-180
-1.1567e-178
-2.07453e-180
-1.42305e-178
-2.21748e-180
-1.71419e-178
-2.29701e-180
-2.02363e-178
-2.30063e-180
-2.34307e-178
-2.21987e-180
-2.66283e-178
-2.05052e-180
-2.97244e-178
-1.78672e-180
-3.26005e-178
-1.39086e-180
-3.49812e-178
-7.26522e-181
-3.5388e-178
-3.7762e-182
-2.61026e-178
-8.79293e-192
-2.22698e-179
-1.39903e-188
1.3685e-188
-1.78002e-185
2.70045e-179
-1.32426e-176
4.42149e-178
-1.33934e-175
8.19363e-178
-1.77038e-175
1.05358e-177
-1.75865e-175
1.219e-177
-1.65623e-175
1.33106e-177
-1.52531e-175
1.39084e-177
-1.37888e-175
1.39996e-177
-1.22388e-175
1.36288e-177
-1.06635e-175
1.28643e-177
-9.11632e-176
1.17909e-177
-7.64227e-176
1.05024e-177
-6.27717e-176
9.09298e-178
-5.04679e-176
7.65151e-178
-3.96737e-176
6.25488e-178
-3.04579e-176
4.96369e-178
-2.28042e-176
3.82155e-178
-1.66333e-176
2.8519e-178
-1.18031e-176
2.06037e-178
-8.1345e-177
1.4392e-178
-5.43581e-177
9.7077e-179
-3.51649e-177
6.31571e-179
-2.19899e-177
3.95681e-179
-1.32681e-177
2.38117e-179
-7.7038e-178
1.37153e-179
-4.28884e-178
7.53028e-180
-2.28018e-178
3.92103e-180
-1.15206e-178
1.92867e-180
-5.51232e-179
8.91622e-181
-2.48512e-179
3.85207e-181
-1.04919e-179
1.54728e-181
-4.12409e-180
5.76582e-182
-1.50469e-180
1.99387e-182
-5.09327e-181
6.39417e-183
-1.59797e-181
1.88676e-183
-4.61186e-182
5.06142e-184
-1.21063e-182
1.21831e-184
-2.85257e-183
2.60633e-185
-5.96905e-184
4.94098e-186
-1.10456e-184
8.29221e-187
-1.80393e-185
1.227e-187
-2.58709e-186
1.58953e-188
-3.23021e-187
1.79115e-189
-3.48184e-188
1.74893e-190
-3.22032e-189
1.47777e-191
-2.54497e-190
1.08094e-192
-1.71259e-191
6.85614e-194
-9.7754e-193
3.78074e-195
-4.70582e-194
1.81869e-196
-1.89039e-195
7.66122e-198
-6.19418e-197
2.83753e-199
-1.56137e-198
9.27605e-201
-2.43319e-200
2.72459e-202
1.16374e-205
7.80664e-204
2.24213e-206
2.18192e-205
1.16624e-207
5.9482e-207
4.67039e-209
1.58137e-208
1.64429e-210
4.09893e-210
5.32419e-212
1.03549e-211
1.61868e-213
2.54845e-213
4.67204e-215
6.10705e-215
1.28853e-216
1.42416e-216
3.40913e-218
3.22979e-218
8.6744e-220
7.11806e-220
2.12594e-221
1.52328e-221
5.02313e-223
3.16273e-223
1.14475e-224
6.36514e-225
2.51656e-226
1.24047e-226
5.3358e-228
2.33849e-228
1.09074e-229
4.25942e-230
2.14846e-231
7.48671e-232
4.07464e-233
1.26815e-233
7.43383e-235
2.06709e-235
1.30327e-236
3.23718e-237
2.19295e-238
4.86242e-239
3.53668e-240
6.99207e-241
5.45844e-242
9.60609e-243
8.04827e-244
1.25809e-244
1.13155e-245
1.56693e-246
1.5138e-247
1.85095e-248
1.92253e-249
2.06762e-250
2.31189e-251
2.17696e-252
2.62482e-253
2.15251e-254
2.80462e-255
1.99051e-256
2.81012e-257
1.7135e-258
2.62958e-259
1.36579e-260
2.28745e-261
1.00182e-262
1.84001e-263
6.71389e-265
1.36028e-265
4.07596e-267
9.1762e-268
2.21863e-269
5.60046e-270
1.06914e-271
3.06091e-272
4.48889e-274
1.47928e-274
1.60816e-276
6.22134e-277
4.7783e-279
2.22994e-279
1.13018e-281
6.6213e-282
1.99462e-284
1.56321e-284
2.33502e-287
2.75056e-287
1.36147e-290
3.20649e-290
3.52141e-296
1.85951e-293
-1.54205e-290
2.11031e-293
-2.66389e-287
3.66448e-290
-2.28205e-284
3.15205e-287
-1.2949e-281
1.79383e-284
-5.47876e-279
7.60345e-282
-1.84452e-276
2.56148e-279
-5.14896e-274
7.14661e-277
-1.22621e-271
1.69904e-274
-2.5439e-269
3.51466e-272
-4.67183e-267
6.4282e-270
-7.69197e-265
1.05276e-267
-1.14717e-262
1.55979e-265
-1.56305e-260
2.10867e-263
-1.95976e-258
2.61983e-261
-2.27507e-256
3.00969e-259
-2.45849e-254
3.21408e-257
-2.48458e-252
3.20543e-255
-2.35796e-250
2.99764e-253
-2.10918e-248
2.63817e-251
-1.78404e-246
2.19206e-249
-1.43118e-244
1.72456e-247
-1.0918e-242
1.28797e-245
-7.93972e-241
9.15259e-244
-5.51622e-239
6.20171e-242
-3.66889e-237
4.01449e-240
-2.34041e-235
2.48681e-238
-1.43436e-233
1.47644e-236
-8.45895e-232
8.413e-235
-4.80732e-230
4.60652e-233
-2.63635e-228
2.4263e-231
-1.39687e-226
1.23044e-229
-7.15923e-225
6.01241e-228
-3.55301e-223
2.8324e-226
-1.70914e-221
1.2869e-224
-7.97641e-220
5.64014e-223
-3.61458e-218
2.38418e-221
-1.59172e-216
9.7161e-220
-6.81633e-215
3.81378e-218
-2.84048e-213
1.43966e-216
-1.15251e-211
5.21347e-215
-4.55546e-210
1.80395e-213
-1.75485e-208
5.92595e-212
-6.59041e-207
1.82789e-210
-2.41356e-205
5.18616e-209
-8.62081e-204
1.29402e-207
-3.00343e-202
2.48947e-206
-1.02065e-200
1.32867e-205
-3.11593e-199
-2.67389e-200
-8.38877e-198
-1.71908e-198
-1.98394e-196
-6.80601e-197
-4.10525e-195
-2.06959e-195
-7.40451e-194
-5.12726e-194
-1.16036e-192
-1.05901e-192
-1.57603e-191
-1.84335e-191
-1.85264e-190
-2.72022e-190
-1.88454e-189
-3.41727e-189
-1.66148e-188
-3.66828e-188
-1.27472e-187
-3.37976e-187
-8.5671e-187
-2.68964e-186
-5.07928e-186
-1.86469e-185
-2.66699e-185
-1.13587e-184
-1.24147e-184
-6.10915e-184
-5.13893e-184
-2.90704e-183
-1.90988e-183
-1.22922e-182
-6.45607e-183
-4.6685e-182
-2.00882e-182
-1.61346e-181
-5.79895e-182
-5.13128e-181
-1.55378e-181
-1.51324e-180
-3.863e-181
-4.14107e-180
-8.93093e-181
-1.05208e-179
-1.92992e-180
-2.48901e-179
-3.92028e-180
-5.51542e-179
-7.52367e-180
-1.15175e-178
-1.36948e-179
-2.278e-178
-2.37637e-179
-4.28208e-178
-3.9472e-179
-7.68759e-178
-6.2986e-179
-1.32346e-177
-9.6798e-179
-2.19279e-177
-1.43494e-178
-3.50597e-177
-2.05428e-178
-5.41903e-177
-2.84373e-178
-8.10929e-177
-3.81122e-178
-1.17674e-176
-4.95143e-178
-1.65854e-176
-6.24128e-178
-2.27433e-176
-7.63784e-178
-3.03849e-176
-9.08136e-178
-3.95929e-176
-1.04958e-177
-5.03894e-176
-1.17937e-177
-6.27131e-176
-1.28814e-177
-7.64142e-176
-1.36665e-177
-9.12507e-176
-1.4065e-177
-1.06888e-175
-1.40099e-177
-1.22914e-175
-1.34579e-177
-1.38856e-175
-1.23901e-177
-1.54215e-175
-1.07764e-177
-1.6843e-175
-8.40116e-178
-1.8017e-175
-4.45145e-178
-1.82175e-175
-2.52165e-179
-1.35855e-175
-1.09013e-188
-1.25632e-176
-1.46061e-185
7.96552e-186
-9.82948e-183
8.99166e-177
-4.11316e-174
1.38841e-175
-3.90533e-173
2.55137e-175
-5.11411e-173
3.27106e-175
-5.06583e-173
3.78338e-175
-4.7712e-173
4.13912e-175
-4.40451e-173
4.34121e-175
-3.99827e-173
4.39232e-175
-3.56846e-173
4.30321e-175
-3.12987e-173
4.09201e-175
-2.69632e-173
3.7823e-175
-2.27995e-173
3.40084e-175
-1.89079e-173
2.97529e-175
-1.53639e-173
2.5324e-175
-1.22189e-173
2.09609e-175
-9.49984e-174
1.68597e-175
-7.21059e-174
1.31709e-175
-5.33787e-174
9.9841e-176
-3.84852e-174
7.33446e-176
-2.69771e-174
5.21461e-176
-1.83539e-174
3.58359e-176
-1.21003e-174
2.37757e-176
-7.71844e-175
1.52048e-176
-4.75486e-175
9.34978e-177
-2.82151e-175
5.50956e-177
-1.60721e-175
3.09941e-177
-8.75594e-176
1.65676e-177
-4.54207e-176
8.38737e-178
-2.23729e-176
4.00193e-178
-1.0414e-176
1.78906e-178
-4.55184e-177
7.45182e-179
-1.85642e-177
2.88382e-179
-7.03847e-178
1.03667e-179
-2.4779e-178
3.45938e-180
-8.09256e-179
1.06389e-180
-2.43503e-179
2.98257e-181
-6.68384e-180
7.52523e-182
-1.65224e-180
1.69144e-182
-3.63621e-181
3.37463e-183
-7.08821e-182
5.96861e-184
-1.22108e-182
9.31947e-185
-1.84972e-183
1.27504e-185
-2.44185e-184
1.51783e-186
-2.78393e-185
1.56546e-187
-2.72317e-186
1.39655e-188
-2.27508e-187
1.07772e-189
-1.61719e-188
7.20427e-191
-9.74034e-190
4.18209e-192
-4.94207e-191
2.11541e-193
-2.09082e-192
9.36236e-195
-7.2191e-194
3.64223e-196
-1.92779e-195
1.25158e-197
-3.28799e-197
3.84298e-199
1.23882e-202
1.14967e-200
4.28244e-203
3.3514e-202
2.40247e-204
9.51962e-204
1.01485e-205
2.63439e-205
3.74312e-207
7.10043e-207
1.26534e-208
1.86329e-208
4.00702e-210
4.75868e-210
1.20257e-211
1.18222e-211
3.44363e-213
2.8555e-213
9.44827e-215
6.70169e-215
2.4904e-216
1.52729e-216
6.31676e-218
3.37736e-218
1.54336e-219
7.24117e-220
3.63434e-221
1.50396e-221
8.24987e-223
3.02309e-223
1.80505e-224
5.87492e-225
3.80546e-226
1.10256e-226
7.72625e-228
1.9958e-228
1.50961e-229
3.48e-230
2.83604e-231
5.8366e-232
5.11757e-233
9.40124e-234
8.85929e-235
1.45184e-235
1.46937e-236
2.14564e-237
2.33129e-238
3.0285e-239
3.53232e-240
4.07357e-241
5.1016e-242
5.20895e-243
7.00853e-244
6.31538e-245
9.13725e-246
7.23844e-247
1.1276e-247
7.81751e-249
1.31342e-249
7.92655e-251
1.43935e-251
7.51464e-253
1.47872e-253
6.63006e-255
1.4184e-255
5.415e-257
1.26444e-257
4.06893e-259
1.04205e-259
2.79278e-261
7.8907e-262
1.73605e-263
5.45082e-264
9.67369e-266
3.40593e-266
4.77117e-268
1.90537e-268
2.04983e-270
9.42325e-271
7.51298e-273
4.05473e-273
2.28335e-275
1.48665e-275
5.52309e-278
4.51452e-278
9.96673e-281
1.08981e-280
1.19281e-283
1.96039e-283
7.10946e-287
2.33598e-286
1.95914e-292
1.38456e-289
-8.11456e-287
1.58345e-289
-1.37182e-283
2.69129e-286
-1.14973e-280
2.26518e-283
-6.38106e-278
1.26111e-280
-2.6402e-275
5.22813e-278
-8.69045e-273
1.72225e-275
-2.37133e-270
4.69768e-273
-5.51895e-268
1.09162e-270
-1.11871e-265
2.20666e-268
-2.00692e-263
3.94303e-266
-3.22707e-261
6.30749e-264
-4.6992e-259
9.126e-262
-6.25013e-257
1.20448e-259
-7.6477e-255
1.46061e-257
-8.66212e-253
1.63734e-255
-9.13029e-251
1.70575e-253
-8.9978e-249
1.65908e-251
-8.32463e-247
1.51272e-249
-7.25699e-245
1.29764e-247
-5.98041e-243
1.05061e-245
-4.67268e-241
8.05132e-244
-3.47068e-239
5.85532e-242
-2.45656e-237
4.0504e-240
-1.66058e-235
2.67063e-238
-1.0742e-233
1.68158e-236
-6.66196e-232
1.01285e-234
-3.9678e-230
5.84461e-233
-2.27303e-228
3.23546e-231
-1.25427e-226
1.72031e-229
-6.67541e-225
8.79462e-228
-3.43084e-223
4.32662e-226
-1.70468e-221
2.0498e-224
-8.19704e-220
9.35705e-223
-3.81814e-218
4.11692e-221
-1.72427e-216
1.74604e-219
-7.5555e-215
7.13692e-218
-3.21469e-213
2.80999e-216
-1.32898e-211
1.06462e-214
-5.3414e-210
3.87488e-213
-2.08825e-208
1.35128e-211
-7.94522e-207
4.49622e-210
-2.9431e-205
1.41785e-208
-1.06178e-203
4.18864e-207
-3.73168e-202
1.13428e-205
-1.27786e-200
2.68294e-204
-4.2636e-199
4.78566e-203
-1.38587e-197
1.45767e-202
-4.02387e-196
-3.64297e-197
-1.03102e-194
-2.13753e-195
-2.31985e-193
-7.98373e-194
-4.56289e-192
-2.3026e-192
-7.81364e-191
-5.4134e-191
-1.16115e-189
-1.06015e-189
-1.49403e-188
-1.74765e-188
-1.66252e-187
-2.43991e-187
-1.60026e-186
-2.89769e-186
-1.33495e-185
-2.9395e-185
-9.69463e-185
-2.55939e-184
-6.17296e-184
-1.92572e-183
-3.47197e-183
-1.26364e-182
-1.7319e-182
-7.29565e-182
-7.67215e-182
-3.72408e-181
-3.02961e-181
-1.68471e-180
-1.0774e-180
-6.78988e-180
-3.49433e-180
-2.46619e-179
-1.04482e-179
-8.17503e-179
-2.90132e-179
-2.49749e-178
-7.48526e-179
-7.08123e-178
-1.79463e-178
-1.86473e-177
-4.00958e-178
-4.56591e-177
-8.39498e-178
-1.04339e-176
-1.65689e-177
-2.23933e-176
-3.09759e-177
-4.54252e-176
-5.50302e-177
-8.75101e-176
-9.33398e-177
-1.60534e-175
-1.51731e-176
-2.81682e-175
-2.37197e-176
-4.74507e-175
-3.57454e-176
-7.70047e-175
-5.20095e-176
-1.20701e-174
-7.31518e-176
-1.83065e-174
-9.95864e-176
-2.69072e-174
-1.31394e-175
-3.83888e-174
-1.68233e-175
-5.32537e-174
-2.0922e-175
-7.19541e-174
-2.52867e-175
-9.48277e-174
-2.97236e-175
-1.22018e-173
-3.39958e-175
-1.53502e-173
-3.78383e-175
-1.89032e-173
-4.09763e-175
-2.28126e-173
-4.31431e-175
-2.70068e-173
-4.41037e-175
-3.13907e-173
-4.36758e-175
-3.58507e-173
-4.17485e-175
-4.02598e-173
-3.82819e-175
-4.44852e-173
-3.31992e-175
-4.83806e-173
-2.58698e-175
-5.15865e-173
-1.38427e-175
-5.2113e-173
-8.44677e-177
-3.92172e-173
-6.60946e-186
-3.9062e-174
-8.2865e-183
3.03677e-183
-3.60407e-180
1.94411e-174
-8.42197e-172
2.83185e-173
-7.51135e-171
5.1778e-173
-9.77092e-171
6.63995e-173
-9.67279e-171
7.69304e-173
-9.12229e-171
8.44183e-173
-8.4455e-171
8.89211e-173
-7.69948e-171
9.04582e-173
-6.90958e-171
8.91998e-173
-6.10027e-171
8.54599e-173
-5.29527e-171
7.96644e-173
-4.51619e-171
7.23115e-173
-3.78142e-171
6.39291e-173
-3.10541e-171
5.50416e-173
-2.49865e-171
4.61322e-173
-1.96743e-171
3.76124e-173
-1.51401e-171
2.98181e-173
-1.13767e-171
2.29632e-173
-8.33546e-172
1.71556e-173
-5.94407e-172
1.24168e-173
-4.11825e-172
8.69503e-174
-2.76757e-172
5.8837e-174
-1.80113e-172
3.84113e-174
-1.13304e-172
2.41358e-174
-6.87198e-173
1.45501e-174
-4.00544e-173
8.38608e-175
-2.23609e-173
4.60159e-175
-1.19095e-173
2.39774e-175
-6.0399e-174
1.18098e-175
-2.90358e-174
5.46472e-176
-1.31445e-174
2.36115e-176
-5.56535e-175
9.49306e-177
-2.19399e-175
3.5483e-177
-8.03721e-176
1.23222e-177
-2.73319e-176
3.9497e-178
-8.57655e-177
1.15743e-178
-2.46286e-177
3.06254e-179
-6.39277e-178
7.23677e-180
-1.48127e-178
1.52025e-180
-3.04476e-179
2.83471e-181
-5.53765e-180
4.6723e-182
-8.86942e-181
6.75387e-183
-1.2395e-181
8.49662e-184
-1.49676e-182
9.25879e-185
-1.55077e-183
8.72103e-186
-1.37175e-184
7.09789e-187
-1.03156e-185
4.99629e-188
-6.56489e-187
3.04814e-189
-3.51426e-188
1.61677e-190
-1.5663e-189
7.48521e-192
-5.69289e-191
3.03868e-193
-1.60336e-192
1.08703e-194
-2.9339e-194
3.45199e-196
6.43781e-200
1.06719e-197
4.89269e-200
3.21176e-199
2.90224e-201
9.4081e-201
1.27489e-202
2.68183e-202
4.86446e-204
7.43764e-204
1.69648e-205
2.00632e-205
5.53234e-207
5.26248e-207
1.70745e-208
1.34164e-208
5.02251e-210
3.32306e-210
1.41423e-211
7.99219e-212
3.82247e-213
1.86533e-213
9.93483e-215
4.22194e-215
2.48564e-216
9.25985e-217
5.9901e-218
1.96638e-218
1.39074e-219
4.03927e-220
3.11064e-221
8.01809e-222
6.70054e-223
1.53637e-223
1.38934e-224
2.83828e-225
2.77109e-226
5.04874e-227
5.31206e-228
8.63506e-229
9.77696e-230
1.41786e-230
1.72569e-231
2.23128e-232
2.91716e-233
3.35921e-234
4.71564e-235
4.8285e-236
7.27739e-237
6.61197e-238
1.07017e-238
8.60496e-240
1.49649e-240
1.06149e-241
1.98536e-242
1.23756e-243
2.49248e-244
1.35918e-245
2.95268e-246
1.40111e-247
3.29007e-248
1.35011e-249
3.4359e-250
1.21047e-251
3.34938e-252
1.00441e-253
3.03372e-254
7.66606e-256
2.53969e-256
5.34341e-258
1.95311e-258
3.37247e-260
1.36995e-260
1.90764e-262
8.69005e-263
9.54914e-265
4.9343e-265
4.16307e-267
2.47642e-267
1.54806e-269
1.08114e-269
4.77258e-272
4.02116e-272
1.17084e-274
1.23851e-274
2.14255e-277
3.03187e-277
2.59986e-280
5.52976e-280
1.57094e-283
6.67992e-283
4.45025e-289
4.01327e-286
-1.81282e-283
4.64074e-286
-3.02322e-280
7.78194e-283
-2.499e-277
6.46088e-280
-1.3677e-274
3.54753e-277
-5.57937e-272
1.45021e-274
-1.81037e-269
4.70997e-272
-4.86875e-267
1.26638e-269
-1.11661e-264
2.90022e-267
-2.22998e-262
5.77691e-265
-3.94068e-260
1.01697e-262
-6.24051e-258
1.60237e-260
-8.94785e-256
2.28312e-258
-1.17159e-253
2.96688e-256
-1.41095e-251
3.54151e-254
-1.57254e-249
3.90708e-252
-1.63064e-247
4.00484e-250
-1.58052e-245
3.83169e-248
-1.43783e-243
3.43579e-246
-1.23215e-241
2.89769e-244
-9.97894e-240
2.30597e-242
-7.66023e-238
1.73649e-240
-5.58836e-236
1.24057e-238
-3.8838e-234
8.4275e-237
-2.57696e-232
5.45516e-235
-1.6357e-230
3.371e-233
-9.95045e-229
1.99197e-231
-5.81099e-227
1.12727e-229
-3.26285e-225
6.11758e-228
-1.76399e-223
3.18746e-226
-9.19427e-222
1.59613e-224
-4.62569e-220
7.68805e-223
-2.24881e-218
3.56444e-221
-1.05751e-216
1.59151e-219
-4.81471e-215
6.8455e-218
-2.12409e-213
2.83662e-216
-9.0871e-212
1.13214e-214
-3.77242e-210
4.34957e-213
-1.52062e-208
1.60683e-211
-5.95471e-207
5.69781e-210
-2.26639e-205
1.93401e-208
-8.38713e-204
6.2566e-207
-3.0188e-202
1.91558e-205
-1.05709e-200
5.4843e-204
-3.60205e-199
1.43534e-202
-1.19462e-197
3.26423e-201
-3.85669e-196
5.50642e-200
-1.21199e-194
8.10944e-200
-3.37925e-193
-3.27721e-194
-8.29405e-192
-1.79087e-192
-1.78312e-190
-6.33851e-191
-3.34273e-189
-1.7356e-189
-5.44326e-188
-3.87061e-188
-7.67678e-187
-7.17951e-187
-9.35962e-186
-1.1193e-185
-9.85843e-185
-1.47608e-184
-8.97654e-184
-1.65462e-183
-7.08258e-183
-1.58376e-182
-4.86652e-182
-1.30129e-181
-2.93471e-181
-9.24567e-181
-1.56532e-180
-5.73649e-180
-7.41416e-180
-3.13636e-179
-3.12372e-179
-1.51793e-178
-1.17615e-178
-6.52125e-178
-4.00141e-178
-2.50294e-177
-1.24513e-177
-8.68986e-177
-3.57734e-177
-2.76213e-176
-9.55321e-177
-8.10344e-176
-2.3723e-176
-2.20793e-175
-5.48292e-176
-5.5916e-175
-1.1835e-175
-1.31883e-174
-2.40046e-175
-2.9098e-174
-4.60305e-175
-6.04692e-174
-8.38321e-175
-1.19139e-173
-1.45365e-174
-2.23546e-173
-2.41013e-174
-4.00194e-173
-3.83415e-174
-6.86261e-173
-5.87144e-174
-1.13106e-172
-8.67546e-174
-1.79751e-172
-1.23876e-173
-2.76157e-172
-1.71151e-173
-4.10895e-172
-2.29106e-173
-5.93062e-172
-2.97542e-173
-8.31729e-172
-3.75403e-173
-1.13538e-171
-4.6057e-173
-1.51132e-171
-5.49719e-173
-1.96453e-171
-6.38775e-173
-2.49593e-171
-7.22937e-173
-3.10355e-171
-7.96996e-173
-3.78147e-171
-8.5569e-173
-4.51965e-171
-8.94032e-173
-5.30424e-171
-9.07741e-173
-6.11755e-171
-8.93619e-173
-6.93891e-171
-8.49863e-173
-7.74574e-171
-7.7602e-173
-8.51487e-171
-6.7083e-173
-9.22104e-171
-5.22195e-173
-9.79989e-171
-2.81753e-173
-9.88897e-171
-1.84556e-174
-7.50303e-171
-2.60339e-183
-8.03264e-172
-3.10818e-180
8.50514e-181
-9.64897e-178
3.05083e-172
-1.24449e-169
4.1792e-171
-1.04061e-168
7.60441e-171
-1.34586e-168
9.76393e-171
-1.33313e-168
1.13418e-170
-1.26001e-168
1.24905e-170
-1.17045e-168
1.32175e-170
-1.07187e-168
1.35216e-170
-9.67292e-169
1.34217e-170
-8.59655e-169
1.29566e-170
-7.51916e-169
1.21816e-170
-6.46839e-169
1.11632e-170
-5.46844e-169
9.97381e-171
-4.53902e-169
8.68726e-171
-3.69524e-169
7.37362e-171
-2.94714e-169
6.09477e-171
-2.29969e-169
4.90421e-171
-1.75445e-169
3.83779e-171
-1.30665e-169
2.91662e-171
-9.482e-170
2.14955e-171
-6.69217e-170
1.53425e-171
-4.58591e-170
1.05914e-171
-3.04602e-170
7.06025e-172
-1.95729e-170
4.53397e-172
-1.21363e-170
2.79654e-172
-7.23943e-171
1.65149e-172
-4.14191e-171
9.30327e-173
-2.26524e-171
4.99054e-173
-1.18308e-171
2.5383e-173
-5.8762e-172
1.21634e-173
-2.75675e-172
5.45519e-174
-1.21261e-172
2.28018e-174
-4.97462e-173
8.86706e-175
-1.89762e-173
3.20577e-175
-6.72297e-174
1.07139e-175
-2.20099e-174
3.28392e-176
-6.61703e-175
9.12179e-177
-1.80554e-175
2.2688e-177
-4.41075e-176
5.02423e-178
-9.5724e-177
9.88738e-179
-1.84022e-177
1.72244e-179
-3.12065e-178
2.63455e-180
-4.6245e-179
3.50862e-181
-5.92616e-180
4.04708e-182
-6.51712e-181
4.03291e-183
-6.11747e-182
3.46893e-184
-4.87835e-183
2.57666e-185
-3.28835e-184
1.65544e-186
-1.86161e-185
9.22485e-188
-8.76021e-187
4.47502e-189
-3.35737e-188
1.89812e-190
-9.97652e-190
7.07379e-192
-1.94753e-191
2.32826e-193
2.59648e-198
7.44692e-195
4.02757e-197
2.31495e-196
2.51665e-198
6.99471e-198
1.14795e-199
2.05433e-199
4.52809e-201
5.8642e-201
1.62873e-202
1.62675e-202
5.46955e-204
4.38425e-204
1.73624e-205
1.14761e-205
5.24765e-207
2.91633e-207
1.51692e-208
7.19139e-209
4.20581e-210
1.71979e-210
1.12051e-211
3.98606e-212
2.87181e-213
8.94751e-214
7.08514e-215
1.94357e-215
1.6831e-216
4.08178e-217
3.84969e-218
8.27987e-219
8.47583e-220
1.62052e-220
1.79544e-221
3.05657e-222
3.65684e-223
5.54886e-224
7.15528e-225
9.6818e-226
1.34369e-226
1.62117e-227
2.41893e-228
2.60078e-229
4.16894e-230
3.99015e-231
6.86844e-232
5.84286e-233
1.07994e-233
8.14834e-235
1.61751e-235
1.07965e-236
2.30305e-237
1.35557e-238
3.11011e-239
1.60813e-240
3.97334e-241
1.79667e-242
4.7886e-243
1.8836e-244
5.42691e-245
1.84546e-246
5.76282e-247
1.68191e-248
5.71085e-249
1.41833e-250
5.2572e-251