/*--------------------------------*- C++ -*----------------------------------*\
| =========                 |                                                 |
| \\      /  F ield         | OpenFOAM: The Open Source CFD Toolbox           |
|  \\    /   O peration     | Version:  2412                                  |
|   \\  /    A nd           | Website:  www.openfoam.com                      |
|    \\/     M anipulation  |                                                 |
\*---------------------------------------------------------------------------*/
FoamFile
{
    version     2.0;
    format      ascii;
    arch        "LSB;label=32;scalar=64";
    class       volScalarField;
    location    "1.23";
    object      p_rgh;
}
// * * * * * * * * * * * * * * * * * * * * * * * * * * * * * * * * * * * * * //

dimensions      [1 -1 -2 0 0 0 0];

internalField   nonuniform List<scalar> 
40000
(
1.962
1.96208
1.96211
1.9621
1.96204
1.96194
1.96178
1.96158
1.96133
1.96104
1.9607
1.96031
1.95988
1.9594
1.95889
1.95833
1.95772
1.95708
1.9564
1.95567
1.95491
1.95411
1.95328
1.95241
1.9515
1.95056
1.9496
1.9486
1.94757
1.94651
1.94543
1.94432
1.94319
1.94204
1.94086
1.93967
1.93846
1.93723
1.93599
1.93473
1.93347
1.93219
1.9309
1.92961
1.92832
1.92701
1.92571
1.92441
1.9231
1.9218
1.92051
1.91922
1.91793
1.91665
1.91539
1.91413
1.91289
1.91166
1.91044
1.90924
1.90806
1.90689
1.90575
1.90462
1.90352
1.90244
1.90138
1.90035
1.89934
1.89836
1.8974
1.89647
1.89557
1.8947
1.89386
1.89304
1.89226
1.8915
1.89078
1.89009
1.88943
1.8888
1.8882
1.88764
1.8871
1.8866
1.88614
1.8857
1.8853
1.88493
1.8846
1.88429
1.88402
1.88379
1.88358
1.88342
1.88328
1.88318
1.88311
1.88307
1.88307
1.8831
1.88316
1.88326
1.88339
1.88355
1.88375
1.88398
1.88424
1.88454
1.88487
1.88523
1.88563
1.88605
1.88652
1.88701
1.88754
1.88809
1.88869
1.88931
1.88996
1.89065
1.89137
1.89211
1.89289
1.8937
1.89454
1.89541
1.8963
1.89723
1.89818
1.89915
1.90016
1.90118
1.90224
1.90331
1.90441
1.90553
1.90667
1.90783
1.90901
1.9102
1.91141
1.91264
1.91388
1.91513
1.91639
1.91767
1.91895
1.92023
1.92153
1.92282
1.92412
1.92542
1.92672
1.92802
1.92931
1.9306
1.93188
1.93316
1.93442
1.93567
1.93691
1.93814
1.93934
1.94053
1.94171
1.94286
1.94399
1.94509
1.94617
1.94722
1.94825
1.94925
1.95021
1.95115
1.95205
1.95292
1.95375
1.95455
1.95531
1.95603
1.95672
1.95736
1.95796
1.95852
1.95904
1.95951
1.95994
1.96032
1.96066
1.96096
1.96121
1.96141
1.96157
1.96167
1.96174
1.96175
1.96172
1.96163
1.96192
1.962
1.96204
1.96203
1.96197
1.96186
1.96171
1.9615
1.96126
1.96096
1.96062
1.96024
1.95981
1.95933
1.95881
1.95825
1.95765
1.95701
1.95633
1.9556
1.95484
1.95404
1.95321
1.95234
1.95144
1.9505
1.94953
1.94853
1.94751
1.94645
1.94537
1.94426
1.94313
1.94198
1.94081
1.93962
1.93841
1.93718
1.93594
1.93469
1.93342
1.93215
1.93087
1.92958
1.92828
1.92698
1.92568
1.92438
1.92308
1.92178
1.92049
1.9192
1.91792
1.91664
1.91538
1.91413
1.91289
1.91166
1.91045
1.90925
1.90807
1.90691
1.90577
1.90464
1.90355
1.90247
1.90141
1.90038
1.89938
1.8984
1.89745
1.89652
1.89562
1.89476
1.89391
1.8931
1.89232
1.89157
1.89085
1.89016
1.88951
1.88888
1.88828
1.88772
1.88719
1.88669
1.88623
1.8858
1.8854
1.88503
1.8847
1.8844
1.88413
1.88389
1.88369
1.88352
1.88339
1.88328
1.88321
1.88318
1.88317
1.8832
1.88327
1.88336
1.88349
1.88366
1.88385
1.88408
1.88434
1.88464
1.88497
1.88533
1.88572
1.88615
1.88661
1.8871
1.88762
1.88818
1.88877
1.88939
1.89004
1.89072
1.89144
1.89218
1.89296
1.89376
1.8946
1.89546
1.89635
1.89727
1.89822
1.89919
1.90019
1.90122
1.90226
1.90334
1.90443
1.90555
1.90668
1.90784
1.90902
1.91021
1.91142
1.91264
1.91388
1.91512
1.91638
1.91765
1.91893
1.92022
1.92151
1.9228
1.9241
1.92539
1.92669
1.92799
1.92928
1.93056
1.93184
1.93312
1.93438
1.93563
1.93686
1.93809
1.93929
1.94048
1.94165
1.9428
1.94393
1.94503
1.94611
1.94716
1.94819
1.94919
1.95015
1.95109
1.95199
1.95285
1.95369
1.95448
1.95524
1.95596
1.95665
1.95729
1.95789
1.95845
1.95896
1.95944
1.95987
1.96025
1.96059
1.96088
1.96113
1.96134
1.96149
1.9616
1.96166
1.96168
1.96164
1.96156
1.96189
1.96197
1.962
1.96199
1.96193
1.96182
1.96167
1.96147
1.96122
1.96092
1.96058
1.9602
1.95977
1.95929
1.95878
1.95822
1.95761
1.95697
1.95629
1.95556
1.9548
1.95401
1.95317
1.9523
1.9514
1.95046
1.94949
1.9485
1.94747
1.94641
1.94533
1.94423
1.9431
1.94194
1.94077
1.93958
1.93837
1.93715
1.93591
1.93465
1.93339
1.93212
1.93083
1.92955
1.92825
1.92695
1.92565
1.92435
1.92305
1.92176
1.92046
1.91918
1.9179
1.91662
1.91536
1.91411
1.91287
1.91164
1.91043
1.90924
1.90806
1.9069
1.90576
1.90464
1.90355
1.90247
1.90142
1.90039
1.89939
1.89841
1.89746
1.89654
1.89565
1.89478
1.89394
1.89313
1.89235
1.89161
1.89089
1.8902
1.88955
1.88892
1.88833
1.88777
1.88724
1.88675
1.88628
1.88585
1.88545
1.88509
1.88476
1.88446
1.88419
1.88395
1.88375
1.88359
1.88345
1.88335
1.88328
1.88324
1.88324
1.88327
1.88333
1.88343
1.88356
1.88372
1.88391
1.88414
1.8844
1.8847
1.88502
1.88538
1.88577
1.8862
1.88666
1.88715
1.88767
1.88822
1.88881
1.88943
1.89008
1.89076
1.89147
1.89221
1.89298
1.89379
1.89462
1.89548
1.89637
1.89729
1.89823
1.8992
1.9002
1.90122
1.90227
1.90334
1.90443
1.90554
1.90668
1.90783
1.90901
1.9102
1.9114
1.91262
1.91386
1.91511
1.91636
1.91763
1.91891
1.92019
1.92148
1.92277
1.92407
1.92537
1.92666
1.92796
1.92925
1.93053
1.93181
1.93308
1.93434
1.93559
1.93683
1.93805
1.93926
1.94044
1.94161
1.94276
1.94389
1.94499
1.94607
1.94713
1.94815
1.94915
1.95011
1.95105
1.95195
1.95282
1.95365
1.95444
1.9552
1.95592
1.95661
1.95725
1.95785
1.95841
1.95892
1.9594
1.95983
1.96021
1.96055
1.96085
1.96109
1.9613
1.96145
1.96156
1.96162
1.96164
1.9616
1.96152
1.96189
1.96197
1.96201
1.96199
1.96193
1.96182
1.96167
1.96147
1.96122
1.96092
1.96058
1.9602
1.95977
1.95929
1.95877
1.95821
1.95761
1.95697
1.95628
1.95556
1.9548
1.954
1.95316
1.95229
1.95139
1.95045
1.94948
1.94848
1.94745
1.9464
1.94532
1.94421
1.94308
1.94193
1.94075
1.93956
1.93835
1.93712
1.93588
1.93463
1.93336
1.93209
1.93081
1.92952
1.92822
1.92693
1.92563
1.92432
1.92302
1.92173
1.92043
1.91915
1.91787
1.91659
1.91533
1.91408
1.91284
1.91162
1.9104
1.90921
1.90803
1.90688
1.90574
1.90462
1.90352
1.90245
1.9014
1.90037
1.89937
1.89839
1.89745
1.89652
1.89563
1.89477
1.89393
1.89312
1.89235
1.8916
1.89088
1.8902
1.88954
1.88892
1.88833
1.88777
1.88724
1.88675
1.88629
1.88586
1.88546
1.8851
1.88477
1.88447
1.8842
1.88397
1.88377
1.8836
1.88347
1.88336
1.88329
1.88326
1.88326
1.88329
1.88335
1.88344
1.88357
1.88373
1.88393
1.88415
1.88441
1.88471
1.88503
1.88539
1.88578
1.88621
1.88666
1.88715
1.88767
1.88822
1.88881
1.88942
1.89007
1.89075
1.89146
1.8922
1.89297
1.89377
1.89461
1.89547
1.89635
1.89727
1.89821
1.89918
1.90018
1.9012
1.90224
1.90331
1.90441
1.90552
1.90665
1.90781
1.90898
1.91017
1.91137
1.91259
1.91383
1.91508
1.91633
1.9176
1.91888
1.92016
1.92145
1.92274
1.92404
1.92534
1.92663
1.92793
1.92922
1.9305
1.93178
1.93306
1.93432
1.93557
1.9368
1.93803
1.93923
1.94042
1.9416
1.94275
1.94387
1.94498
1.94606
1.94711
1.94814
1.94913
1.9501
1.95104
1.95194
1.95281
1.95364
1.95444
1.9552
1.95592
1.9566
1.95725
1.95785
1.95841
1.95892
1.9594
1.95983
1.96021
1.96055
1.96085
1.9611
1.9613
1.96145
1.96156
1.96162
1.96164
1.9616
1.96152
1.96193
1.96201
1.96205
1.96204
1.96198
1.96187
1.96171
1.96151
1.96126
1.96096
1.96062
1.96023
1.9598
1.95933
1.95881
1.95825
1.95764
1.957
1.95631
1.95559
1.95482
1.95402
1.95318
1.95231
1.95141
1.95047
1.9495
1.94849
1.94746
1.94641
1.94532
1.94421
1.94308
1.94192
1.94075
1.93955
1.93834
1.93711
1.93587
1.93461
1.93335
1.93207
1.93079
1.92949
1.9282
1.9269
1.9256
1.92429
1.92299
1.92169
1.9204
1.91911
1.91783
1.91655
1.91529
1.91404
1.9128
1.91157
1.91036
1.90916
1.90799
1.90683
1.90569
1.90457
1.90347
1.9024
1.90135
1.90032
1.89932
1.89835
1.8974
1.89648
1.89558
1.89472
1.89388
1.89308
1.8923
1.89155
1.89084
1.89015
1.8895
1.88888
1.88829
1.88773
1.8872
1.88671
1.88625
1.88582
1.88542
1.88506
1.88473
1.88443
1.88417
1.88393
1.88373
1.88357
1.88343
1.88333
1.88326
1.88323
1.88322
1.88325
1.88332
1.88341
1.88354
1.8837
1.88389
1.88412
1.88438
1.88467
1.885
1.88535
1.88574
1.88617
1.88662
1.88711
1.88763
1.88818
1.88876
1.88938
1.89003
1.89071
1.89142
1.89216
1.89293
1.89373
1.89456
1.89542
1.8963
1.89722
1.89816
1.89913
1.90013
1.90115
1.9022
1.90326
1.90436
1.90547
1.9066
1.90776
1.90893
1.91012
1.91133
1.91255
1.91378
1.91503
1.91629
1.91756
1.91884
1.92012
1.92142
1.92271
1.92401
1.92531
1.92661
1.9279
1.92919
1.93048
1.93176
1.93304
1.9343
1.93555
1.93679
1.93802
1.93923
1.94042
1.94159
1.94275
1.94388
1.94498
1.94606
1.94712
1.94815
1.94915
1.95012
1.95105
1.95196
1.95283
1.95366
1.95446
1.95522
1.95595
1.95663
1.95728
1.95788
1.95844
1.95896
1.95943
1.95986
1.96025
1.96059
1.96089
1.96114
1.96134
1.96149
1.9616
1.96167
1.96168
1.96164
1.96156
1.96201
1.96209
1.96213
1.96212
1.96205
1.96195
1.96179
1.96159
1.96134
1.96104
1.9607
1.96031
1.95987
1.9594
1.95888
1.95831
1.95771
1.95706
1.95637
1.95564
1.95488
1.95407
1.95323
1.95236
1.95145
1.95051
1.94953
1.94853
1.9475
1.94643
1.94535
1.94423
1.9431
1.94194
1.94076
1.93956
1.93835
1.93711
1.93587
1.93461
1.93334
1.93206
1.93077
1.92947
1.92817
1.92687
1.92557
1.92426
1.92296
1.92165
1.92036
1.91906
1.91778
1.9165
1.91524
1.91398
1.91274
1.91151
1.9103
1.9091
1.90792
1.90676
1.90562
1.9045
1.9034
1.90232
1.90127
1.90024
1.89924
1.89827
1.89732
1.8964
1.8955
1.89464
1.8938
1.89299
1.89222
1.89147
1.89076
1.89007
1.88942
1.8888
1.88821
1.88765
1.88712
1.88663
1.88617
1.88574
1.88534
1.88498
1.88465
1.88435
1.88409
1.88385
1.88365
1.88349
1.88335
1.88325
1.88318
1.88315
1.88314
1.88317
1.88324
1.88333
1.88346
1.88362
1.88381
1.88404
1.8843
1.88459
1.88492
1.88527
1.88566
1.88608
1.88654
1.88703
1.88755
1.8881
1.88868
1.8893
1.88994
1.89062
1.89133
1.89207
1.89284
1.89365
1.89448
1.89534
1.89622
1.89714
1.89808
1.89905
1.90005
1.90107
1.90212
1.90319
1.90428
1.9054
1.90654
1.90769
1.90887
1.91006
1.91127
1.91249
1.91373
1.91498
1.91624
1.91751
1.91879
1.92008
1.92138
1.92267
1.92397
1.92528
1.92658
1.92788
1.92917
1.93047
1.93175
1.93303
1.9343
1.93555
1.93679
1.93802
1.93924
1.94043
1.94161
1.94276
1.9439
1.94501
1.94609
1.94715
1.94818
1.94919
1.95016
1.9511
1.952
1.95288
1.95372
1.95452
1.95528
1.95601
1.95669
1.95734
1.95794
1.95851
1.95903
1.9595
1.95994
1.96032
1.96067
1.96096
1.96121
1.96142
1.96157
1.96168
1.96174
1.96176
1.96172
1.96164
1.96213
1.96221
1.96225
1.96223
1.96217
1.96206
1.96191
1.9617
1.96145
1.96115
1.96081
1.96042
1.95998
1.9595
1.95898
1.95841
1.9578
1.95715
1.95646
1.95573
1.95496
1.95416
1.95331
1.95243
1.95152
1.95057
1.9496
1.94859
1.94755
1.94648
1.94539
1.94427
1.94313
1.94197
1.94079
1.93958
1.93836
1.93713
1.93588
1.93461
1.93334
1.93205
1.93076
1.92946
1.92815
1.92685
1.92554
1.92422
1.92292
1.92161
1.92031
1.91901
1.91772
1.91644
1.91517
1.91391
1.91267
1.91143
1.91022
1.90902
1.90783
1.90667
1.90553
1.9044
1.9033
1.90222
1.90117
1.90014
1.89914
1.89816
1.89721
1.89628
1.89539
1.89452
1.89368
1.89288
1.8921
1.89135
1.89063
1.88995
1.88929
1.88867
1.88808
1.88752
1.887
1.8865
1.88604
1.88561
1.88522
1.88485
1.88452
1.88423
1.88396
1.88373
1.88353
1.88336
1.88323
1.88312
1.88306
1.88302
1.88302
1.88305
1.88311
1.8832
1.88333
1.88349
1.88369
1.88391
1.88417
1.88446
1.88479
1.88515
1.88554
1.88596
1.88641
1.8869
1.88742
1.88797
1.88856
1.88917
1.88982
1.8905
1.89121
1.89195
1.89273
1.89353
1.89436
1.89522
1.89611
1.89703
1.89797
1.89895
1.89995
1.90097
1.90202
1.90309
1.90419
1.90531
1.90645
1.9076
1.90878
1.90998
1.91119
1.91242
1.91366
1.91491
1.91618
1.91746
1.91874
1.92003
1.92133
1.92263
1.92394
1.92525
1.92655
1.92786
1.92916
1.93045
1.93174
1.93303
1.9343
1.93556
1.93681
1.93804
1.93926
1.94046
1.94164
1.9428
1.94394
1.94505
1.94614
1.94721
1.94824
1.94925
1.95022
1.95117
1.95208
1.95296
1.9538
1.9546
1.95537
1.9561
1.95679
1.95744
1.95804
1.95861
1.95913
1.95961
1.96004
1.96043
1.96078
1.96108
1.96133
1.96153
1.96169
1.9618
1.96186
1.96187
1.96184
1.96176
1.96229
1.96237
1.9624
1.96239
1.96233
1.96222
1.96206
1.96185
1.9616
1.9613
1.96095
1.96056
1.96012
1.95964
1.95912
1.95855
1.95793
1.95728
1.95659
1.95585
1.95508
1.95427
1.95342
1.95254
1.95162
1.95067
1.94968
1.94867
1.94763
1.94656
1.94546
1.94433
1.94319
1.94202
1.94083
1.93962
1.93839
1.93715
1.93589
1.93462
1.93334
1.93205
1.93075
1.92945
1.92813
1.92682
1.9255
1.92419
1.92287
1.92156
1.92025
1.91895
1.91766
1.91637
1.91509
1.91383
1.91258
1.91134
1.91012
1.90891
1.90773
1.90656
1.90541
1.90428
1.90318
1.9021
1.90104
1.90001
1.899
1.89802
1.89706
1.89614
1.89524
1.89437
1.89353
1.89272
1.89194
1.89119
1.89047
1.88979
1.88913
1.88851
1.88792
1.88736
1.88683
1.88634
1.88587
1.88544
1.88505
1.88468
1.88435
1.88405
1.88379
1.88355
1.88335
1.88319
1.88305
1.88295
1.88288
1.88285
1.88284
1.88287
1.88293
1.88303
1.88316
1.88332
1.88351
1.88374
1.884
1.88429
1.88462
1.88498
1.88537
1.88579
1.88625
1.88673
1.88725
1.88781
1.88839
1.88901
1.88966
1.89034
1.89105
1.8918
1.89257
1.89338
1.89421
1.89507
1.89597
1.89689
1.89783
1.89881
1.89981
1.90084
1.90189
1.90297
1.90407
1.90519
1.90633
1.9075
1.90868
1.90988
1.9111
1.91233
1.91358
1.91484
1.91611
1.91739
1.91868
1.91998
1.92128
1.92259
1.9239
1.92521
1.92653
1.92784
1.92914
1.93045
1.93174
1.93303
1.93431
1.93558
1.93683
1.93807
1.93929
1.9405
1.94169
1.94285
1.944
1.94512
1.94621
1.94728
1.94832
1.94933
1.95032
1.95126
1.95218
1.95306
1.95391
1.95472
1.95549
1.95622
1.95692
1.95757
1.95818
1.95875
1.95927
1.95975
1.96019
1.96058
1.96093
1.96123
1.96148
1.96168
1.96184
1.96195
1.96201
1.96203
1.96199
1.96191
1.96248
1.96256
1.9626
1.96258
1.96252
1.96241
1.96225
1.96204
1.96179
1.96149
1.96114
1.96074
1.9603
1.95982
1.95929
1.95872
1.9581
1.95744
1.95674
1.956
1.95523
1.95441
1.95356
1.95267
1.95174
1.95079
1.9498
1.94878
1.94773
1.94665
1.94554
1.94441
1.94326
1.94208
1.94089
1.93967
1.93844
1.93719
1.93592
1.93464
1.93336
1.93206
1.93075
1.92944
1.92812
1.9268
1.92547
1.92415
1.92283
1.92151
1.92019
1.91888
1.91758
1.91629
1.91501
1.91374
1.91248
1.91123
1.91001
1.90879
1.9076
1.90643
1.90527
1.90414
1.90303
1.90194
1.90088
1.89984
1.89883
1.89785
1.89689
1.89596
1.89506
1.89419
1.89334
1.89253
1.89175
1.89099
1.89027
1.88958
1.88893
1.8883
1.88771
1.88715
1.88662
1.88612
1.88566
1.88523
1.88483
1.88447
1.88413
1.88383
1.88357
1.88333
1.88313
1.88297
1.88283
1.88273
1.88266
1.88262
1.88262
1.88265
1.88271
1.88281
1.88294
1.8831
1.88329
1.88352
1.88378
1.88407
1.8844
1.88476
1.88515
1.88558
1.88603
1.88652
1.88705
1.8876
1.88819
1.88881
1.88946
1.89014
1.89086
1.8916
1.89238
1.89319
1.89402
1.89489
1.89579
1.89671
1.89766
1.89864
1.89965
1.90068
1.90174
1.90282
1.90393
1.90505
1.9062
1.90737
1.90856
1.90977
1.91099
1.91223
1.91348
1.91475
1.91603
1.91731
1.91861
1.91992
1.92123
1.92254
1.92386
1.92518
1.9265
1.92782
1.92913
1.93045
1.93175
1.93304
1.93433
1.9356
1.93687
1.93811
1.93934
1.94056
1.94175
1.94293
1.94408
1.9452
1.94631
1.94738
1.94843
1.94945
1.95043
1.95139
1.95231
1.9532
1.95405
1.95486
1.95564
1.95638
1.95707
1.95773
1.95835
1.95892
1.95945
1.95993
1.96037
1.96076
1.96111
1.96141
1.96167
1.96187
1.96203
1.96214
1.96221
1.96222
1.96218
1.9621
1.96271
1.9628
1.96283
1.96282
1.96275
1.96264
1.96248
1.96227
1.96202
1.96171
1.96136
1.96096
1.96052
1.96003
1.9595
1.95892
1.9583
1.95764
1.95693
1.95619
1.9554
1.95458
1.95372
1.95283
1.95189
1.95093
1.94993
1.94891
1.94785
1.94676
1.94565
1.94451
1.94335
1.94217
1.94096
1.93974
1.93849
1.93723
1.93596
1.93467
1.93338
1.93207
1.93075
1.92943
1.9281
1.92677
1.92544
1.92411
1.92278
1.92145
1.92012
1.91881
1.9175
1.9162
1.9149
1.91363
1.91236
1.91111
1.90987
1.90865
1.90745
1.90627
1.90511
1.90397
1.90286
1.90177
1.9007
1.89965
1.89864
1.89765
1.89668
1.89575
1.89484
1.89396
1.89312
1.8923
1.89151
1.89076
1.89003
1.88934
1.88868
1.88805
1.88746
1.88689
1.88636
1.88587
1.8854
1.88497
1.88457
1.8842
1.88387
1.88357
1.8833
1.88307
1.88287
1.8827
1.88256
1.88246
1.88239
1.88235
1.88235
1.88238
1.88244
1.88254
1.88267
1.88283
1.88303
1.88325
1.88352
1.88381
1.88414
1.8845
1.88489
1.88532
1.88578
1.88627
1.88679
1.88735
1.88794
1.88856
1.88922
1.8899
1.89062
1.89137
1.89215
1.89296
1.8938
1.89467
1.89557
1.8965
1.89746
1.89845
1.89946
1.9005
1.90156
1.90265
1.90376
1.90489
1.90605
1.90722
1.90842
1.90963
1.91086
1.91211
1.91337
1.91465
1.91593
1.91723
1.91854
1.91985
1.92117
1.92249
1.92382
1.92515
1.92648
1.9278
1.92913
1.93045
1.93176
1.93306
1.93436
1.93564
1.93691
1.93817
1.93941
1.94063
1.94183
1.94301
1.94417
1.94531
1.94642
1.9475
1.94856
1.94958
1.95058
1.95154
1.95247
1.95336
1.95422
1.95504
1.95582
1.95656
1.95727
1.95793
1.95855
1.95912
1.95966
1.96014
1.96059
1.96098
1.96133
1.96164
1.96189
1.9621
1.96226
1.96238
1.96244
1.96245
1.96242
1.96233
1.96299
1.96307
1.9631
1.96309
1.96302
1.96291
1.96275
1.96254
1.96228
1.96197
1.96162
1.96122
1.96077
1.96028
1.95974
1.95916
1.95853
1.95786
1.95715
1.9564
1.95561
1.95478
1.95391
1.95301
1.95207
1.9511
1.9501
1.94906
1.94799
1.9469
1.94578
1.94463
1.94346
1.94227
1.94105
1.93982
1.93856
1.93729
1.93601
1.93471
1.9334
1.93209
1.93076
1.92943
1.92809
1.92675
1.92541
1.92406
1.92272
1.92138
1.92005
1.91872
1.9174
1.91609
1.91479
1.9135
1.91223
1.91097
1.90972
1.9085
1.90729
1.9061
1.90493
1.90378
1.90266
1.90156
1.90048
1.89943
1.89841
1.89741
1.89644
1.8955
1.89459
1.89371
1.89286
1.89203
1.89124
1.89048
1.88976
1.88906
1.8884
1.88776
1.88716
1.8866
1.88606
1.88556
1.8851
1.88466
1.88426
1.88389
1.88356
1.88326
1.88299
1.88275
1.88255
1.88238
1.88224
1.88214
1.88207
1.88204
1.88203
1.88206
1.88213
1.88222
1.88235
1.88251
1.88271
1.88294
1.8832
1.8835
1.88383
1.88419
1.88458
1.88501
1.88547
1.88597
1.8865
1.88706
1.88765
1.88827
1.88893
1.88962
1.89034
1.8911
1.89188
1.8927
1.89355
1.89442
1.89533
1.89626
1.89723
1.89822
1.89924
1.90028
1.90135
1.90245
1.90357
1.90471
1.90587
1.90706
1.90826
1.90948
1.91072
1.91198
1.91325
1.91453
1.91583
1.91713
1.91845
1.91977
1.9211
1.92244
1.92377
1.92511
1.92645
1.92779
1.92912
1.93045
1.93178
1.93309
1.9344
1.93569
1.93697
1.93824
1.93949
1.94072
1.94193
1.94312
1.94429
1.94544
1.94655
1.94765
1.94871
1.94974
1.95075
1.95172
1.95265
1.95355
1.95442
1.95525
1.95604
1.95678
1.95749
1.95816
1.95878
1.95937
1.9599
1.96039
1.96084
1.96124
1.9616
1.9619
1.96216
1.96237
1.96253
1.96264
1.96271
1.96272
1.96269
1.9626
1.9633
1.96338
1.96342
1.9634
1.96333
1.96322
1.96306
1.96284
1.96258
1.96227
1.96191
1.96151
1.96106
1.96056
1.96002
1.95943
1.9588
1.95812
1.9574
1.95665
1.95585
1.95501
1.95414
1.95323
1.95228
1.9513
1.95028
1.94924
1.94816
1.94706
1.94593
1.94477
1.94359
1.94238
1.94115
1.93991
1.93864
1.93736
1.93607
1.93476
1.93344
1.93211
1.93077
1.92943
1.92808
1.92672
1.92537
1.92402
1.92266
1.92131
1.91997
1.91863
1.9173
1.91597
1.91466
1.91336
1.91208
1.91081
1.90955
1.90832
1.9071
1.9059
1.90472
1.90357
1.90243
1.90132
1.90024
1.89918
1.89815
1.89715
1.89617
1.89522
1.8943
1.89342
1.89256
1.89173
1.89093
1.89017
1.88944
1.88873
1.88807
1.88743
1.88683
1.88626
1.88572
1.88522
1.88475
1.88431
1.88391
1.88354
1.8832
1.8829
1.88262
1.88239
1.88218
1.88201
1.88188
1.88177
1.88171
1.88167
1.88167
1.8817
1.88176
1.88186
1.88199
1.88215
1.88235
1.88258
1.88284
1.88314
1.88347
1.88383
1.88423
1.88466
1.88513
1.88562
1.88615
1.88672
1.88732
1.88794
1.88861
1.8893
1.89003
1.89079
1.89158
1.8924
1.89325
1.89414
1.89505
1.89599
1.89696
1.89796
1.89899
1.90004
1.90112
1.90222
1.90335
1.9045
1.90567
1.90687
1.90808
1.90931
1.91056
1.91183
1.91311
1.9144
1.91571
1.91703
1.91835
1.91969
1.92103
1.92238
1.92373
1.92508
1.92643
1.92778
1.92912
1.93046
1.9318
1.93313
1.93444
1.93575
1.93704
1.93832
1.93958
1.94082
1.94205
1.94325
1.94443
1.94558
1.94671
1.94781
1.94889
1.94993
1.95094
1.95192
1.95287
1.95378
1.95465
1.95548
1.95628
1.95704
1.95775
1.95843
1.95906
1.95964
1.96018
1.96068
1.96113
1.96154
1.96189
1.9622
1.96246
1.96268
1.96284
1.96295
1.96302
1.96303
1.963
1.96291
1.96365
1.96373
1.96377
1.96375
1.96368
1.96357
1.9634
1.96319
1.96292
1.96261
1.96225
1.96184
1.96138
1.96088
1.96033
1.95973
1.9591
1.95841
1.95769
1.95693
1.95612
1.95527
1.95439
1.95347
1.95251
1.95152
1.9505
1.94944
1.94835
1.94724
1.94609
1.94492
1.94373
1.94251
1.94127
1.94002
1.93874
1.93745
1.93614
1.93482
1.93348
1.93214
1.93079
1.92943
1.92807
1.9267
1.92533
1.92396
1.9226
1.92124
1.91988
1.91852
1.91718
1.91585
1.91452
1.91321
1.91191
1.91063
1.90937
1.90812
1.90689
1.90568
1.90449
1.90332
1.90218
1.90106
1.89997
1.8989
1.89786
1.89685
1.89586
1.89491
1.89398
1.89309
1.89222
1.89139
1.89058
1.88981
1.88907
1.88837
1.88769
1.88705
1.88645
1.88587
1.88533
1.88482
1.88435
1.88391
1.8835
1.88313
1.88279
1.88249
1.88221
1.88198
1.88177
1.8816
1.88146
1.88136
1.88129
1.88125
1.88125
1.88128
1.88134
1.88144
1.88157
1.88174
1.88193
1.88217
1.88243
1.88273
1.88306
1.88343
1.88383
1.88427
1.88473
1.88523
1.88577
1.88634
1.88694
1.88757
1.88824
1.88894
1.88967
1.89044
1.89123
1.89206
1.89292
1.89381
1.89473
1.89568
1.89666
1.89767
1.8987
1.89977
1.90085
1.90197
1.9031
1.90427
1.90545
1.90665
1.90788
1.90912
1.91038
1.91166
1.91295
1.91426
1.91558
1.91691
1.91825
1.9196
1.92095
1.92231
1.92367
1.92504
1.9264
1.92777
1.92912
1.93048
1.93183
1.93317
1.9345
1.93582
1.93712
1.93841
1.93968
1.94094
1.94218
1.94339
1.94458
1.94575
1.94689
1.948
1.94909
1.95014
1.95116
1.95215
1.95311
1.95403
1.95491
1.95575
1.95656
1.95732
1.95804
1.95872
1.95936
1.95995
1.9605
1.961
1.96146
1.96187
1.96223
1.96254
1.96281
1.96302
1.96319
1.9633
1.96337
1.96338
1.96335
1.96326
1.96403
1.96412
1.96416
1.96414
1.96407
1.96395
1.96379
1.96357
1.9633
1.96298
1.96262
1.9622
1.96174
1.96123
1.96068
1.96008
1.95943
1.95874
1.95801
1.95724
1.95642
1.95556
1.95467
1.95374
1.95277
1.95177
1.95073
1.94967
1.94857
1.94744
1.94628
1.9451
1.94389
1.94266
1.94141
1.94014
1.93885
1.93754
1.93622
1.93488
1.93353
1.93217
1.93081
1.92943
1.92806
1.92668
1.92529
1.92391
1.92253
1.92115
1.91978
1.91841
1.91705
1.91571
1.91437
1.91304
1.91173
1.91044
1.90916
1.9079
1.90665
1.90543
1.90423
1.90305
1.9019
1.90077
1.89967
1.89859
1.89754
1.89652
1.89552
1.89456
1.89362
1.89272
1.89185
1.891
1.89019
1.88942
1.88867
1.88796
1.88728
1.88663
1.88602
1.88544
1.8849
1.88439
1.88391
1.88346
1.88305
1.88268
1.88234
1.88203
1.88175
1.88151
1.88131
1.88114
1.881
1.88089
1.88082
1.88078
1.88078
1.88081
1.88088
1.88097
1.88111
1.88127
1.88147
1.88171
1.88197
1.88228
1.88261
1.88298
1.88339
1.88382
1.88429
1.8848
1.88534
1.88591
1.88652
1.88716
1.88783
1.88854
1.88928
1.89005
1.89085
1.89169
1.89255
1.89345
1.89438
1.89534
1.89633
1.89735
1.89839
1.89946
1.90056
1.90169
1.90283
1.90401
1.9052
1.90642
1.90766
1.90891
1.91019
1.91148
1.91279
1.91411
1.91544
1.91678
1.91814
1.9195
1.92087
1.92224
1.92362
1.925
1.92638
1.92775
1.92913
1.9305
1.93186
1.93322
1.93456
1.93589
1.93721
1.93852
1.9398
1.94107
1.94232
1.94355
1.94476
1.94594
1.94709
1.94822
1.94931
1.95038
1.95141
1.95241
1.95338
1.95431
1.9552
1.95605
1.95687
1.95764
1.95837
1.95906
1.9597
1.9603
1.96086
1.96136
1.96183
1.96224
1.9626
1.96292
1.96319
1.9634
1.96357
1.96369
1.96376
1.96377
1.96373
1.96365
1.96446
1.96455
1.96459
1.96457
1.9645
1.96438
1.96421
1.96399
1.96372
1.9634
1.96303
1.96261
1.96214
1.96163
1.96106
1.96045
1.9598
1.9591
1.95836
1.95758
1.95675
1.95589
1.95498
1.95404
1.95306
1.95205
1.951
1.94992
1.9488
1.94766
1.94649
1.94529
1.94407
1.94283
1.94156
1.94027
1.93897
1.93764
1.9363
1.93495
1.93359
1.93221
1.93083
1.92944
1.92805
1.92665
1.92525
1.92385
1.92245
1.92106
1.91967
1.91829
1.91692
1.91555
1.9142
1.91286
1.91153
1.91022
1.90893
1.90765
1.9064
1.90516
1.90395
1.90276
1.90159
1.90045
1.89933
1.89824
1.89718
1.89615
1.89514
1.89417
1.89323
1.89231
1.89143
1.89058
1.88976
1.88898
1.88822
1.88751
1.88682
1.88617
1.88555
1.88497
1.88442
1.8839
1.88342
1.88297
1.88256
1.88218
1.88183
1.88152
1.88124
1.881
1.88079
1.88062
1.88048
1.88037
1.8803
1.88027
1.88026
1.88029
1.88036
1.88046
1.88059
1.88076
1.88096
1.8812
1.88147
1.88177
1.88211
1.88248
1.88289
1.88333
1.88381
1.88432
1.88486
1.88544
1.88605
1.8867
1.88738
1.88809
1.88884
1.88962
1.89043
1.89127
1.89215
1.89306
1.89399
1.89496
1.89596
1.89699
1.89804
1.89913
1.90024
1.90138
1.90254
1.90372
1.90493
1.90616
1.90741
1.90868
1.90997
1.91128
1.9126
1.91394
1.91528
1.91664
1.91801
1.91939
1.92078
1.92217
1.92356
1.92495
1.92635
1.92774
1.92913
1.93052
1.9319
1.93327
1.93463
1.93598
1.93731
1.93863
1.93994
1.94122
1.94249
1.94373
1.94495
1.94614
1.94731
1.94845
1.94956
1.95064
1.95169
1.9527
1.95368
1.95462
1.95552
1.95638
1.95721
1.95799
1.95873
1.95943
1.96008
1.96069
1.96125
1.96176
1.96223
1.96265
1.96302
1.96334
1.96361
1.96383
1.964
1.96412
1.96419
1.9642
1.96416
1.96408
1.96493
1.96502
1.96506
1.96504
1.96497
1.96485
1.96468
1.96445
1.96418
1.96385
1.96348
1.96305
1.96258
1.96205
1.96149
1.96087
1.96021
1.9595
1.95875
1.95795
1.95712
1.95624
1.95532
1.95437
1.95338
1.95235
1.95129
1.95019
1.94906
1.94791
1.94672
1.94551
1.94427
1.94301
1.94172
1.94042
1.9391
1.93776
1.9364
1.93503
1.93365
1.93226
1.93086
1.92945
1.92804
1.92662
1.92521
1.92379
1.92237
1.92096
1.91956
1.91816
1.91676
1.91538
1.91401
1.91266
1.91131
1.90999
1.90868
1.90739
1.90612
1.90487
1.90364
1.90243
1.90125
1.9001
1.89897
1.89787
1.89679
1.89575
1.89473
1.89375
1.89279
1.89187
1.89098
1.89012
1.88929
1.8885
1.88774
1.88701
1.88632
1.88566
1.88503
1.88444
1.88389
1.88336
1.88288
1.88242
1.88201
1.88162
1.88128
1.88096
1.88068
1.88044
1.88023
1.88005
1.87991
1.87981
1.87973
1.8797
1.87969
1.87972
1.87979
1.87989
1.88002
1.88019
1.8804
1.88064
1.88091
1.88122
1.88156
1.88193
1.88235
1.88279
1.88327
1.88379
1.88434
1.88492
1.88554
1.88619
1.88688
1.8876
1.88835
1.88914
1.88996
1.89082
1.8917
1.89262
1.89357
1.89455
1.89556
1.8966
1.89767
1.89876
1.89989
1.90104
1.90221
1.90341
1.90463
1.90588
1.90715
1.90843
1.90974
1.91106
1.9124
1.91375
1.91511
1.91649
1.91788
1.91927
1.92068
1.92208
1.92349
1.92491
1.92632
1.92773
1.92914
1.93054
1.93194
1.93333
1.93471
1.93607
1.93743
1.93877
1.94009
1.94139
1.94267
1.94393
1.94516
1.94637
1.94756
1.94871
1.94984
1.95093
1.95199
1.95301
1.954
1.95496
1.95587
1.95675
1.95758
1.95838
1.95913
1.95983
1.96049
1.96111
1.96168
1.9622
1.96267
1.96309
1.96347
1.96379
1.96407
1.96429
1.96446
1.96459
1.96465
1.96467
1.96463
1.96455
1.96545
1.96553
1.96557
1.96555
1.96548
1.96536
1.96518
1.96495
1.96468
1.96435
1.96396
1.96353
1.96305
1.96252
1.96194
1.96132
1.96065
1.95993
1.95917
1.95836
1.95751
1.95662
1.95569
1.95473
1.95372
1.95268
1.9516
1.95049
1.94935
1.94817
1.94697
1.94574
1.94449
1.94321
1.9419
1.94058
1.93924
1.93788
1.93651
1.93512
1.93372
1.93231
1.93089
1.92946
1.92803
1.92659
1.92516
1.92372
1.92229
1.92086
1.91943
1.91801
1.9166
1.9152
1.91381
1.91244
1.91108
1.90973
1.90841
1.9071
1.90581
1.90454
1.9033
1.90208
1.90088
1.89971
1.89857
1.89745
1.89637
1.89531
1.89428
1.89328
1.89232
1.89138
1.89048
1.88961
1.88877
1.88797
1.8872
1.88647
1.88576
1.8851
1.88447
1.88387
1.88331
1.88278
1.88229
1.88183
1.88141
1.88102
1.88067
1.88035
1.88007
1.87982
1.87961
1.87943
1.87929
1.87918
1.87911
1.87907
1.87907
1.8791
1.87917
1.87927
1.8794
1.87958
1.87978
1.88002
1.8803
1.88061
1.88095
1.88133
1.88175
1.8822
1.88269
1.88321
1.88376
1.88435
1.88498
1.88564
1.88633
1.88706
1.88783
1.88862
1.88946
1.89032
1.89122
1.89214
1.89311
1.8941
1.89512
1.89617
1.89725
1.89836
1.8995
1.90067
1.90186
1.90307
1.90431
1.90557
1.90686
1.90816
1.90948
1.91082
1.91218
1.91355
1.91493
1.91633
1.91773
1.91915
1.92057
1.922
1.92343
1.92486
1.92629
1.92772
1.92915
1.93057
1.93199
1.9334
1.93479
1.93618
1.93755
1.93891
1.94025
1.94157
1.94287
1.94414
1.94539
1.94662
1.94782
1.94899
1.95013
1.95124
1.95232
1.95336
1.95436
1.95533
1.95626
1.95714
1.95799
1.95879
1.95955
1.96027
1.96094
1.96156
1.96214
1.96267
1.96315
1.96358
1.96396
1.96429
1.96457
1.9648
1.96497
1.96509
1.96517
1.96518
1.96514
1.96506
1.966
1.96609
1.96612
1.96611
1.96603
1.96591
1.96573
1.9655
1.96521
1.96488
1.96449
1.96405
1.96356
1.96303
1.96244
1.9618
1.96112
1.96039
1.95962
1.9588
1.95794
1.95704
1.9561
1.95511
1.95409
1.95303
1.95194
1.95081
1.94965
1.94846
1.94724
1.94599
1.94472
1.94342
1.9421
1.94076
1.9394
1.93802
1.93662
1.93521
1.93379
1.93236
1.93092
1.92947
1.92802
1.92656
1.9251
1.92365
1.92219
1.92074
1.91929
1.91785
1.91642
1.915
1.9136
1.9122
1.91082
1.90946
1.90811
1.90679
1.90548
1.9042
1.90293
1.9017
1.90048
1.8993
1.89814
1.89701
1.89591
1.89483
1.89379
1.89278
1.8918
1.89085
1.88994
1.88906
1.88821
1.8874
1.88662
1.88588
1.88517
1.88449
1.88385
1.88325
1.88268
1.88215
1.88165
1.88118
1.88076
1.88037
1.88001
1.87969
1.8794
1.87915
1.87894
1.87876
1.87862
1.87851
1.87843
1.8784
1.87839
1.87842
1.87849
1.87859
1.87873
1.8789
1.87911
1.87936
1.87963
1.87995
1.8803
1.88068
1.8811
1.88156
1.88205
1.88258
1.88314
1.88374
1.88437
1.88504
1.88574
1.88648
1.88726
1.88806
1.8889
1.88978
1.89069
1.89163
1.8926
1.89361
1.89464
1.89571
1.89681
1.89793
1.89909
1.90027
1.90147
1.90271
1.90396
1.90524
1.90654
1.90786
1.90921
1.91056
1.91194
1.91333
1.91473
1.91615
1.91757
1.91901
1.92045
1.9219
1.92335
1.9248
1.92626
1.92771
1.92916
1.9306
1.93204
1.93347
1.93489
1.93629
1.93769
1.93906
1.94042
1.94176
1.94308
1.94437
1.94565
1.94689
1.94811
1.9493
1.95045
1.95158
1.95267
1.95373
1.95475
1.95573
1.95667
1.95757
1.95843
1.95925
1.96002
1.96074
1.96143
1.96206
1.96264
1.96318
1.96367
1.96411
1.96449
1.96483
1.96511
1.96534
1.96552
1.96564
1.96572
1.96574
1.9657
1.96561
1.96659
1.96668
1.96672
1.9667
1.96663
1.9665
1.96632
1.96608
1.96579
1.96545
1.96506
1.96461
1.96412
1.96357
1.96297
1.96233
1.96164
1.96089
1.96011
1.95928
1.9584
1.95749
1.95653
1.95553
1.95449
1.95342
1.95231
1.95116
1.94998
1.94877
1.94753
1.94627
1.94497
1.94365
1.94231
1.94095
1.93956
1.93816
1.93675
1.93531
1.93387
1.93242
1.93095
1.92948
1.92801
1.92653
1.92505
1.92357
1.92209
1.92062
1.91915
1.91769
1.91623
1.91479
1.91336
1.91195
1.91054
1.90916
1.90779
1.90645
1.90512
1.90382
1.90254
1.90128
1.90005
1.89885
1.89767
1.89653
1.89541
1.89432
1.89326
1.89224
1.89125
1.89029
1.88936
1.88847
1.88761
1.88678
1.88599
1.88524
1.88452
1.88384
1.88319
1.88258
1.882