/*--------------------------------*- C++ -*----------------------------------*\
| =========                 |                                                 |
| \\      /  F ield         | OpenFOAM: The Open Source CFD Toolbox           |
|  \\    /   O peration     | Version:  2412                                  |
|   \\  /    A nd           | Website:  www.openfoam.com                      |
|    \\/     M anipulation  |                                                 |
\*---------------------------------------------------------------------------*/
FoamFile
{
    version     2.0;
    format      ascii;
    arch        "LSB;label=32;scalar=64";
    class       volVectorField;
    location    "1.23";
    object      U;
}
// * * * * * * * * * * * * * * * * * * * * * * * * * * * * * * * * * * * * * //

dimensions      [0 1 -1 0 0 0 0];

internalField   nonuniform List<vector> 
40000
(
(3.63546e-06 -3.4473e-06 0)
(2.80645e-05 -7.23053e-06 0)
(6.20627e-05 -8.80134e-06 0)
(9.84665e-05 -9.39006e-06 0)
(0.000135768 -9.58847e-06 0)
(0.000173335 -9.63646e-06 0)
(0.000210891 -9.60921e-06 0)
(0.000248305 -9.54921e-06 0)
(0.00028551 -9.47528e-06 0)
(0.000322469 -9.39557e-06 0)
(0.000359155 -9.312e-06 0)
(0.00039554 -9.22334e-06 0)
(0.0004316 -9.12858e-06 0)
(0.000467309 -9.02716e-06 0)
(0.000502641 -8.91872e-06 0)
(0.000537569 -8.80301e-06 0)
(0.000572065 -8.67982e-06 0)
(0.000606102 -8.54907e-06 0)
(0.000639651 -8.41074e-06 0)
(0.000672683 -8.26485e-06 0)
(0.00070517 -8.11138e-06 0)
(0.000737083 -7.95032e-06 0)
(0.000768395 -7.78162e-06 0)
(0.000799075 -7.60528e-06 0)
(0.000829095 -7.42138e-06 0)
(0.000858426 -7.23012e-06 0)
(0.00088704 -7.03166e-06 0)
(0.000914908 -6.8261e-06 0)
(0.000942003 -6.61346e-06 0)
(0.000968296 -6.39375e-06 0)
(0.000993761 -6.16703e-06 0)
(0.00101837 -5.93351e-06 0)
(0.0010421 -5.69343e-06 0)
(0.00106491 -5.44701e-06 0)
(0.00108679 -5.19435e-06 0)
(0.0011077 -4.93549e-06 0)
(0.00112762 -4.67048e-06 0)
(0.00114654 -4.39948e-06 0)
(0.00116441 -4.12276e-06 0)
(0.00118122 -3.84065e-06 0)
(0.00119695 -3.55341e-06 0)
(0.00121156 -3.26123e-06 0)
(0.00122504 -2.96425e-06 0)
(0.00123737 -2.66263e-06 0)
(0.00124853 -2.35667e-06 0)
(0.00125849 -2.04673e-06 0)
(0.00126724 -1.73325e-06 0)
(0.00127476 -1.41655e-06 0)
(0.00128103 -1.09683e-06 0)
(0.00128603 -7.74173e-07 0)
(0.00128976 -4.48535e-07 0)
(0.00129219 -1.19502e-07 0)
(0.00129332 2.13402e-07 0)
(0.00129313 5.46337e-07 0)
(0.00129159 8.84988e-07 0)
(0.00128871 1.22201e-06 0)
(0.00128449 1.5562e-06 0)
(0.00127893 1.88845e-06 0)
(0.00127202 2.21925e-06 0)
(0.00126376 2.54854e-06 0)
(0.00125415 2.87606e-06 0)
(0.0012432 3.20152e-06 0)
(0.0012309 3.52467e-06 0)
(0.00121727 3.84518e-06 0)
(0.00120231 4.16263e-06 0)
(0.00118602 4.47651e-06 0)
(0.00116842 4.7863e-06 0)
(0.00114952 5.09156e-06 0)
(0.00112934 5.39194e-06 0)
(0.00110789 5.68716e-06 0)
(0.00108518 5.97691e-06 0)
(0.00106124 6.26082e-06 0)
(0.00103609 6.53847e-06 0)
(0.00100975 6.80951e-06 0)
(0.00098225 7.07361e-06 0)
(0.000953611 7.33046e-06 0)
(0.000923865 7.57972e-06 0)
(0.00089304 7.82103e-06 0)
(0.000861169 8.05401e-06 0)
(0.000828285 8.2784e-06 0)
(0.000794423 8.494e-06 0)
(0.00075962 8.70065e-06 0)
(0.000723916 8.89808e-06 0)
(0.00068735 9.08595e-06 0)
(0.000649962 9.26391e-06 0)
(0.000611797 9.43173e-06 0)
(0.000572896 9.5893e-06 0)
(0.000533306 9.73658e-06 0)
(0.000493074 9.87346e-06 0)
(0.000452246 9.99973e-06 0)
(0.000410872 1.01151e-05 0)
(0.000368999 1.02194e-05 0)
(0.000326678 1.03125e-05 0)
(0.000283961 1.03943e-05 0)
(0.000240899 1.04649e-05 0)
(0.000197544 1.05241e-05 0)
(0.000153949 1.05718e-05 0)
(0.000110166 1.06081e-05 0)
(6.62503e-05 1.06328e-05 0)
(2.22554e-05 1.06453e-05 0)
(-2.17657e-05 1.06455e-05 0)
(-6.57609e-05 1.06331e-05 0)
(-0.000109678 1.06084e-05 0)
(-0.000153462 1.05719e-05 0)
(-0.000197059 1.0524e-05 0)
(-0.000240415 1.04647e-05 0)
(-0.000283479 1.03943e-05 0)
(-0.000326197 1.03127e-05 0)
(-0.000368518 1.02199e-05 0)
(-0.000410392 1.01159e-05 0)
(-0.000451769 1.00008e-05 0)
(-0.0004926 9.87475e-06 0)
(-0.000532836 9.73791e-06 0)
(-0.000572429 9.59051e-06 0)
(-0.000611333 9.4328e-06 0)
(-0.000649503 9.26507e-06 0)
(-0.000686895 9.08747e-06 0)
(-0.000723465 8.90011e-06 0)
(-0.000759173 8.70312e-06 0)
(-0.00079398 8.49672e-06 0)
(-0.000827847 8.28109e-06 0)
(-0.000860737 8.05649e-06 0)
(-0.000892616 7.82335e-06 0)
(-0.000923448 7.58206e-06 0)
(-0.000953203 7.33287e-06 0)
(-0.000981849 7.0762e-06 0)
(-0.00100936 6.81244e-06 0)
(-0.00103571 6.54168e-06 0)
(-0.00106086 6.26415e-06 0)
(-0.00108481 5.98038e-06 0)
(-0.00110753 5.69069e-06 0)
(-0.00112899 5.39527e-06 0)
(-0.00114918 5.09463e-06 0)
(-0.00116809 4.78941e-06 0)
(-0.0011857 4.47992e-06 0)
(-0.001202 4.16639e-06 0)
(-0.00121697 3.84934e-06 0)
(-0.00123062 3.52922e-06 0)
(-0.00124293 3.20612e-06 0)
(-0.00125389 2.88042e-06 0)
(-0.00126352 2.55287e-06 0)
(-0.00127179 2.22365e-06 0)
(-0.00127871 1.89268e-06 0)
(-0.00128429 1.56027e-06 0)
(-0.00128852 1.22622e-06 0)
(-0.00129141 8.89095e-07 0)
(-0.00129296 5.49976e-07 0)
(-0.00129317 2.16833e-07 0)
(-0.00129205 -1.15855e-07 0)
(-0.00128962 -4.44641e-07 0)
(-0.0012859 -7.70196e-07 0)
(-0.00128091 -1.09283e-06 0)
(-0.00127465 -1.41232e-06 0)
(-0.00126715 -1.72865e-06 0)
(-0.00125842 -2.0419e-06 0)
(-0.00124848 -2.35166e-06 0)
(-0.00123734 -2.65723e-06 0)
(-0.00122503 -2.95852e-06 0)
(-0.00121156 -3.25563e-06 0)
(-0.00119697 -3.54809e-06 0)
(-0.00118126 -3.83552e-06 0)
(-0.00116447 -4.11773e-06 0)
(-0.00114661 -4.39459e-06 0)
(-0.00112772 -4.6657e-06 0)
(-0.00110781 -4.93045e-06 0)
(-0.00108691 -5.18907e-06 0)
(-0.00106505 -5.44167e-06 0)
(-0.00104225 -5.68776e-06 0)
(-0.00101855 -5.9274e-06 0)
(-0.000993959 -6.16082e-06 0)
(-0.000968515 -6.38791e-06 0)
(-0.000942241 -6.60793e-06 0)
(-0.000915166 -6.82056e-06 0)
(-0.00088732 -7.02603e-06 0)
(-0.00085873 -7.22352e-06 0)
(-0.000829426 -7.4131e-06 0)
(-0.000799437 -7.59558e-06 0)
(-0.000768792 -7.77108e-06 0)
(-0.000737518 -7.9394e-06 0)
(-0.000705643 -8.10047e-06 0)
(-0.000673196 -8.25428e-06 0)
(-0.000640206 -8.40019e-06 0)
(-0.000606701 -8.53749e-06 0)
(-0.000572711 -8.6664e-06 0)
(-0.000538268 -8.7877e-06 0)
(-0.000503401 -8.90096e-06 0)
(-0.00046814 -9.00598e-06 0)
(-0.000432511 -9.10395e-06 0)
(-0.000396545 -9.19392e-06 0)
(-0.000360268 -9.27557e-06 0)
(-0.000323711 -9.34978e-06 0)
(-0.000286903 -9.41541e-06 0)
(-0.000249876 -9.47192e-06 0)
(-0.000212658 -9.51822e-06 0)
(-0.000175287 -9.55074e-06 0)
(-0.000137804 -9.55709e-06 0)
(-0.000100287 -9.48748e-06 0)
(-6.31353e-05 -9.1245e-06 0)
(-2.81859e-05 -7.69064e-06 0)
(-3.47656e-06 -3.55088e-06 0)
(7.90638e-06 -2.82835e-05 0)
(5.73883e-05 -5.5828e-05 0)
(0.000119719 -6.46695e-05 0)
(0.000185016 -6.73068e-05 0)
(0.00025101 -6.81876e-05 0)
(0.000317165 -6.83952e-05 0)
(0.000383282 -6.82617e-05 0)
(0.000449218 -6.79526e-05 0)
(0.000514869 -6.75469e-05 0)
(0.00058016 -6.708e-05 0)
(0.000645028 -6.65648e-05 0)
(0.000709419 -6.60036e-05 0)
(0.000773281 -6.5396e-05 0)
(0.000836563 -6.47409e-05 0)
(0.000899216 -6.40373e-05 0)
(0.000961191 -6.32841e-05 0)
(0.00102244 -6.24805e-05 0)
(0.00108291 -6.16262e-05 0)
(0.00114256 -6.07209e-05 0)
(0.00120132 -5.97643e-05 0)
(0.00125917 -5.87561e-05 0)
(0.00131603 -5.7696e-05 0)
(0.00137188 -5.65839e-05 0)
(0.00142664 -5.54197e-05 0)
(0.00148029 -5.42036e-05 0)
(0.00153275 -5.29358e-05 0)
(0.00158399 -5.16168e-05 0)
(0.00163395 -5.02467e-05 0)
(0.00168259 -4.88257e-05 0)
(0.00172985 -4.73541e-05 0)
(0.00177569 -4.58321e-05 0)
(0.00182005 -4.42604e-05 0)
(0.00186289 -4.26396e-05 0)
(0.00190415 -4.09702e-05 0)
(0.0019438 -3.92526e-05 0)
(0.00198178 -3.74873e-05 0)
(0.00201805 -3.56748e-05 0)
(0.00205255 -3.38161e-05 0)
(0.00208525 -3.19121e-05 0)
(0.0021161 -2.9964e-05 0)
(0.00214505 -2.7973e-05 0)
(0.00217206 -2.594e-05 0)
(0.00219709 -2.3866e-05 0)
(0.00222009 -2.17524e-05 0)
(0.00224103 -1.96007e-05 0)
(0.00225987 -1.74127e-05 0)
(0.00227657 -1.51902e-05 0)
(0.00229109 -1.29352e-05 0)
(0.00230341 -1.06491e-05 0)
(0.00231348 -8.33336e-06 0)
(0.00232128 -5.98942e-06 0)
(0.00232679 -3.6182e-06 0)
(0.00232996 -1.21964e-06 0)
(0.00233079 1.20394e-06 0)
(0.00232923 3.64981e-06 0)
(0.00232529 6.10467e-06 0)
(0.00231893 8.56525e-06 0)
(0.00231016 1.10314e-05 0)
(0.00229894 1.35022e-05 0)
(0.00228528 1.59756e-05 0)
(0.00226917 1.8449e-05 0)
(0.00225061 2.09198e-05 0)
(0.00222959 2.33852e-05 0)
(0.00220613 2.58419e-05 0)
(0.00218022 2.82866e-05 0)
(0.00215188 3.07158e-05 0)
(0.00212111 3.31257e-05 0)
(0.00208795 3.55131e-05 0)
(0.00205239 3.78746e-05 0)
(0.00201448 4.02072e-05 0)
(0.00197424 4.25075e-05 0)
(0.00193169 4.47719e-05 0)
(0.00188688 4.6997e-05 0)
(0.00183984 4.91791e-05 0)
(0.00179061 5.13151e-05 0)
(0.00173924 5.34014e-05 0)
(0.00168578 5.54348e-05 0)
(0.00163028 5.74119e-05 0)
(0.0015728 5.93294e-05 0)
(0.00151339 6.11842e-05 0)
(0.00145212 6.29733e-05 0)
(0.00138906 6.46937e-05 0)
(0.00132428 6.63424e-05 0)
(0.00125785 6.79164e-05 0)
(0.00118984 6.94126e-05 0)
(0.00112034 7.08287e-05 0)
(0.00104943 7.21623e-05 0)
(0.000977194 7.34114e-05 0)
(0.000903717 7.45738e-05 0)
(0.000829091 7.56471e-05 0)
(0.000753407 7.66293e-05 0)
(0.000676759 7.75184e-05 0)
(0.000599245 7.8313e-05 0)
(0.000520962 7.90117e-05 0)
(0.000442009 7.96135e-05 0)
(0.000362488 8.01173e-05 0)
(0.000282499 8.05221e-05 0)
(0.000202147 8.08271e-05 0)
(0.000121534 8.10315e-05 0)
(4.07671e-05 8.11341e-05 0)
(-4.0054e-05 8.11343e-05 0)
(-0.000120822 8.10321e-05 0)
(-0.000201436 8.08278e-05 0)
(-0.00028179 8.05228e-05 0)
(-0.000361781 8.01182e-05 0)
(-0.000441304 7.9615e-05 0)
(-0.000520258 7.90139e-05 0)
(-0.000598542 7.83159e-05 0)
(-0.000676059 7.75219e-05 0)
(-0.000752708 7.66333e-05 0)
(-0.000828396 7.56517e-05 0)
(-0.000903026 7.45791e-05 0)
(-0.000976508 7.34174e-05 0)
(-0.00104875 7.21688e-05 0)
(-0.00111967 7.08356e-05 0)
(-0.00118917 6.94203e-05 0)
(-0.00125718 6.79251e-05 0)
(-0.00132362 6.63524e-05 0)
(-0.00138841 6.47046e-05 0)
(-0.00145147 6.29847e-05 0)
(-0.00151275 6.11957e-05 0)
(-0.00157216 5.93408e-05 0)
(-0.00162966 5.74233e-05 0)
(-0.00168517 5.54467e-05 0)
(-0.00173864 5.34142e-05 0)
(-0.00179002 5.13289e-05 0)
(-0.00183925 4.91942e-05 0)
(-0.00188631 4.70131e-05 0)
(-0.00193113 4.47888e-05 0)
(-0.00197369 4.25249e-05 0)
(-0.00201394 4.0225e-05 0)
(-0.00205187 3.78925e-05 0)
(-0.00208743 3.55307e-05 0)
(-0.00212061 3.31438e-05 0)
(-0.00215139 3.07351e-05 0)
(-0.00217975 2.83074e-05 0)
(-0.00220567 2.5864e-05 0)
(-0.00222916 2.34086e-05 0)
(-0.00225019 2.09441e-05 0)
(-0.00226877 1.84732e-05 0)
(-0.00228489 1.59992e-05 0)
(-0.00229857 1.35254e-05 0)
(-0.0023098 1.10539e-05 0)
(-0.00231859 8.58681e-06 0)
(-0.00232496 6.12558e-06 0)
(-0.00232892 3.67001e-06 0)
(-0.00233049 1.22322e-06 0)
(-0.00232967 -1.20045e-06 0)
(-0.00232652 -3.59804e-06 0)
(-0.00232103 -5.968e-06 0)
(-0.00231324 -8.31068e-06 0)
(-0.00230319 -1.0625e-05 0)
(-0.00229089 -1.29096e-05 0)
(-0.00227638 -1.5163e-05 0)
(-0.00225971 -1.7384e-05 0)
(-0.00224089 -1.95706e-05 0)
(-0.00221997 -2.17211e-05 0)
(-0.00219698 -2.38341e-05 0)
(-0.00217198 -2.59085e-05 0)
(-0.00214499 -2.79424e-05 0)
(-0.00211606 -2.99343e-05 0)
(-0.00208523 -3.18829e-05 0)
(-0.00205256 -3.37865e-05 0)
(-0.00201807 -3.56442e-05 0)
(-0.00198183 -3.74548e-05 0)
(-0.00194387 -3.92183e-05 0)
(-0.00190424 -4.09345e-05 0)
(-0.00186299 -4.26025e-05 0)
(-0.00182018 -4.42226e-05 0)
(-0.00177584 -4.57941e-05 0)
(-0.00173003 -4.73161e-05 0)
(-0.00168279 -4.87873e-05 0)
(-0.00163418 -5.02067e-05 0)
(-0.00158424 -5.15737e-05 0)
(-0.00153303 -5.28873e-05 0)
(-0.0014806 -5.41482e-05 0)
(-0.00142699 -5.53583e-05 0)
(-0.00137226 -5.65179e-05 0)
(-0.00131645 -5.76263e-05 0)
(-0.00125962 -5.86842e-05 0)
(-0.00120182 -5.96906e-05 0)
(-0.0011431 -6.06436e-05 0)
(-0.0010835 -6.15421e-05 0)
(-0.00102307 -6.23872e-05 0)
(-0.000961874 -6.31789e-05 0)
(-0.000899954 -6.39177e-05 0)
(-0.000837362 -6.46048e-05 0)
(-0.000774145 -6.52408e-05 0)
(-0.000710353 -6.58255e-05 0)
(-0.000646036 -6.63583e-05 0)
(-0.000581243 -6.68396e-05 0)
(-0.000516023 -6.72671e-05 0)
(-0.000450424 -6.76398e-05 0)
(-0.000384497 -6.7955e-05 0)
(-0.000318292 -6.82045e-05 0)
(-0.000251855 -6.83405e-05 0)
(-0.000185251 -6.80795e-05 0)
(-0.000119022 -6.60171e-05 0)
(-5.6196e-05 -5.68601e-05 0)
(-7.38945e-06 -2.80288e-05 0)
(9.02664e-06 -6.34284e-05 0)
(6.61858e-05 -0.000118958 0)
(0.000136948 -0.00013462 0)
(0.000210663 -0.000138431 0)
(0.000284587 -0.000139486 0)
(0.000358396 -0.00013969 0)
(0.000432068 -0.000139449 0)
(0.000505535 -0.000138931 0)
(0.000578713 -0.000138224 0)
(0.000651522 -0.000137375 0)
(0.000723891 -0.000136406 0)
(0.000795755 -0.000135327 0)
(0.000867053 -0.000134142 0)
(0.000937726 -0.000132852 0)
(0.00100772 -0.000131459 0)
(0.00107697 -0.000129962 0)
(0.00114542 -0.000128359 0)
(0.00121303 -0.000126652 0)
(0.00127973 -0.00012484 0)
(0.00134547 -0.000122923 0)
(0.00141019 -0.0001209 0)
(0.00147384 -0.000118771 0)
(0.00153636 -0.000116536 0)
(0.00159769 -0.000114194 0)
(0.00165779 -0.000111747 0)
(0.00171659 -0.000109194 0)
(0.00177403 -0.000106535 0)
(0.00183007 -0.000103771 0)
(0.00188464 -0.000100902 0)
(0.0019377 -9.79284e-05 0)
(0.00198918 -9.48512e-05 0)
(0.00203903 -9.16711e-05 0)
(0.00208719 -8.83887e-05 0)
(0.00213362 -8.50049e-05 0)
(0.00217825 -8.15204e-05 0)
(0.00222103 -7.79362e-05 0)
(0.00226191 -7.42535e-05 0)
(0.00230084 -7.04741e-05 0)
(0.00233777 -6.65996e-05 0)
(0.00237263 -6.26321e-05 0)
(0.00240539 -5.85735e-05 0)
(0.00243599 -5.44255e-05 0)
(0.00246439 -5.01906e-05 0)
(0.00249054 -4.58712e-05 0)
(0.00251438 -4.14704e-05 0)
(0.00253589 -3.69913e-05 0)
(0.00255501 -3.24374e-05 0)
(0.0025717 -2.78119e-05 0)
(0.00258592 -2.31181e-05 0)
(0.00259765 -1.83595e-05 0)
(0.00260683 -1.35399e-05 0)
(0.00261344 -8.66301e-06 0)
(0.00261745 -3.73247e-06 0)
(0.00261883 1.24975e-06 0)
(0.00261756 6.27205e-06 0)
(0.00261363 1.13276e-05 0)
(0.00260699 1.64113e-05 0)
(0.00259762 2.15185e-05 0)
(0.00258552 2.66442e-05 0)
(0.00257067 3.17828e-05 0)
(0.00255305 3.69285e-05 0)
(0.00253267 4.20751e-05 0)
(0.00250952 4.72163e-05 0)
(0.0024836 5.23452e-05 0)
(0.00245492 5.74547e-05 0)
(0.00242349 6.25375e-05 0)
(0.00238931 6.75864e-05 0)
(0.00235241 7.25943e-05 0)
(0.00231281 7.75542e-05 0)
(0.00227052 8.24588e-05 0)
(0.00222559 8.73006e-05 0)
(0.00217803 9.20721e-05 0)
(0.0021279 9.67657e-05 0)
(0.00207523 0.000101374 0)
(0.00202006 0.000105888 0)
(0.00196245 0.000110303 0)
(0.00190245 0.000114609 0)
(0.00184013 0.0001188 0)
(0.00177553 0.000122869 0)
(0.00170874 0.000126808 0)
(0.00163981 0.000130611 0)
(0.00156883 0.000134271 0)
(0.00149588 0.00013778 0)
(0.00142103 0.000141133 0)
(0.00134437 0.000144323 0)
(0.001266 0.000147344 0)
(0.00118601 0.000150191 0)
(0.00110449 0.000152859 0)
(0.00102155 0.000155342 0)
(0.000937283 0.000157635 0)
(0.000851797 0.000159734 0)
(0.000765202 0.000161635 0)
(0.000677607 0.000163334 0)
(0.000589126 0.000164828 0)
(0.000499873 0.000166114 0)
(0.000409963 0.00016719 0)
(0.000319515 0.000168053 0)
(0.000228646 0.000168703 0)
(0.000137476 0.000169136 0)
(4.6126e-05 0.000169353 0)
(-4.52878e-05 0.000169353 0)
(-0.000136638 0.000169136 0)
(-0.00022781 0.000168703 0)
(-0.00031868 0.000168055 0)
(-0.00040913 0.000167192 0)
(-0.000499042 0.000166118 0)
(-0.000588297 0.000164833 0)
(-0.00067678 0.00016334 0)
(-0.000764377 0.000161641 0)
(-0.000850975 0.000159741 0)
(-0.000936464 0.000157642 0)
(-0.00102074 0.00015535 0)
(-0.00110368 0.000152868 0)
(-0.00118521 0.000150202 0)
(-0.0012652 0.000147357 0)
(-0.00134358 0.000144338 0)
(-0.00142024 0.000141149 0)
(-0.00149509 0.000137798 0)
(-0.00156805 0.000134289 0)
(-0.00163904 0.00013063 0)
(-0.00170797 0.000126827 0)
(-0.00177477 0.000122889 0)
(-0.00183938 0.00011882 0)
(-0.00190171 0.00011463 0)
(-0.00196172 0.000110325 0)
(-0.00201934 0.000105913 0)
(-0.00207451 0.000101399 0)
(-0.0021272 9.67927e-05 0)
(-0.00217734 9.21002e-05 0)
(-0.0022249 8.73293e-05 0)
(-0.00226985 8.24882e-05 0)
(-0.00231215 7.75842e-05 0)
(-0.00235176 7.26246e-05 0)
(-0.00238868 6.76173e-05 0)
(-0.00242286 6.25697e-05 0)
(-0.00245431 5.74884e-05 0)
(-0.002483 5.23803e-05 0)
(-0.00250894 4.72527e-05 0)
(-0.0025321 4.21129e-05 0)
(-0.00255249 3.69667e-05 0)
(-0.00257012 3.18204e-05 0)
(-0.00258499 2.66811e-05 0)
(-0.0025971 2.15549e-05 0)
(-0.00260648 1.64468e-05 0)
(-0.00261313 1.13621e-05 0)
(-0.00261708 6.30583e-06 0)
(-0.00261836 1.28333e-06 0)
(-0.00261699 -3.69847e-06 0)
(-0.002613 -8.62791e-06 0)
(-0.0026064 -1.35034e-05 0)
(-0.00259724 -1.83215e-05 0)
(-0.00258553 -2.30783e-05 0)
(-0.00257132 -2.77707e-05 0)
(-0.00255464 -3.23948e-05 0)
(-0.00253553 -3.69471e-05 0)
(-0.00251404 -4.14243e-05 0)
(-0.00249021 -4.58238e-05 0)
(-0.00246408 -5.01426e-05 0)
(-0.0024357 -5.43778e-05 0)
(-0.00240511 -5.85265e-05 0)
(-0.00237237 -6.25861e-05 0)
(-0.00233752 -6.65543e-05 0)
(-0.00230061 -7.04277e-05 0)
(-0.00226169 -7.42052e-05 0)
(-0.00222083 -7.78857e-05 0)
(-0.00217806 -8.14679e-05 0)
(-0.00213344 -8.49507e-05 0)
(-0.00208703 -8.83336e-05 0)
(-0.00203888 -9.16158e-05 0)
(-0.00198904 -9.4796e-05 0)
(-0.00193758 -9.78722e-05 0)
(-0.00188454 -0.000100844 0)
(-0.00182998 -0.000103711 0)
(-0.00177396 -0.000106471 0)
(-0.00171653 -0.000109124 0)
(-0.00165775 -0.000111671 0)
(-0.00159767 -0.000114113 0)
(-0.00153635 -0.000116449 0)
(-0.00147385 -0.000118681 0)
(-0.00141022 -0.000120807 0)
(-0.00134551 -0.000122828 0)
(-0.00127979 -0.000124741 0)
(-0.00121311 -0.000126546 0)
(-0.00114552 -0.000128245 0)
(-0.00107707 -0.000129836 0)
(-0.00100783 -0.00013132 0)
(-0.000937845 -0.000132701 0)
(-0.000867172 -0.000133976 0)
(-0.000795867 -0.000135148 0)
(-0.000723985 -0.000136216 0)
(-0.000651578 -0.000137179 0)
(-0.000578701 -0.000138037 0)
(-0.000505407 -0.000138787 0)
(-0.000431749 -0.00013943 0)
(-0.000357786 -0.000139956 0)
(-0.000283567 -0.000140291 0)
(-0.000209157 -0.000139941 0)
(-0.000135135 -0.000136345 0)
(-6.48538e-05 -0.000119383 0)
(-8.71216e-06 -6.21862e-05 0)
(9.12856e-06 -0.000100438 0)
(6.75817e-05 -0.000185808 0)
(0.000140251 -0.00020907 0)
(0.000216192 -0.000214027 0)
(0.000292185 -0.000214987 0)
(0.000367878 -0.00021497 0)
(0.000443313 -0.000214496 0)
(0.000518479 -0.0002137 0)
(0.000593327 -0.000212655 0)
(0.000667794 -0.0002114 0)
(0.000741813 -0.000209958 0)
(0.000815323 -0.000208342 0)
(0.000888261 -0.000206558 0)
(0.000960568 -0.00020461 0)
(0.00103218 -0.000202498 0)
(0.00110305 -0.000200225 0)
(0.00117312 -0.00019779 0)
(0.00124232 -0.000195192 0)
(0.0013106 -0.000192433 0)
(0.0013779 -0.000189511 0)
(0.00144417 -0.000186427 0)
(0.00150935 -0.00018318 0)
(0.00157339 -0.00017977 0)
(0.00163621 -0.000176197 0)
(0.00169778 -0.00017246 0)
(0.00175803 -0.000168561 0)
(0.0018169 -0.000164499 0)
(0.00187433 -0.000160275 0)
(0.00193028 -0.000155889 0)
(0.00198468 -0.000151342 0)
(0.00203747 -0.000146635 0)
(0.00208861 -0.000141768 0)
(0.00213803 -0.000136743 0)
(0.00218567 -0.00013156 0)
(0.00223148 -0.000126222 0)
(0.00227542 -0.000120728 0)
(0.00231741 -0.000115083 0)
(0.00235741 -0.000109286 0)
(0.00239536 -0.000103342 0)
(0.00243121 -9.72529e-05 0)
(0.00246491 -9.10212e-05 0)
(0.0024964 -8.465e-05 0)
(0.00252565 -7.81428e-05 0)
(0.00255259 -7.15034e-05 0)
(0.00257719 -6.47362e-05 0)
(0.00259939 -5.78458e-05 0)
(0.00261915 -5.0837e-05 0)
(0.00263643 -4.37148e-05 0)
(0.00265119 -3.64843e-05 0)
(0.00266338 -2.91511e-05 0)
(0.00267298 -2.17214e-05 0)
(0.00267994 -1.42019e-05 0)
(0.00268424 -6.60015e-06 0)
(0.00268583 1.07643e-06 0)
(0.00268472 8.81939e-06 0)
(0.00268085 1.66225e-05 0)
(0.00267422 2.44779e-05 0)
(0.00266479 3.23764e-05 0)
(0.00265255 4.0309e-05 0)
(0.00263748 4.82663e-05 0)
(0.00261958 5.6239e-05 0)
(0.00259884 6.42174e-05 0)
(0.00257526 7.21913e-05 0)
(0.00254883 8.01501e-05 0)
(0.00251957 8.80828e-05 0)
(0.00248747 9.59783e-05 0)
(0.00245255 0.000103826 0)
(0.00241483 0.000111613 0)
(0.00237433 0.000119331 0)
(0.00233107 0.000126965 0)
(0.00228508 0.000134506 0)
(0.00223639 0.00014194 0)
(0.00218505 0.000149257 0)
(0.00213109 0.000156443 0)
(0.00207456 0.000163488 0)
(0.00201552 0.000170379 0)
(0.00195401 0.000177104 0)
(0.0018901 0.000183652 0)
(0.00182384 0.000190012 0)
(0.00175532 0.000196171 0)
(0.0016846 0.000202119 0)
(0.00161176 0.000207845 0)
(0.00153688 0.000213338 0)
(0.00146005 0.000218588 0)
(0.00138135 0.000223585 0)
(0.00130088 0.000228319 0)
(0.00121873 0.000232781 0)
(0.00113501 0.000236963 0)
(0.00104981 0.000240856 0)
(0.000963241 0.000244452 0)
(0.000875414 0.000247744 0)
(0.000786439 0.000250726 0)
(0.000696432 0.000253391 0)
(0.000605507 0.000255736 0)
(0.000513784 0.000257754 0)
(0.000421382 0.000259442 0)
(0.000328421 0.000260796 0)
(0.000235026 0.000261814 0)
(0.00014132 0.000262493 0)
(4.74275e-05 0.000262832 0)
(-4.65304e-05 0.000262832 0)
(-0.000140423 0.000262493 0)
(-0.00023413 0.000261815 0)
(-0.000327527 0.000260799 0)
(-0.000420488 0.000259447 0)
(-0.000512893 0.000257761 0)
(-0.000604618 0.000255744 0)
(-0.000695545 0.0002534 0)
(-0.000785556 0.000250735 0)
(-0.000874533 0.000247754 0)
(-0.000962362 0.000244463 0)
(-0.00104893 0.000240868 0)
(-0.00113414 0.000236977 0)
(-0.00121787 0.000232798 0)
(-0.00130002 0.000228338 0)
(-0.00138049 0.000223606 0)
(-0.0014592 0.000218611 0)
(-0.00153604 0.000213362 0)
(-0.00161092 0.00020787 0)
(-0.00168377 0.000202144 0)
(-0.0017545 0.000196197 0)
(-0.00182302 0.000190039 0)
(-0.00188928 0.000183681 0)
(-0.0019532 0.000177134 0)
(-0.00201472 0.000170411 0)
(-0.00207378 0.000163522 0)
(-0.00213031 0.000156478 0)
(-0.00218428 0.000149293 0)
(-0.00223563 0.000141978 0)
(-0.00228433 0.000134544 0)
(-0.00233033 0.000127005 0)
(-0.0023736 0.000119371 0)
(-0.00241411 0.000111656 0)
(-0.00245184 0.000103869 0)
(-0.00248677 9.60224e-05 0)
(-0.00251888 8.81281e-05 0)
(-0.00254816 8.01967e-05 0)
(-0.0025746 7.2239e-05 0)
(-0.00259819 6.42664e-05 0)
(-0.00261894 5.62889e-05 0)
(-0.00263685 4.83159e-05 0)
(-0.00265193 4.03579e-05 0)
(-0.00266418 3.2425e-05 0)
(-0.00267362 2.45259e-05 0)
(-0.00268027 1.66694e-05 0)
(-0.00268414 8.86567e-06 0)
(-0.00268527 1.12305e-06 0)
(-0.00268369 -6.55283e-06 0)
(-0.00267941 -1.41535e-05 0)
(-0.00267246 -2.16716e-05 0)
(-0.00266288 -2.90994e-05 0)
(-0.00265069 -3.64307e-05 0)
(-0.00263595 -4.36599e-05 0)
(-0.00261868 -5.07811e-05 0)
(-0.00259893 -5.77885e-05 0)
(-0.00257674 -6.46774e-05 0)
(-0.00255216 -7.14437e-05 0)
(-0.00252522 -7.80828e-05 0)
(-0.00249599 -8.45901e-05 0)
(-0.0024645 -9.09617e-05 0)
(-0.00243081 -9.71941e-05 0)
(-0.00239497 -0.000103284 0)
(-0.00235703 -0.000109227 0)
(-0.00231705 -0.000115022 0)
(-0.00227507 -0.000120666 0)
(-0.00223115 -0.000126158 0)
(-0.00218534 -0.000131495 0)
(-0.00213771 -0.000136677 0)
(-0.0020883 -0.000141702 0)
(-0.00203717 -0.000146568 0)
(-0.00198439 -0.000151274 0)
(-0.00193 -0.00015582 0)
(-0.00187406 -0.000160204 0)
(-0.00181663 -0.000164425 0)
(-0.00175777 -0.000168482 0)
(-0.00169753 -0.000172377 0)
(-0.00163597 -0.000176108 0)
(-0.00157315 -0.000179677 0)
(-0.00150912 -0.000183084 0)
(-0.00144394 -0.000186329 0)
(-0.00137767 -0.00018941 0)
(-0.00131037 -0.000192329 0)
(-0.00124209 -0.000195084 0)
(-0.00117288 -0.000197676 0)
(-0.00110281 -0.000200105 0)
(-0.00103193 -0.000202372 0)
(-0.000960287 -0.000204479 0)
(-0.000887948 -0.000206425 0)
(-0.000814965 -0.000208212 0)
(-0.000741395 -0.00020984 0)
(-0.000667291 -0.000211308 0)
(-0.000592708 -0.000212615 0)
(-0.000517701 -0.00021376 0)
(-0.000442326 -0.000214744 0)
(-0.000366639 -0.000215555 0)
(-0.000290692 -0.000216082 0)
(-0.000214549 -0.000215607 0)
(-0.000138798 -0.000210362 0)
(-6.69081e-05 -0.000185238 0)
(-9.05727e-06 -9.84448e-05 0)
(9.12822e-06 -0.000137303 0)
(6.75289e-05 -0.00025278 0)
(0.000140463 -0.000284184 0)
(0.000217031 -0.000290492 0)
(0.000293722 -0.000291333 0)
(0.000370067 -0.000291013 0)
(0.000446084 -0.000290232 0)
(0.000521778 -0.000289111 0)
(0.000597118 -0.000287696 0)
(0.000672054 -0.000286016 0)
(0.000746533 -0.00028409 0)
(0.000820493 -0.00028193 0)
(0.000893879 -0.000279542 0)
(0.00096663 -0.000276931 0)
(0.00103869 -0.000274099 0)
(0.00111 -0.000271046 0)
(0.0011805 -0.000267774 0)
(0.00125014 -0.000264282 0)
(0.00131886 -0.000260572 0)
(0.0013866 -0.000256641 0)
(0.0014533 -0.000252492 0)
(0.00151891 -0.000248122 0)
(0.00158337 -0.000243532 0)
(0.00164663 -0.000238721 0)
(0.00170862 -0.00023369 0)
(0.00176928 -0.000228439 0)
(0.00182857 -0.000222968 0)
(0.00188641 -0.000217277 0)
(0.00194277 -0.000211367 0)
(0.00199757 -0.000205239 0)
(0.00205076 -0.000198893 0)
(0.00210228 -0.000192331 0)
(0.00215208 -0.000185554 0)
(0.00220011 -0.000178563 0)
(0.00224629 -0.00017136 0)
(0.00229058 -0.000163948 0)
(0.00233293 -0.000156328 0)
(0.00237328 -0.000148504 0)
(0.00241156 -0.000140478 0)
(0.00244774 -0.000132254 0)
(0.00248176 -0.000123836 0)
(0.00251356 -0.000115228 0)
(0.0025431 -0.000106434 0)
(0.00257033 -9.74592e-05 0)
(0.0025952 -8.83097e-05 0)
(0.00261765 -7.89913e-05 0)
(0.00263766 -6.95102e-05 0)
(0.00265516 -5.9873e-05 0)
(0.00267013 -5.00868e-05 0)
(0.00268253 -4.01593e-05 0)
(0.0026923 -3.0099e-05 0)
(0.00269943 -1.99151e-05 0)
(0.00270387 -9.6177e-06 0)
(0.00270559 7.82497e-07 0)
(0.00270456 1.12768e-05 0)
(0.00270077 2.18564e-05 0)
(0.00269418 3.25105e-05 0)
(0.00268477 4.32269e-05 0)
(0.00267253 5.39931e-05 0)
(0.00265745 6.47964e-05 0)
(0.00263951 7.56239e-05 0)
(0.0026187 8.64623e-05 0)
(0.00259503 9.72977e-05 0)
(0.00256848 0.000108116 0)
(0.00253908 0.000118902 0)
(0.00250681 0.000129641 0)
(0.00247171 0.000140317 0)
(0.00243377 0.000150916 0)
(0.00239303 0.000161422 0)
(0.00234951 0.000171819 0)
(0.00230322 0.00018209 0)
(0.00225422 0.000192219 0)
(0.00220254 0.00020219 0)
(0.00214821 0.000211988 0)
(0.00209129 0.000221594 0)
(0.00203182 0.000230994 0)
(0.00196987 0.00024017 0)
(0.00190549 0.000249106 0)
(0.00183874 0.000257787 0)
(0.00176971 0.000266197 0)
(0.00169845 0.00027432 0)
(0.00162505 0.000282141 0)
(0.00154959 0.000289647 0)
(0.00147215 0.000296822 0)
(0.00139283 0.000303652 0)
(0.00131171 0.000310125 0)
(0.0012289 0.000316227 0)
(0.0011445 0.000321946 0)
(0.0010586 0.000327271 0)
(0.000971324 0.000332191 0)
(0.000882772 0.000336696 0)
(0.00079306 0.000340778 0)
(0.000702303 0.000344428 0)
(0.000610619 0.000347639 0)
(0.000518126 0.000350403 0)
(0.000424947 0.000352715 0)
(0.000331203 0.00035457 0)
(0.000237019 0.000355964 0)
(0.000142521 0.000356895 0)
(4.78347e-05 0.000357361 0)
(-4.69175e-05 0.000357361 0)
(-0.000141604 0.000356897 0)
(-0.000236103 0.000355967 0)
(-0.000330287 0.000354575 0)
(-0.000424032 0.000352721 0)
(-0.000517214 0.000350411 0)
(-0.000609709 0.000347649 0)
(-0.000701396 0.00034444 0)
(-0.000792157 0.000340792 0)
(-0.000881871 0.000336711 0)
(-0.000970426 0.000332207 0)
(-0.00105771 0.000327289 0)
(-0.00114361 0.000321966 0)
(-0.00122801 0.000316249 0)
(-0.00131083 0.00031015 0)
(-0.00139195 0.000303679 0)
(-0.00147128 0.00029685 0)
(-0.00154872 0.000289677 0)
(-0.00162419 0.000282173 0)
(-0.0016976 0.000274352 0)
(-0.00176886 0.00026623 0)
(-0.0018379 0.000257822 0)
(-0.00190466 0.000249143 0)
(-0.00196904 0.000240208 0)
(-0.002031 0.000231034 0)
(-0.00209048 0.000221637 0)
(-0.00214741 0.000212031 0)
(-0.00220175 0.000202236 0)
(-0.00225344 0.000192266 0)
(-0.00230245 0.000182138 0)
(-0.00234874 0.000171868 0)
(-0.00239228 0.000161473 0)
(-0.00243303 0.000150969 0)
(-0.00247097 0.000140372 0)
(-0.00250609 0.000129696 0)
(-0.00253837 0.000118958 0)
(-0.00256778 0.000108173 0)
(-0.00259434 9.73566e-05 0)
(-0.00261802 8.65222e-05 0)
(-0.00263884 7.56846e-05 0)
(-0.00265679 6.48574e-05 0)
(-0.00267189 5.40538e-05 0)
(-0.00268413 4.32872e-05 0)
(-0.00269355 3.25703e-05 0)
(-0.00270015 2.19154e-05 0)
(-0.00270396 1.13353e-05 0)
(-0.00270499 8.41391e-07 0)
(-0.00270329 -9.55819e-06 0)
(-0.00269886 -1.98546e-05 0)
(-0.00269175 -3.00369e-05 0)
(-0.00268199 -4.00952e-05 0)
(-0.00266961 -5.00209e-05 0)
(-0.00265465 -5.98059e-05 0)
(-0.00263715 -6.94422e-05 0)
(-0.00261716 -7.89223e-05 0)
(-0.00259471 -8.82401e-05 0)
(-0.00256985 -9.73892e-05 0)
(-0.00254264 -0.000106364 0)
(-0.00251311 -0.000115157 0)
(-0.00248131 -0.000123766 0)
(-0.0024473 -0.000132184 0)
(-0.00241114 -0.000140408 0)
(-0.00237286 -0.000148434 0)
(-0.00233252 -0.000156257 0)
(-0.00229019 -0.000163876 0)
(-0.0022459 -0.000171288 0)
(-0.00219973 -0.000178489 0)
(-0.00215171 -0.000185479 0)
(-0.00210192 -0.000192256 0)
(-0.0020504 -0.000198817 0)
(-0.00199722 -0.000205162 0)
(-0.00194242 -0.00021129 0)
(-0.00188608 -0.000217198 0)
(-0.00182823 -0.000222886 0)
(-0.00176896 -0.000228355 0)
(-0.00170829 -0.000233603 0)
(-0.00164631 -0.00023863 0)
(-0.00158306 -0.000243437 0)
(-0.0015186 -0.000248026 0)
(-0.00145299 -0.000252394 0)
(-0.00138628 -0.000256542 0)
(-0.00131854 -0.000260472 0)
(-0.00124981 -0.000264181 0)
(-0.00118016 -0.000267671 0)
(-0.00110964 -0.000270943 0)
(-0.00103831 -0.000273997 0)
(-0.000966221 -0.000276834 0)
(-0.000893431 -0.000279456 0)
(-0.000819997 -0.000281861 0)
(-0.000745973 -0.000284052 0)
(-0.000671414 -0.000286027 0)
(-0.000596375 -0.000287786 0)
(-0.000520911 -0.00028933 0)
(-0.000445079 -0.000290658 0)
(-0.000368936 -0.000291754 0)
(-0.000292531 -0.000292475 0)
(-0.000215931 -0.000291874 0)
(-0.000139726 -0.000284976 0)
(-6.7436e-05 -0.000251649 0)
(-9.15923e-06 -0.000135143 0)
(9.13425e-06 -0.000174041 0)
(6.75048e-05 -0.000319618 0)
(0.000140476 -0.000359421 0)
(0.000217313 -0.000367266 0)
(0.00029438 -0.000368049 0)
(0.000371123 -0.000367413 0)
(0.000447524 -0.000366293 0)
(0.000523575 -0.000364815 0)
(0.000599247 -0.000363006 0)
(0.000674498 -0.000360886 0)
(0.000749279 -0.000358466 0)
(0.000823535 -0.000355755 0)
(0.00089721 -0.00035276 0)
(0.000970248 -0.000349485 0)
(0.00104259 -0.000345931 0)
(0.00111419 -0.000342099 0)
(0.00118498 -0.000337991 0)
(0.0012549 -0.000333606 0)
(0.0013239 -0.000328945 0)
(0.00139192 -0.000324007 0)
(0.00145891 -0.000318793 0)
(0.0015248 -0.000313301 0)
(0.00158955 -0.000307531 0)
(0.00165308 -0.000301484 0)
(0.00171536 -0.000295159 0)
(0.0017763 -0.000288556 0)
(0.00183587 -0.000281676 0)
(0.001894 -0.000274518 0)
(0.00195063 -0.000267084 0)
(0.00200571 -0.000259374 0)
(0.00205918 -0.000251389 0)
(0.00211098 -0.00024313 0)
(0.00216105 -0.0002346 0)
(0.00220934 -0.0002258 0)