/*--------------------------------*- C++ -*----------------------------------*\
| =========                 |                                                 |
| \\      /  F ield         | OpenFOAM: The Open Source CFD Toolbox           |
|  \\    /   O peration     | Version:  2412                                  |
|   \\  /    A nd           | Website:  www.openfoam.com                      |
|    \\/     M anipulation  |                                                 |
\*---------------------------------------------------------------------------*/
FoamFile
{
    version     2.0;
    format      ascii;
    arch        "LSB;label=32;scalar=64";
    class       volScalarField;
    location    "50";
    object      p;
}
// * * * * * * * * * * * * * * * * * * * * * * * * * * * * * * * * * * * * * //

dimensions      [0 2 -2 0 0 0 0];

internalField   nonuniform List<scalar> 
268293
(
-7109.6
-7097.68
-7106.47
-7108.86
-7120.21
-7144.31
-7182.13
-7234.07
-7296.66
-7366.32
-7437.8
-7506.6
-7568.32
-7618.95
-7655.05
-7673.95
-7674.21
-7655.84
-7620.3
-7570.3
-7509.24
-7441.12
-7370.3
-7301.25
-7239.15
-7187.56
-7149.95
-7125.98
-7114.68
-7105.86
-7086.98
-7056.18
-7011.27
-6952.88
-6881.13
-6797.98
-6704.79
-6603.74
-6497.49
-6389.75
-6285.32
-6191.23
-6112.78
-6055.64
-6019.11
-6002.11
-6007.11
-6018.47
-6036.55
-6062.38
-6094.23
-6130.75
-6169.49
-6208.74
-6244.7
-6275.52
-6297.87
-6309.64
-6309.58
-6297.69
-6275.22
-6244.28
-6208.2
-6168.85
-6130
-6093.39
-6061.45
-6035.54
-6017.4
-6006
-6000.98
-6017.92
-6054.32
-6111.28
-6189.46
-6283.21
-6387.23
-6494.51
-6600.28
-6700.84
-6793.54
-6876.25
-6947.62
-7005.73
-7050.47
-7081.22
-7100.02
-7111.46
-7092.86
-7061.86
-7017.34
-6959.06
-6887.81
-6805
-6712.18
-6611.31
-6504.95
-6396.84
-6292
-6196.99
-6118
-6059.87
-6023.18
-6034.98
-6053.93
-6080.87
-6114.29
-6152.57
-6193.59
-6235.84
-6275.05
-6308.83
-6333.16
-6346.02
-6346.08
-6333.34
-6309.14
-6275.48
-6236.39
-6194.25
-6153.34
-6115.16
-6081.85
-6055
-6036.11
-6024.36
-6061.15
-6073.97
-6094.52
-6123.66
-6159.94
-6201.47
-6246.39
-6293.4
-6335.93
-6373.93
-6401.17
-6415.57
-6415.51
-6400.99
-6373.62
-6335.48
-6292.82
-6245.68
-6200.63
-6158.98
-6122.58
-6093.35
-6072.73
-6132.73
-6155.97
-6188.75
-6229.54
-6276.32
-6327.53
-6380.97
-6431.19
-6475.71
-6507.93
-6525.04
-6525.11
-6508.14
-6476.07
-6431.7
-6381.63
-6328.34
-6277.28
-6230.64
-6189.98
-6157.31
-6134.15
-6119.47
-6198.72
-6215.67
-6242.12
-6279.13
-6325.07
-6377.82
-6435.91
-6496.36
-6553.96
-6604.79
-6642.26
-6662.15
-6662.07
-6642.02
-6604.39
-6553.4
-6495.61
-6434.98
-6376.71
-6323.78
-6277.68
-6240.54
-6213.99
-6311.37
-6341.47
-6383.17
-6434.73
-6493.78
-6558.71
-6626.07
-6691.04
-6748.03
-6790.82
-6813.69
-6813.78
-6791.1
-6748.51
-6691.74
-6626.99
-6559.86
-6495.14
-6436.29
-6384.91
-6343.36
-6313.38
-6294.07
-6399.31
-6420.46
-6453.73
-6499.45
-6555.71
-6619.86
-6690.02
-6762.52
-6832.82
-6894.1
-6940.61
-6965.45
-6965.34
-6940.29
-6893.54
-6832
-6761.45
-6688.67
-6618.24
-6553.84
-6497.36
-6451.45
-6418.06
-6527.67
-6563.75
-6613.13
-6673.62
-6742.19
-6816.58
-6893.07
-6967.19
-7031.41
-7080.49
-7106.83
-7106.96
-7080.87
-7032.07
-6968.16
-6894.37
-6818.21
-6744.12
-6675.85
-6615.62
-6566.45
-6530.53
-6507.88
-6614.71
-6638.37
-6676.25
-6728.02
-6791.19
-6862.35
-6938.87
-7017
-7092.26
-7156.96
-7206.37
-7232.79
-7232.64
-7205.94
-7156.2
-7091.16
-7015.51
-6937
-6860.09
-6788.58
-6725.1
-6673.1
-6635.06
-6736.52
-6775.9
-6829.72
-6895.22
-6968.62
-7046.84
-7125.98
-7201.46
-7265.86
-7314.9
-7341.15
-7341.32
-7315.4
-7266.74
-7202.73
-7127.68
-7048.97
-6971.19
-6898.2
-6833.06
-6779.52
-6740.33
-6716.11
-6809.39
-6833.87
-6873.88
-6928.5
-6994.82
-7068.86
-7147.2
-7225.87
-7299.98
-7362.8
-7410.08
-7435.18
-7435.01
-7409.54
-7361.86
-7298.58
-7223.99
-7144.81
-7065.96
-6991.45
-6924.73
-6869.81
-6829.61
-6912.51
-6953.09
-7008.42
-7075.5
-7150.16
-7228.53
-7306.44
-7378.8
-7440.05
-7485.51
-7509.7
-7509.9
-7486.12
-7441.1
-7380.34
-7308.51
-7231.15
-7153.33
-7079.21
-7012.58
-6957.59
-6917.23
-6892.66
-6964.29
-6988.8
-7029.18
-7084.06
-7150.47
-7224.17
-7301.12
-7376.98
-7446.75
-7505.37
-7548.23
-7570.75
-7570.55
-7547.59
-7504.25
-7445.09
-7374.73
-7298.26
-7220.7
-7146.43
-7079.56
-7024.33
-6983.73
-7041.97
-7082.28
-7136.99
-7203.17
-7276.5
-7352.65
-7427.1
-7495.03
-7551.71
-7592.83
-7614.53
-7614.75
-7593.51
-7552.91
-7496.78
-7429.48
-7355.68
-7280.18
-7207.46
-7141.79
-7087.44
-7047.33
-7022.84
-7067.54
-7091.94
-7131.51
-7185.08
-7249.71
-7321.15
-7394.94
-7466.56
-7531.41
-7585.13
-7623.7
-7643.8
-7643.57
-7622.99
-7583.88
-7529.56
-7464.05
-7391.77
-7317.33
-7245.29
-7180.16
-7126.23
-7086.42
-7117.32
-7156.53
-7209.59
-7273.62
-7344.36
-7417.27
-7487.72
-7551.3
-7603.74
-7641.32
-7661.03
-7661.27
-7642.06
-7605.04
-7553.21
-7490.3
-7420.53
-7348.3
-7278.18
-7214.65
-7161.95
-7122.95
-7098.56
-7117.17
-7141.2
-7179.47
-7231.33
-7294.04
-7363.44
-7434.78
-7503.47
-7565.15
-7615.76
-7651.76
-7670.4
-7670.14
-7650.98
-7614.39
-7563.16
-7500.84
-7431.47
-7359.5
-7289.51
-7226.33
-7174.11
-7135.62
-7134.51
-7142.98
-7182.12
-7235.4
-7299.98
-7371.77
-7445.74
-7517.1
-7581.25
-7633.99
-7671.63
-7691.35
-7691.59
-7672.41
-7635.33
-7583.24
-7519.77
-7449.12
-7375.82
-7304.66
-7240.57
-7187.65
-7148.71
-7124.1
-7112.38
-7108.07
-7100.09
-7087.01
-7066.56
-7035.31
-6989.42
-6923.72
-6832.46
-6708.78
-6546.06
-6336.09
-6075.65
-5764.15
-5403.37
-5000.04
-4563.35
-4105.37
-3639.72
-3180.3
-2738.36
-2335.81
-1970.12
-1656.94
-1389.84
-1161.42
-966.371
-800.12
-658.585
-537.915
-435.246
-347.072
-271.183
-203.879
-142.648
-84.9109
-28.3235
-28.0323
-28.1487
-27.5147
-27.2028
-26.3519
-25.7042
-24.8844
-24.1734
-23.4782
-22.9076
-22.496
-22.2848
-22.3024
-22.5478
-23.0036
-23.6196
-24.3574
-25.1437
-25.9926
-26.7133
-27.5629
-27.8621
-28.4779
-28.3531
-28.6378
-27.8738
-26.9587
-24.8109
-22.3199
-18.9304
-15.3275
-11.4745
-7.64524
-3.89828
-0.350181
2.93121
5.8372
8.32555
10.1732
11.595
12.2978
12.7723
13.1165
14.1575
15.3956
17.3882
19.4978
22.0893
24.664
27.2223
29.5067
31.3743
32.6847
33.3473
33.3125
32.587
31.2333
29.3542
27.1086
24.5999
22.085
19.5943
17.5395
15.5835
14.3675
13.3406
13.001
12.537
11.8545
10.4623
8.6475
6.19317
3.31099
0.044505
-3.50571
-7.2583
-11.1046
-14.9708
-18.5897
-21.9892
-24.4889
-26.6436
-27.5559
-27.6099
-26.4033
-24.4993
-21.7992
-18.4659
-14.7498
-10.8638
-6.97878
-3.19498
0.376746
3.66573
6.58302
9.03145
10.9256
12.2224
13.029
13.8948
13.0951
11.7811
9.85033
7.34653
4.37865
1.04637
-2.5692
-6.4005
-10.3439
-14.2923
-18.0832
-21.4966
-24.261
-26.1693
-27.4044
-27.0695
-25.848
-23.8316
-20.9379
-17.393
-13.4855
-9.44181
-5.424
-1.52754
2.14529
5.54063
8.57945
11.1648
13.1561
14.5216
15.2839
17.0991
16.3423
14.8968
12.8284
10.1397
7.02393
3.57527
-0.146782
-4.09433
-8.18118
-12.3106
-16.3317
-20.0232
-23.076
-25.2218
-26.5076
-25.7706
-24.3902
-22.1004
-18.8697
-15.0312
-10.8954
-6.68398
-2.54318
1.44341
5.20135
8.70116
11.9085
14.739
16.9008
18.4753
19.2489
21.6356
20.7992
19.0184
16.7442
13.6861
10.3638
6.80598
3.02288
-0.983096
-5.16265
-9.44205
-13.689
-17.6767
-21.1001
-23.476
-24.9972
-24.1599
-22.3502
-19.6623
-15.9099
-11.7991
-7.54576
-3.34565
0.708125
4.57675
8.25229
11.7726
15.1888
18.6258
21.1642
23.2606
24.1489
26.6103
25.7169
23.248
20.7843
17.0031
13.5287
10.0003
6.35769
2.51746
-1.53862
-5.79525
-10.1812
-14.4719
-18.6192
-21.2423
-23.4183
-22.6745
-20.203
-17.2724
-12.8002
-8.39309
-4.00422
0.162523
4.07781
7.76
11.267
14.7292
18.2444
22.3785
25.1136
27.9095
28.8336
30.7071
29.7783
26.8092
24.0324
19.6941
16.1363
12.6762
9.19887
5.5349
1.60772
-2.62069
-7.13458
-11.7165
-16.4052
-19.4431
-22.0713
-21.6312
-18.9032
-15.7632
-10.9337
-6.2285
-1.62326
2.65777
6.60352
10.2593
13.7202
17.1732
20.7538
25.2241
28.0406
31.1336
32.0625
32.7905
31.8594
28.7066
25.8736
21.3372
17.7477
14.2983
10.8461
7.19052
3.22996
-1.08668
-5.74971
-10.5237
-15.4279
-18.6256
-21.4052
-21.417
-18.6224
-15.4172
-10.5021
-5.71382
-1.04568
3.27105
7.22899
10.8792
14.3259
17.7702
21.359
25.9008
28.7343
31.8952
32.8251
32.16
31.2286
28.1113
25.2925
20.8026
17.2264
13.7883
10.3477
6.71019
2.77657
-1.50451
-6.126
-10.8606
-15.7334
-18.9022
-21.6722
-22.1467
-19.4389
-16.3561
-11.5881
-6.96235
-2.43346
1.78087
5.67632
9.29954
12.7378
16.1714
19.7223
24.1042
26.8912
29.9147
30.8459
28.9827
28.0574
25.1797
22.4512
18.2354
14.7229
11.2916
7.84087
4.22068
0.357523
-3.78358
-8.18977
-12.6596
-17.2587
-20.2069
-22.7989
-23.5745
-21.1551
-18.3438
-13.9887
-9.72016
-5.4465
-1.36746
2.48582
6.13075
9.60959
13.0379
16.4914
20.4625
23.1116
25.7967
26.7055
24.1978
23.3275
20.9424
18.5362
14.8874
11.4765
7.98431
4.38211
0.600877
-3.36863
-7.50875
-11.749
-15.8677
-19.8754
-22.3546
-24.4501
-25.2697
-23.5429
-20.9914
-17.3846
-13.4298
-9.31355
-5.22508
-1.25896
2.54569
6.17138
9.6425
12.9845
16.2982
18.7378
20.7649
21.6225
19.1286
18.3042
16.5493
14.3041
11.2971
8.01782
4.50676
0.784023
-3.13674
-7.20176
-11.3382
-15.4202
-19.2335
-22.4889
-24.7129
-26.1391
-26.8603
-25.5412
-23.4081
-20.3442
-16.6769
-12.6974
-8.62114
-4.59135
-0.691277
3.00804
6.46651
9.63754
12.4365
14.5755
16.1347
16.9334
15.0859
14.2906
12.8479
10.7984
8.1382
5.05571
1.64976
-2.01069
-5.87854
-9.86209
-13.8667
-17.7431
-21.2693
-24.162
-26.1667
-27.4057
-27.726
-26.4848
-24.5832
-21.8247
-18.4293
-14.6603
-10.7349
-6.81716
-3.00473
0.607084
3.95285
6.95457
9.50989
11.4884
12.8528
13.6787
12.7978
11.9717
10.6369
8.70689
6.21881
3.2752
-0.026738
-3.59624
-7.37033
-11.2387
-15.1048
-18.8046
-22.1238
-24.8186
-26.7131
-27.9282
-83.7182
-84.1097
-85.8717
-144.231
-206.038
-273.821
-350.029
-438.294
-540.751
-660.848
-801.454
-966.471
-1160.05
-1386.85
-1652.25
-1963.73
-2327.75
-2728.75
-3169.27
-3627.47
-4092.1
-4549.27
-4985.37
-5388.31
-5748.9
-6060.46
-6321.21
-6531.83
-6695.47
-6820.23
-6912.74
-6979.67
-7026.68
-7058.84
-7080
-7093.6
-7101.88
-7093.11
-7084.96
-7071.64
-7050.88
-7019.45
-6973.44
-6907.94
-6817.1
-6693.89
-6532.07
-6322.18
-6058.57
-5742.6
-5377.37
-4969.52
-4528.27
-4065.8
-3595.81
-3133.13
-2685.78
-2287.28
-1923.91
-1618.32
-1358.22
-1135.83
-946.131
-784.562
-646.919
-529.479
-429.173
-342.95
-268.254
-201.983
-141.482
-135.499
-80.588
-74.6914
-66.718
-56.9067
-45.9543
-34.4479
-22.9142
-11.671
-1.0209
8.81301
17.5567
24.9229
30.6484
34.7295
37.1555
38.3567
63.5136
88.471
113.166
137.158
160.138
180.902
198.238
210.192
214.421
207.791
186.351
145.162
78.1419
-21.8103
-162.538
-352.003
-593.853
-889.665
-1237.2
-1629.8
-2058.19
-2510.41
-2973.2
-3432.79
-3876.21
-4291.9
-4661.74
-4988.54
-5256.87
-5474.05
-5646.51
-5777.49
-5873.42
-5939.08
-5978.59
-5983.82
-5944.14
-5878.1
-5781.94
-5650.13
-5477.14
-5258.64
-4989.02
-4659.07
-4285.98
-3865.61
-3416.46
-2950.78
-2481.92
-2024.12
-1591.19
-1195.55
-846.732
-551.397
-311.621
-125.172
11.7999
107.778
170.91
208.476
226.59
230.21
223.302
208.977
189.608
167.069
142.653
117.39
91.6654
65.7889
39.637
42.3339
46.4385
52.0372
58.7175
66.313
74.0961
81.6843
88.5304
94.1307
98.0717
100.06
99.957
97.7795
93.7121
88.0788
81.3522
73.9253
66.3047
59.0158
52.496
47.0047
42.9682
40.3094
39.048
64.6427
89.9976
115.056
139.373
162.654
183.711
201.357
213.673
218.325
212.176
191.28
150.634
84.1357
-15.4147
-155.915
-345.36
-587.403
-883.606
-1231.68
-1624.88
-2053.9
-2506.77
-2970.21
-3430.44
-3874.47
-4290.74
-4661.07
-4988.32
-5257
-5474.46
-5647.15
-5778.31
-5874.35
-5940.11
-5979.69
-5997.53
-5958.9
-5894.45
-5800.66
-5672.01
-5503.1
-5289.74
-5026.62
-4699.34
-4332.11
-3910.85
-3462.91
-2998.23
-2530.2
-2072.64
-1638.9
-1241.2
-889.142
-589.246
-344.664
-156.018
-17.6448
80.1532
145.247
184.973
205.439
211.527
207.1
195.198
178.134
157.728
135.227
111.638
87.3807
62.8028
37.8771
35.5088
58.8878
81.8999
104.588
126.611
147.542
166.501
182.293
193.25
197.191
191.256
171.818
134.253
72.4846
-21.7105
-156.99
-346.508
-586.624
-884.416
-1240.53
-1643.32
-2082.77
-2546.41
-3021.11
-3493.26
-3949.24
-4382.2
-4770.31
-5107.83
-5360.05
-5564.64
-5725.64
-5848.09
-5937.32
-5998.56
-6035.09
-6094.48
-6061.37
-6005.44
-5923.88
-5812.27
-5666.4
-5482.86
-5266.95
-4956.72
-4577.09
-4092.58
-3625.88
-3140.52
-2651.71
-2172.01
-1715.21
-1293.97
-919.398
-583.246
-313.419
-146.297
-28.8559
57.3918
112.815
147.324
165.764
172.069
169.396
160.34
146.835
130.363
112.02
92.6155
72.5769
52.233
31.524
25.89
42.861
59.4751
75.7267
91.3183
105.803
118.446
128.252
133.961
133.95
125.979
107.402
74.9869
25.1683
-51.2702
-167.472
-367.532
-590.234
-764.171
-954.271
-1140.87
-1343.23
-1560.07
-1785.9
-2024.95
-2268.91
-2522.17
-2775.44
-3033.83
-3287.92
-3543.9
-3792.87
-4041.62
-4282.03
-4517.6
-4767.46
-5013.23
-5178.77
-5461.72
-5627.69
-5796.08
-5924.79
-6023.8
-6096.05
-6145.53
-6174.7
-6271.37
-6246.73
-6204.75
-6143.62
-6060.45
-5953.83
-5815.54
-5687.57
-5483.18
-5166.27
-4941.65
-4695.75
-4460.11
-4219.03
-3967.66
-3715.63
-3454.58
-3194.57
-2928.11
-2666.15
-2402.53
-2148.39
-1898.37
-1662.62
-1435.78
-1225.71
-1027.96
-840.602
-660.073
-504.998
-363.522
-265.535
-176.752
-102.59
-225.509
-331.897
-462.613
-597.11
-755.569
-924.525
-1114.98
-1318.23
-1536.54
-1770.22
-2016.18
-2273.78
-2538.26
-2808.3
-3078.68
-3348.63
-3613.76
-3874.77
-4128.51
-4376.74
-4616.47
-4846.56
-5084.37
-5310.39
-5438.07
-5722.68
-5903.53
-6004.82
-6118.85
-6205.71
-6273.59
-6323.56
-6357.9
-6378.13
-6488.32
-6472.29
-6445.09
-6405.48
-6351.61
-6282.59
-6190.91
-6111.7
-5959.09
-5703.89
-5583.65
-5378.83
-5235.76
-5006.25
-4782.59
-4547.05
-4302.15
-4049.3
-3788.04
-3519.86
-3245.49
-2968.07
-2690.07
-2415.98
-2148.95
-1893.16
-1650.75
-1424.21
-1213.88
-1019.47
-843.229
-683.042
-541.586
-408.31
-285.001
-198.108
-358.088
-482.838
-625.667
-774.128
-941.521
-1124.36
-1324.86
-1542.53
-1777.39
-2028.58
-2293.77
-2569.86
-2852.53
-3137.51
-3420.29
-3697.6
-3966.74
-4226.54
-4476.23
-4715.96
-4945.02
-5160.94
-5312.83
-5521.05
-5655.33
-5839.19
-5948.99
-6173.33
-6301.98
-6364.1
-6437.15
-6491.08
-6532.9
-6563.5
-6584.43
-6596.77
-6699.65
-6690.38
-6674.62
-6651.41
-6619.36
-6577.53
-6519.39
-6470.08
-6362.84
-6168.39
-6071.1
-5908.83
-5786.77
-5601.45
-5459.68
-5262
-5105.54
-4884.24
-4651.18
-4406.56
-4150.05
-3882.01
-3603.56
-3317.27
-3026.74
-2736.75
-2452.31
-2178.22
-1918.22
-1674.88
-1449.28
-1241.51
-1051.25
-877.05
-720.911
-570.753
-429.695
-338.861
-524.593
-666.172
-826.433
-990.756
-1173.3
-1371.91
-1587.91
-1821.94
-2073.87
-2342.37
-2624.54
-2916.09
-3211.69
-3505.81
-3793.49
-4070.95
-4335.84
-4587.17
-4824.98
-5049.87
-5211.34
-5413.75
-5558.61
-5736.07
-5863.38
-6026.14
-6132.88
-6274.52
-6358.25
-6527.51
-6613.75
-6653.93
-6700.42
-6733.17
-6757.89
-6775.5
-6787.29
-6794.23
-6878.37
-6873.03
-6863.94
-6849.99
-6829.86
-6802.38
-6763.24
-6724.66
-6659.58
-6521
-6445.51
-6323.1
-6234.61
-6091.64
-5981.65
-5824
-5695.95
-5513.72
-5366.49
-5160.36
-4995.56
-4765.82
-4521.29
-4261.5
-3987.15
-3700.41
-3404.98
-3105.92
-2809.05
-2520.07
-2243.79
-1983.48
-1740.77
-1515.9
-1308.18
-1116.37
-942.468
-772.626
-612.328
-510.756
-727.242
-887.882
-1069.95
-1253.44
-1455.29
-1672.65
-1906.68
-2157.94
-2425.96
-2708.77
-3002.73
-3302.7
-3602.8
-3897.11
-4180.68
-4449.94
-4703.04
-4939.62
-5105.79
-5317.34
-5464.51
-5651.55
-5779.28
-5943.07
-6052.17
-6191.38
-6286.1
-6415.47
-6503.4
-6594.76
-6637.28
-6754.07
-6799.85
-6848.59
-6883.28
-6908.75
-6926.57
-6938.52
-6946.06
-6950.54
-7009.24
-7005.18
-6998.21
-6986.89
-6969.5
-6943.9
-6907.34
-6857.64
-6785.8
-6692.02
-6549.57
-6536.82
-6464.5
-6383.16
-6247.6
-6155.15
-6005.26
-5896.56
-5726.03
-5600.94
-5406.92
-5262.09
-5042.84
-4877.88
-4632.51
-4369.9
-4091.54
-3800.65
-3502.02
-3201.38
-2904.65
-2617.07
-2342.57
-2083.45
-1840.48
-1613.36
-1401.12
-1206.86
-1013.79
-831.475
-715.253
-964.715
-1146.81
-1353.31
-1557.68
-1780.28
-2016.77
-2267.9
-2533.66
-2812.92
-3103.12
-3400.23
-3699.06
-3993.89
-4279.29
-4550.89
-4805.84
-4967.41
-5196.17
-5336.8
-5539.71
-5661.05
-5841.44
-5944.83
-6102.5
-6197.1
-6341.65
-6422.94
-6310.63
-6156.15
-6045.87
-5871.33
-5771.03
-5581.96
-5465.2
-5251.64
-5116.08
-4877.54
-4720.7
-4456.92
-4178.6
-3889.6
-3594.86
-3299.75
-3009.22
-2727.28
-2456.61
-2198.63
-1953.69
-1721.35
-1506.36
-1288.47
-1082.96
-947.759
-1230.63
-1434.77
-1665.97
-1890
-2131.04
-2383.02
-2646.1
-2919.69
-3202.11
-3490.75
-3781.69
-4070.4
-4352
-4622.21
-4774.32
-5021.14
-5151.72
-5374.72
-5486.55
-5689.26
-5788.29
-5984.01
-6059.15
-6320.63
-6118.36
-5937.19
-5876
-5673.24
-5587.06
-5376.55
-5270.89
-5041.64
-4913.65
-4661.11
-4512.88
-4239.77
-3958.55
-3673.63
-3388.87
-3108.1
-2833.66
-2567.48
-2310.18
-2061.99
-1829.12
-1587.57
-1359.93
-1204.59
-1517.74
-1742.62
-1996.2
-2235.65
-2489.24
-2750
-3017.16
-3290.59
-3567.75
-3847.05
-4124.47
-4397.29
-4544.24
-4798.16
-4919.56
-5156.15
-5263.4
-5474.09
-5552.95
-5762.31
-5726.07
-6083.8
-6371.58
-6554.34
-6697.13
-6811.38
-6889.61
-6946.08
-6985.83
-7013.12
-7031.26
-7042.88
-7049.94
-7053.95
-7084.87
-7080.73
-7073.32
-7061.08
-7041.9
-7012.81
-6970.09
-6909.03
-6823.43
-6705.18
-6547.45
-6334.24
-6072.34
-5759.62
-5391.1
-5335.15
-5373.33
-5132.78
-5037.2
-4805
-4676.24
-4419.58
-4280.44
-4011.89
-3739.19
-3467.6
-3196.76
-2930.91
-2668.48
-2411.95
-2166.45
-1904.28
-1655.08
-1464.84
-1813.87
-2059.19
-2328.94
-2578.46
-2834.74
-3098.65
-3360.61
-3629.4
-3893.59
-4160.98
-4311.02
-4558.79
-4671.85
-4934.51
-4901.52
-4435.08
-4459.17
-4181.99
-4052.5
-3797.15
-3534.39
-3278.48
-3017.7
-2764.88
-2515.21
-2243.63
-1975.92
-1792.19
-2165.31
-2429.48
-2676.19
-2946.96
-3169.79
-3452.76
-3677.06
-3960.67
-3948.01
-3451.93
-2969.3
-2450.44
-2028.63
-1677.58
-1471.22
-1225.52
-994.722
-769.492
-564.061
-383.347
-231.269
-108.325
-24.0204
15.2695
48.901
69.9896
81.7482
86.2515
85.6063
81.0876
73.7419
64.4546
53.9158
42.5869
30.7949
18.6339
9.95513
16.3563
22.3448
27.6809
31.9607
34.6624
35.1029
32.4603
25.8588
14.3814
-3.87079
-30.5566
-68.7876
-182.783
-133.759
-96.5167
-67.9418
-46.5025
-30.3022
-18.5932
-10.5565
-5.35183
-2.25652
-0.64341
0.0258046
0.1725
-10.489
-17.797
-25.8077
-35.1601
-46.5941
-60.8903
-78.8811
-101.491
-129.589
-163.862
-206.19
-257.944
-322.035
-485.248
-401.374
-331.052
-271.612
-221.776
-179.641
-144.458
-115.206
-90.805
-70.2389
-52.519
-36.6606
-21.7442
-33.3322
-56.0972
-80.0937
-106.565
-136.791
-172.043
-213.57
-262.673
-320.633
-388.397
-467.942
-560.573
-668.736
-866.619
-730.034
-612
-510.045
-422.664
-347.68
-283.81
-229.449
-182.999
-142.915
-107.607
-75.4576
-44.8757
-55.881
-93.9066
-133.841
-177.67
-227.326
-284.757
-351.819
-430.448
-522.665
-630.19
-755.489
-900.321
-1066.92
-1266.46
-1063.67
-889.813
-741.067
-614.201
-505.823
-413.49
-334.738
-267.264
-208.9
-157.336
-110.378
-65.7169
-73.7182
-123.883
-176.676
-234.69
-300.299
-376.151
-464.65
-568.397
-690.123
-832.704
-999.694
-1194.59
-1419.8
-1550.8
-1848.74
-2227.26
-2647.33
-3106.6
-3579.6
-4058.97
-4529.48
-4977.66
-4984.17
-5392.41
-5757.82
-6073.73
-6337.06
-6546.27
-6707.18
-6829.31
-6918.91
-6983.2
-7028.13
-7058.65
-7078.7
-7091.49
-7099.26
-7103.53
-7115.41
-7096.87
-7065.8
-7021.03
-6962.24
-6890.19
-6806.12
-6711.52
-6608.39
-6499.49
-6388.66
-6281.09
-6183.23
-6101.69
-6041.17
-6002.94
-5984.89
-5996.19
-6014.56
-6040
-6071.65
-6107.62
-6145.87
-6184.83
-6220.31
-6251.16
-6273.67
-6285.57
-6285.51
-6273.5
-6250.87
-6219.91
-6184.33
-6145.26
-6106.91
-6070.84
-6039.1
-6013.58
-5995.15
-5955.43
-5889.01
-5792.02
-5658.89
-5484.09
-5262.97
-4990.06
-4654.46
-4273.73
-3843.97
-3383.37
-2905.08
-2423.4
-1953.66
-1510.87
-1108.49
-756.751
-462.153
-226.687
-46.5603
82.6209
170.237
225.203
255.085
266.15
263.417
250.86
231.575
207.92
181.687
154.155
126.214
98.2224
70.3552
77.3768
86.9307
98.484
111.585
125.002
138.09
149.919
159.605
166.425
169.865
169.676
165.889
158.822
149.049
137.395
124.622
111.45
98.9417
87.6629
78.2944
71.3881
66.8855
93.1474
99.6105
109.62
123.264
139.813
158.254
177.962
197.174
214.793
229.515
240.143
245.842
246.148
241.018
230.832
216.344
198.619
178.955
158.854
139.313
122.341
108.409
140.042
158.986
182.146
209.282
236.911
264.455
289.253
309.525
323.767
330.925
330.472
322.462
307.531
286.84
262.017
235.48
207.966
182.679
160.056
141.514
127.922
119.223
144.795
156.137
174
198.393
228.296
261.84
298.771
334.538
368.145
396.244
416.501
427.368
427.997
418.324
399.067
371.669
338.172
301.096
264.072
227.839
197.244
172.325
204.987
237.022
276.488
323.43
371.67
420.152
464.159
500.239
525.631
538.408
537.586
523.245
496.512
459.447
415.337
368.427
320.347
276.885
238.251
206.866
183.926
169.498
192.315
210.425
239.36
279.026
328.063
383.308
444.488
504.643
561.104
608.784
643.212
661.674
662.678
646.138
613.367
566.915
510.46
448.542
387.05
327.607
277.649
237.252
267.87
317.986
380.216
454.071
531.025
608.548
679.532
738.161
779.667
800.701
799.545
776.3
732.901
672.901
602.168
526.504
450.104
380.991
319.668
270.316
234.401
212.004
226.698
254.101
298.089
358.656
434.374
519.69
613.602
707.114
794.09
868.233
921.962
950.707
951.964
925.627
873.915
801.13
713.393
617.967
523.181
432.886
356.423
295.174
316.819
390.7
483.397
591.908
707.23
823.086
930.036
1019.13
1082.67
1115.21
1113.88
1078.83
1013.24
922.884
817.397
703.16
589.53
485.93
393.695
320.362
267.169
234.074
230.962
270.523
334.09
421.806
532.538
656.946
792.716
930.223
1056.52
1165.22
1244.3
1286.51
1287.86
1248.19
1171.11
1063.47
934.804
795.968
657.768
528.596
417.818
329.786
330.054
433.806
564.379
716.34
879.756
1044.09
1196.97
1325.43
1417.79
1465.54
1464.19
1413.92
1319.67
1190.39
1040.91
877.503
717.32
569.911
438.891
335.216
260.142
213.462
176.484
230.971
318.606
439.645
592.5
764.813
951.349
1143
1317.88
1469.91
1581.02
1640.27
1641.62
1584.84
1475.51
1324.04
1144.64
952.552
761.843
585.278
433.386
312.562
270.791
409.865
584.202
786.494
1005.94
1227.51
1435.29
1611.74
1739.62
1806.29
1804.97
1735.9
1606.37
1429.6
1227.48
1005.73
791.456
592.895
417.132
277.628
176.644
113.926
18.3667
89.5219
204.239
362.688
561.528
786.486
1028.84
1281.58
1512.05
1714.99
1864.18
1943.78
1945.06
1867.8
1720.15
1517.29
1280.15
1028.2
779.677
551.702
354.612
196.799
80.4428
256.021
474.538
726.847
1003.2
1285.26
1551.03
1780.55
1948.42
2036.6
2035.41
1945.05
1775.8
1546.42
1287.68
1004.29
734.689
484.6
264.371
88.1217
-39.4364
-118.37
-304.834
-219.603
-81.5106
109.282
347.203
618.022
911.196
1222.31
1506.55
1760.17
1948.1
2048.45
2049.53
1951.13
1764.39
1510.35
1220.01
910.087
610.505
337.77
101.087
-89.0822
-317.378
-117.479
131.277
415.876
725.266
1052.17
1357.71
1628.84
1829.75
1935.76
1934.91
1827.38
1625.79
1355.86
1054.84
729.433
423.586
139.956
-109.61
-310.104
-455.32
-544.825
-840.601
-750.43
-604.136
-402.087
-150.453
135.619
441.526
778.151
1074.26
1351.68
1561.65
1673.72
1674.38
1563.42
1353.78
1074.98
775.935
437.854
129.277
-157.731
-409.106
-610.762
-967.297
-772.244
-529.211
-251.99
42.3125
365.86
653.29
910.445
1117.94
1226.54
1226.14
1116.96
909.575
653.765
368.609
46.6861
-246.077
-522.854
-766.003
-961.32
-1102.76
-1189.96
-1586.22
-1505.79
-1375.4
-1195.53
-971.747
-717.007
-448.02
-154.881
107.801
342.081
537.537
640.237
640.488
538.014
342.194
106.618
-157.913
-452.377
-722.444
-977.348
-1201.04
-1380.68
-1839.48
-1682.13
-1486.17
-1262.64
-1023.9
-761.834
-518.897
-302.635
-122.095
-27.2595
-27.2983
-122.142
-302.233
-517.515
-758.895
-1020.03
-1257.84
-1481.32
-1677.37
-1834.88
-1949.22
-2019.79
-2478.25
-2419.65
-2324.67
-2193.98
-2031.15
-1845.04
-1644.12
-1421.1
-1207.2
-1015.17
-857.576
-774.332
-774.31
-857.624
-1015.63
-1208.44
-1423.66
-1647.21
-1849.1
-2035.24
-2198
-2328.54
-2831.02
-2729.04
-2601.52
-2454.95
-2292.24
-2110.21
-1927.59
-1763.22
-1633.41
-1564.72
-1564.66
-1633.18
-1762.67
-1926.6
-2108.27
-2290.1
-2451.8
-2598.28
-2725.8
-2827.86
-2902
-2947.75
-3414.09
-3380.95
-3327.35
-3253.23
-3159.84
-3051.61
-2928
-2787.29
-2640.21
-2507.58
-2408.86
-2356.7
-2356.74
-2409.06
-2508.03
-2640.9
-2788.66
-2929.36
-3053.92
-3162.31
-3255.73
-3329.81
-3809.09
-3760.13
-3697.34
-3623.11
-3532.83
-3430.14
-3316.37
-3215.28
-3146.68
-3110.77
-3110.67
-3146.41
-3214.79
-3315.79
-3429.15
-3531.99
-3621.52
-3695.57
-3758.3
-3807.27
-3842.16
-3863.85
-4284.8
-4272.52
-4253.14
-4225.16
-4188.09
-4142.72
-4081.54
-4011.09
-3927.82
-3856.16
-3814.87
-3793.84
-3793.95
-3815.14
-3856.63
-3928.36
-4011.85
-4082.23
-4143.82
-4189.32
-4226.42
-4254.37
-4646.97
-4635.29
-4618.33
-4595.79
-4557.98
-4516.34
-4459.86
-4413.76
-4394.24
-4384.87
-4384.76
-4393.95
-4413.32
-4459.32
-4515.69
-4557.32
-4595.02
-4617.52
-4634.49
-4646.21
-4653.74
-4658.36
-4988.78
-4989.77
-4990.98
-4991.42
-4989.54
-4983.76
-4964.69
-4941.27
-4906.17
-4879.91
-4876.27
-4875.48
-4875.57
-4876.54
-4880.31
-4906.66
-4941.85
-4965.23
-4984.27
-4990.01
-4991.84
-4991.32
-5270.17
-5279.12
-5288.14
-5295.14
-5292.17
-5286.07
-5269.72
-5259.01
-5265.82
-5270.32
-5270.25
-5265.62
-5258.72
-5269.37
-5285.7
-5291.84
-5294.89
-5287.96
-5279.02
-5270.17
-5263.03
-5258.72
-5477.53
-5484.43
-5496.03
-5511.05
-5527.95
-5544.43
-5554.08
-5560.97
-5559.41
-5560.44
-5573.77
-5581.49
-5581.52
-5573.88
-5560.61
-5559.6
-5561.14
-5554.19
-5544.44
-5527.87
-5510.87
-5495.75
-5673.68
-5693.15
-5715.97
-5739.85
-5760.42
-5778.18
-5788.12
-5798.23
-5815.57
-5825.01
-5825.01
-5815.56
-5798.21
-5788.1
-5778.21
-5760.53
-5740.05
-5716.27
-5693.56
-5674.18
-5659.45
-5650.72
-5782.73
-5792.76
-5809.49
-5831.73
-5858.38
-5887.24
-5916.2
-5941.14
-5965.02
-5984.29
-6004.96
-6015.87
-6015.85
-6004.9
-5984.2
-5964.88
-5940.94
-5915.91
-5886.84
-5857.89
-5831.13
-5808.8
-5906.92
-5931.04
-5960.43
-5993.13
-6026.62
-6061.17
-6088.35
-6116.09
-6137.61
-6149.31
-6149.35
-6137.73
-6116.27
-6088.61
-6061.51
-6027.05
-5993.67
-5961.08
-5931.79
-5907.75
-5889.89
-5879.01
-5945.16
-5956.41
-5974.74
-5999.79
-6030.72
-6065.7
-6102.81
-6141.17
-6177.59
-6208.57
-6231.42
-6243.51
-6243.46
-6231.27
-6208.32
-6177.25
-6140.73
-6102.27
-6065.05
-6029.98
-5998.94
-5973.81
-5995.11
-6021.83
-6054.64
-6091.85
-6131.81
-6174.73
-6220.05
-6256.64
-6282.96
-6296.88
-6296.94
-6283.11
-6256.9
-6220.41
-6175.18
-6132.37
-6092.52
-6055.42
-6022.71
-5996.08
-5976.65
-5964.4
-5899.75
-5805.36
-5675.97
-5506.28
-5291.78
-5027.91
-4697.31
-4327.04
-3901.32
-3447.31
-2976
-2501.17
-2037.26
-1598.31
-1197.23
-843.9
-544.87
-302.612
-117.115
17.2488
110.786
171.768
207.636
224.584
227.506
220.293
205.966
186.844
164.685
140.738
115.884
90.5199
64.9413
39.0926
36.6753
60.9821
65.4823
69.3989
41.6728
39.2795
35.2496
32.7156
54.2833
44.8088
27.0448
29.4637
48.9313
58.6301
65.6172
72.6994
76.4459
45.8137
43.5159
49.0393
51.2996
85.8771
82.1896
74.6849
44.6596
39.3733
33.421
55.6778
64.389
38.5035
30.4664
25.7042
21.9768
19.7177
32.6153
18.0896
10.9941
13.1055
21.7317
36.4759
42.8544
27.7863
16.6235
21.13
35.5595
51.0406
60.1377
74.2816
85.0548
93.2791
97.1013
57.8125
55.4735
62.428
64.9621
109.373
105.154
95.5551
57.0018
50.7115
44.299
50.2876
84.1095
92.5156
106.071
117.691
122.281
72.4637
69.7441
77.0298
79.7608
134.739
129.981
115.384
69.4777
63.3286
55.8544
62.61
100.609
81.4377
75.016
68.7694
41.1462
35.8362
26.2128
44.2278
52.3454
31.1964
20.4884
15.6884
10.7798
6.4583
3.14638
1.1453
1.68042
-16.2071
-9.55177
-7.67056
-12.8911
5.16253
10.9136
-7.42518
-4.53574
-0.400184
-0.279184
18.3687
26.7573
7.91353
4.38912
9.10376
15.7034
34.6405
41.0331
58.3456
35.3634
45.5576
51.262
40.8898
64.9997
48.1136
30.221
24.7837
13.7306
22.9453
30.7445
19.2027
23.3947
34.006
44.4849
54.9536
67.3454
75.0024
83.5193
86.373
146.155
141.112
150.686
155.834
91.9599
89.0659
80.0346
133.154
124.652
107.086
114.859
72.3237
75.8746
83.683
93.0826
96.0047
162.848
157.631
161.373
166.617
98.1743
95.2397
85.6571
142.712
139.345
120.454
123.554
77.8221
64.2156
62.4743
59.3171
92.6509
86.0576
69.5609
75.9954
48.7335
38.2485
59.6167
53.1639
36.6841
43.3096
27.7219
30.8908
41.3713
51.832
80.7254
97.4711
100.169
83.3835
53.5559
43.102
67.0584
64.3923
48.191
50.9101
32.6525
21.605
19.8473
16.6438
12.2712
7.59516
2.10817
-2.9461
-7.60516
-12.2541
-16.2072
-19.1269
-20.8892
-35.1728
-54.71
-32.5387
-30.9326
-51.8114
-32.0409
-26.9104
-47.0651
-28.2475
-24.5397
-40.6899
-20.1027
-12.1366
-33.0351
-20.0676
-15.5265
-25.471
-4.41331
3.8304
-16.2513
-10.0707
-4.6621
-6.93923
12.4317
19.4104
1.05502
0.448165
4.78428
7.83718
26.1859
31.1442
12.7689
7.9433
9.65855
15.4466
33.8837
60.5937
55.48
46.2181
33.5759
20.0436
5.43575
-5.22284
-16.1945
-28.0148
-38.0317
-45.686
-50.3483
-23.4823
1.78817
24.8775
45.2389
62.3108
75.5992
85.054
108.9
117.921
124.749
97.0342
91.673
81.9344
105.315
96.6997
79.5487
87.7386
68.3186
78.1581
92.0934
102.148
107.258
138.632
132.161
151.085
157.352
121.019
116.026
105.36
137.276
119.152
101.226
118.824
90.9851
72.3012
60.2463
50.8815
65.2686
57.5231
31.1427
38.5841
30.2539
6.94693
8.27528
1.09825
-31.9738
-25.074
-18.5221
-10.4057
15.4948
39.1863
50.9724
78.1937
94.8663
66.96
50.6862
26.5273
35.5729
20.1866
-13.7308
1.02423
0.178515
12.4156
39.1328
63.6913
85.9335
105.822
120.764
132.43
137.506
179.926
173.737
197.927
204.705
155.615
150.084
136.406
179.84
158.769
139.88
159.175
120.757
132.132
152.418
169.397
175.027
232.05
226.164
253.881
258.301
194.053
189.374
168.577
230.489
204.989
179.106
191.352
147.976
170.246
198.074
221.062
230.453
197.85
173.617
209.328
242.198
231.385
232.554
203.219
177.043
148.363
124.917
107.05
96.2875
117.302
132.2
154.593
169.558
179.39
152.297
143.965
128.567
151.468
137.059
112.157
126.038
149.223
175.052
193.579
202.793
170.533
162.67
187.625
195.167
234.49
225.73
206.258
170.885
146.826
200.002
217.799
225.068
273.189
264.941
307.094
315.974
258.006
250.116
228.844
282.902
244.63
217.974
179.76
212.585
173.765
144.189
126.528
155.273
175.323
193.229
216.533
228.784
205.279
194.104
173.501
193.742
170.914
138.447
160.679
174.47
146.733
182.558
206.712
213.592
248.524
261.368
248.242
235.394
210.974
223.428
188.354
149.874
184.264
242.658
281.568
305.166
315.897
293.213
265.446
234.793
224.415
254.269
304.846
315.299
274.857
265.075
243.161
203.466
231.339
197.869
245.866
280.941
319.112
257.832
281.85
343.982