/*--------------------------------*- C++ -*----------------------------------*\
| =========                 |                                                 |
| \\      /  F ield         | OpenFOAM: The Open Source CFD Toolbox           |
|  \\    /   O peration     | Version:  2412                                  |
|   \\  /    A nd           | Website:  www.openfoam.com                      |
|    \\/     M anipulation  |                                                 |
\*---------------------------------------------------------------------------*/
FoamFile
{
    version     2.0;
    format      ascii;
    arch        "LSB;label=32;scalar=64";
    class       volScalarField;
    location    "1.17";
    object      alpha.water;
}
// * * * * * * * * * * * * * * * * * * * * * * * * * * * * * * * * * * * * * //

dimensions      [0 0 0 0 0 0 0];

internalField   nonuniform List<scalar> 
40000
(
3.55101e-188
4.91026e-179
3.57319e-178
4.41218e-178
4.39957e-178
4.1503e-178
3.78914e-178
3.37239e-178
2.93369e-178
2.49677e-178
2.07849e-178
1.69122e-178
1.34386e-178
1.04169e-178
7.86766e-179
5.78273e-179
4.13064e-179
2.86397e-179
1.92532e-179
1.25333e-179
7.89087e-180
4.79893e-180
2.8151e-180
1.58926e-180
8.60307e-181
4.44052e-181
2.17058e-181
9.959e-182
4.25287e-182
1.67935e-182
6.1114e-183
2.0506e-183
6.37602e-184
1.84621e-184
4.95153e-185
1.20285e-185
2.57805e-186
4.80441e-187
7.80113e-188
1.11432e-188
1.39591e-189
1.50902e-190
1.38868e-191
1.08232e-192
7.13753e-194
3.98291e-195
1.88156e-196
7.53117e-198
2.55571e-199
7.34757e-201
1.78193e-202
3.60086e-204
5.87311e-206
7.07363e-208
8.41152e-210
9.86262e-212
1.13927e-213
1.29559e-215
1.44953e-217
1.59443e-219
1.72307e-221
1.8281e-223
1.90269e-225
1.94114e-227
1.93951e-229
1.89618e-231
1.81218e-233
1.69126e-235
1.53968e-237
1.36569e-239
1.17881e-241
9.88851e-244
8.05011e-246
6.35048e-248
4.84673e-250
3.57259e-252
2.53869e-254
1.73565e-256
1.13923e-258
7.16221e-261
4.30194e-263
2.46185e-265
1.33817e-267
6.88577e-270
3.34158e-272
1.52295e-274
6.48764e-277
2.56925e-279
9.40012e-282
3.15433e-284
9.62465e-287
2.64281e-289
6.4478e-292
1.37544e-294
2.51221e-297
3.81834e-300
4.63469e-303
4.21033e-306
2.54367e-309
7.66274e-313
1.01658e-312
3.3528e-309
5.5139e-306
6.03148e-303
4.93869e-300
3.23e-297
1.75823e-294
8.1961e-292
3.34118e-289
1.21041e-286
3.94679e-284
1.1704e-281
3.18378e-279
8.00263e-277
1.8703e-274
4.08629e-272
8.3859e-270
1.6233e-267
2.97509e-265
5.1799e-263
8.59376e-261
1.36235e-258
2.06888e-256
3.01671e-254
4.23262e-252
5.72563e-250
7.48122e-248
9.458e-246
1.15877e-243
1.37787e-241
1.59239e-239
1.79095e-237
1.96267e-235
2.09819e-233
2.19054e-231
2.23568e-229
2.23275e-227
2.18391e-225
2.09394e-223
1.9696e-221
1.81888e-219
1.65027e-217
1.47207e-215
1.29187e-213
1.11615e-211
9.50089e-210
7.97599e-208
6.61516e-206
4.04637e-204
1.99498e-202
8.1856e-201
2.83001e-199
8.28079e-198
2.05264e-196
4.30872e-195
7.65513e-194
1.15097e-192
1.46471e-191
1.57934e-190
1.45073e-189
1.15122e-188
8.01877e-188
4.91492e-187
2.62511e-186
1.21981e-185
5.00502e-185
1.86143e-184
6.41626e-184
2.06e-183
6.12951e-183
1.68185e-182
4.25382e-182
9.95027e-182
2.16661e-181
4.42862e-181
8.57312e-181
1.58261e-180
2.80189e-180
4.77491e-180
7.85011e-180
1.24682e-179
1.91538e-179
2.84924e-179
4.10926e-179
5.75246e-179
7.82596e-179
1.03623e-178
1.3371e-178
1.68333e-178
2.07005e-178
2.48891e-178
2.92855e-178
3.37505e-178
3.81264e-178
4.22451e-178
4.58438e-178
4.77511e-178
3.98008e-178
5.05424e-179
2.53968e-188
1.27076e-184
1.15888e-175
7.83208e-175
9.35061e-175
9.17849e-175
8.62453e-175
7.89496e-175
7.06525e-175
6.18861e-175
5.30732e-175
4.4549e-175
3.65756e-175
2.93473e-175
2.29888e-175
1.75612e-175
1.30666e-175
9.45755e-176
6.65111e-176
4.53993e-176
3.00404e-176
1.92466e-176
1.19257e-176
7.13677e-177
4.11583e-177
2.2792e-177
1.20524e-177
6.04523e-178
2.85095e-178
1.25376e-178
5.10867e-179
1.92245e-179
6.68442e-180
2.15868e-180
6.50828e-181
1.8223e-181
4.63326e-182
1.04201e-182
2.04322e-183
3.50193e-184
5.30038e-185
7.06258e-186
8.14822e-187
8.02929e-188
6.72752e-189
4.79212e-190
2.90474e-191
1.50098e-192
6.63146e-194
2.51518e-195
8.228e-197
2.33272e-198
5.75565e-200
1.23929e-201
2.32841e-203
4.23039e-205
7.54859e-207
1.32242e-208
2.27366e-210
3.83482e-212
6.34185e-214
1.0278e-215
1.63144e-217
2.53468e-219
3.85182e-221
5.72103e-223
8.29841e-225
1.17449e-226
1.62042e-228
2.17717e-230
2.84558e-232
3.61377e-234
4.45365e-236
5.31936e-238
6.14842e-240
6.86686e-242
7.3981e-244
7.67485e-246
7.65178e-248
7.31617e-250
6.69327e-252
5.84441e-254
4.85733e-256
3.83087e-258
2.8575e-260
2.00838e-262
1.32451e-264
8.15766e-267
4.66689e-269
2.46457e-271
1.19275e-273
5.24471e-276
2.07375e-278
7.27993e-281
2.23284e-283
5.85941e-286
1.27863e-288
2.22673e-291
2.9004e-294
2.51107e-297
1.0838e-300
1.35811e-300
3.14183e-297
3.6196e-294
2.77092e-291
1.58639e-288
7.24792e-286
2.75367e-283
8.95136e-281
2.54238e-278
6.41129e-276
1.45391e-273
2.9958e-271
5.65729e-269
9.86233e-267
1.59709e-264
2.41548e-262
3.42811e-260
4.5846e-258
5.79913e-256
6.96133e-254
7.95429e-252
8.67523e-250
9.05351e-248
9.06158e-246
8.71675e-244
8.07443e-242
7.2153e-240
6.23022e-238
5.2063e-236
4.21652e-234
3.31405e-232
2.53096e-230
1.88033e-228
1.36044e-226
9.59523e-225
6.60346e-223
4.43819e-221
2.91548e-219
1.8733e-217
1.17814e-215
7.25702e-214
4.38063e-212
2.59277e-210
1.50537e-208
8.57758e-207
4.79831e-205
2.63607e-203
1.4009e-201
6.48908e-200
2.62003e-198
9.19564e-197
2.79385e-195
7.31354e-194
1.64208e-192
3.15047e-191
5.15154e-190
7.16882e-189
8.48395e-188
8.54101e-187
7.34937e-186
5.48189e-185
3.60311e-184
2.09208e-183
1.06194e-182
4.70266e-182
1.84364e-181
6.56799e-181
2.17437e-180
6.72154e-180
1.93002e-179
5.12123e-179
1.25523e-178
2.85123e-178
6.04058e-178
1.20343e-177
2.2743e-177
4.10476e-177
7.11482e-177
1.18863e-176
1.91808e-176
2.99381e-176
4.52483e-176
6.62992e-176
9.42903e-176
1.303e-175
1.75175e-175
2.29423e-175
2.93075e-175
3.65595e-175
4.45858e-175
5.32095e-175
6.2198e-175
7.12746e-175
8.01318e-175
8.84476e-175
9.57323e-175
9.96802e-175
8.37243e-175
1.12657e-175
9.2104e-185
1.65133e-181
9.88295e-173
6.40847e-172
7.52814e-172
7.32076e-172
6.85939e-172
6.28862e-172
5.65037e-172
4.97682e-172
4.29644e-172
3.63361e-172
3.00838e-172
2.43625e-172
1.92779e-172
1.48893e-172
1.12112e-172
8.21969e-173
5.86114e-173
4.06061e-173
2.72997e-173
1.77905e-173
1.12253e-173
6.84878e-174
4.03201e-174
2.28231e-174
1.23536e-174
6.35194e-175
3.07571e-175
1.39126e-175
5.84212e-176
2.27003e-176
8.16575e-177
2.73393e-177
8.56518e-178
2.49772e-178
6.62543e-179
1.55687e-179
3.19499e-180
5.74476e-181
9.15166e-182
1.28669e-182
1.56755e-183
1.63118e-184
1.44379e-185
1.08696e-186
6.96489e-188
3.80398e-189
1.77603e-190
7.11951e-192
2.46392e-193
7.40724e-195
1.94688e-196
4.50235e-198
9.21642e-200
1.81452e-201
3.50281e-203
6.62886e-205
1.22944e-206
2.23398e-208
3.97539e-210
6.92494e-212
1.18023e-213
1.9669e-215
3.20323e-217
5.09429e-219
7.90569e-221
1.19618e-222
1.76304e-224
2.52882e-226
3.52621e-228
4.77466e-230
6.27036e-232
7.9761e-234
9.81351e-236
1.16609e-237
1.33599e-239
1.47321e-241
1.56058e-243
1.58474e-245
1.53919e-247
1.42629e-249
1.25755e-251
1.05181e-253
8.3175e-256
6.19555e-258
4.32899e-260
2.82398e-262
1.71067e-264
9.5632e-267
4.89802e-269
2.2787e-271
9.5304e-274
3.53806e-276
1.14731e-278
3.18248e-281
7.33931e-284
1.35049e-286
1.85836e-289
1.69956e-292
7.74994e-296
9.64816e-296
2.11669e-292
2.31124e-289
1.67633e-286
9.09012e-284
3.93254e-281
1.41434e-278
4.35103e-276
1.1692e-273
2.78879e-271
5.9801e-269
1.16483e-266
2.07877e-264
3.4237e-262
5.23637e-260
7.47739e-258
1.00163e-255
1.26389e-253
1.50791e-251
1.70668e-249
1.838e-247
1.88859e-245
1.85614e-243
1.74884e-241
1.58292e-239
1.37904e-237
1.15843e-235
9.39828e-234
7.37519e-232
5.60602e-230
4.13295e-228
2.95881e-226
2.05928e-224
1.39478e-222
9.20265e-221
5.92002e-219
3.71616e-217
2.27802e-215
1.36462e-213
7.99334e-212
4.58096e-210
2.56989e-208
1.41187e-206
7.59916e-205
4.00837e-203
2.07261e-201
1.05076e-199
5.12408e-198
2.20938e-196
8.37178e-195
2.76996e-193
7.95144e-192
1.96833e-190
4.17957e-189
7.58195e-188
1.17207e-186
1.54236e-185
1.72706e-184
1.64581e-183
1.34066e-182
9.47496e-182
5.91614e-181
3.27411e-180
1.58783e-179
6.72935e-179
2.52867e-178
8.64942e-178
2.75563e-177
8.21666e-177
2.28053e-176
5.86048e-176
1.39384e-175
3.07816e-175
6.3517e-175
1.23449e-174
2.27941e-174
4.02506e-174
6.8348e-174
1.12003e-173
1.77495e-173
2.72373e-173
4.05176e-173
5.84953e-173
8.20571e-173
1.11962e-172
1.48765e-172
1.92738e-172
2.4378e-172
3.01365e-172
3.64527e-172
4.31852e-172
5.0154e-172
5.71482e-172
6.39401e-172
7.02932e-172
7.58462e-172
7.885e-172
6.65312e-172
9.40529e-173
1.25128e-181
1.24827e-178
4.80515e-170
3.01612e-169
3.51762e-169
3.40586e-169
3.18802e-169
2.92778e-169
2.6404e-169
2.33761e-169
2.0307e-169
1.7299e-169
1.444e-169
1.18007e-169
9.43176e-170
7.36471e-170
5.6117e-170
4.16747e-170
3.01303e-170
2.11864e-170
1.44717e-170
9.59185e-171
6.16231e-171
3.83267e-171
2.30297e-171
1.33226e-171
7.37996e-172
3.88927e-172
1.93341e-172
8.99556e-173
3.89316e-173
1.56223e-173
5.8145e-174
2.01822e-174
6.56924e-175
1.99458e-175
5.51785e-176
1.35432e-176
2.90795e-177
5.48346e-178
9.19062e-179
1.36258e-179
1.75101e-180
1.92105e-181
1.79256e-182
1.42255e-183
9.60075e-185
5.51432e-186
2.70179e-187
1.13384e-188
4.0977e-190
1.2833e-191
3.50619e-193
8.41471e-195
1.78605e-196
3.6287e-198
7.22115e-200
1.40734e-201
2.68562e-203
5.01671e-205
9.1702e-207
1.63965e-208
2.86638e-210
4.89664e-212
8.16934e-214
1.33019e-215
2.11233e-217
3.26879e-219
4.92506e-221
7.21812e-223
1.02797e-224
1.42103e-226
1.90445e-228
2.47128e-230
3.10066e-232
3.75591e-234
4.38529e-236
4.92653e-238
5.31512e-240
5.4956e-242
5.43332e-244
5.12375e-246
4.59625e-248
3.91031e-250
3.14461e-252
2.38155e-254
1.69155e-256
1.12148e-258
6.90311e-261
3.92058e-263
2.03967e-265
9.63713e-268
4.0928e-270
1.54261e-272
5.07794e-275
1.42964e-277
3.3459e-280
6.24726e-283
8.72203e-286
8.09236e-289
3.74359e-292
4.69699e-292
1.01634e-288
1.09424e-285
7.82412e-283
4.18197e-280
1.783e-277
6.3187e-275
1.91511e-272
5.06926e-270
1.19085e-267
2.51452e-265
4.82212e-263
8.47096e-261
1.37306e-258
2.06636e-256
2.9028e-254
3.82448e-252
4.74548e-250
5.56609e-248
6.19194e-246
6.55256e-244
6.61427e-242
6.38433e-240
5.90598e-238
5.24701e-236
4.48541e-234
3.69596e-232
2.94029e-230
2.26175e-228
1.68457e-226
1.21643e-224
8.52624e-223
5.80732e-221
3.84756e-219
2.48198e-217
1.56022e-215
9.56531e-214
5.72332e-212
3.34441e-210
1.90971e-208
1.06616e-206
5.82211e-205
3.1111e-203
1.62729e-201
8.33387e-200
4.17971e-198
2.05314e-196
9.65383e-195
4.00965e-193
1.46097e-191
4.6377e-190
1.27404e-188
3.01036e-187
6.08652e-186
1.0491e-184
1.53863e-183
1.91958e-182
2.03786e-181
1.84117e-180
1.42133e-179
9.52372e-179
5.65134e-178
2.98197e-177
1.38206e-176
5.60734e-176
2.02028e-175
6.63689e-175
2.03517e-174
5.85346e-174
1.57019e-173
3.90724e-173
9.01654e-173
1.93588e-172
3.89105e-172
7.37865e-172
1.33132e-171
2.30039e-171
3.82728e-171
6.15263e-171
9.57607e-171
1.44481e-170
2.11545e-170
3.00914e-170
4.16342e-170
5.60856e-170
7.36449e-170
9.43801e-170
1.18189e-169
1.44784e-169
1.73695e-169
2.04264e-169
2.35682e-169
2.6702e-169
2.97291e-169
3.2549e-169
3.50056e-169
3.63229e-169
3.07601e-169
4.55401e-170
9.8716e-179
6.52725e-176
1.58467e-167
9.63253e-167
1.11988e-166
1.08305e-166
1.01437e-166
9.33766e-167
8.45386e-167
7.52288e-167
6.57588e-167
5.64234e-167
4.74845e-167
3.91604e-167
3.16153e-167
2.49596e-167
1.92474e-167
1.44799e-167
1.06156e-167
7.57674e-168
5.25859e-168
3.5451e-168
2.31905e-168
1.47028e-168
9.01677e-169
5.33058e-169
3.02185e-169
1.63231e-169
8.33179e-170
3.9886e-170
1.77998e-170
7.38051e-171
2.84379e-171
1.02375e-171
3.46288e-172
1.09488e-172
3.15969e-173
8.10513e-174
1.82241e-174
3.60736e-175
6.36715e-176
9.96315e-177
1.35177e-177
1.56525e-178
1.54176e-179
1.29163e-180
9.19516e-182
5.5616e-183
2.86283e-184
1.25873e-185
4.75164e-187
1.54949e-188
4.39408e-190
1.09114e-191
2.3891e-193
4.98477e-195
1.01771e-196
2.03301e-198
3.97314e-200
7.59472e-202
1.41955e-203
2.59357e-205
4.62991e-207
8.07163e-209
1.37348e-210
2.27974e-212
3.68847e-214
5.81264e-216
8.91456e-218
1.32931e-219
1.92539e-221
2.70587e-223
3.68536e-225
4.85831e-227
6.19051e-229
7.61305e-231
9.02158e-233
1.02835e-234
1.12541e-236
1.18003e-238
1.18282e-240
1.13061e-242
1.02779e-244
8.85907e-247
7.21658e-249
5.5351e-251
3.98076e-253
2.67184e-255
1.66466e-257
9.56793e-260
5.03668e-262
2.40757e-264
1.03427e-266
3.94263e-269
1.31242e-271
3.73603e-274
8.83965e-277
1.66839e-279
2.35427e-282
2.20748e-285
1.03194e-288
1.31102e-288
2.80754e-285
2.99109e-282
2.11603e-279
1.11887e-276
4.71851e-274
1.65378e-271
4.95651e-269
1.29717e-266
3.01239e-264
6.28706e-262
1.1915e-259
2.06815e-257
3.31175e-255
4.9228e-253
6.8294e-251
8.88406e-249
1.08819e-246
1.2597e-244
1.38274e-242
1.44351e-240
1.43709e-238
1.36773e-236
1.24722e-234
1.09197e-232
9.19656e-231
7.46347e-229
5.84597e-227
4.42605e-225
3.24352e-223
2.3036e-221
1.58744e-219
1.06257e-217
6.91545e-216
4.3801e-214
2.70217e-212
1.62495e-210
9.53155e-209
5.45703e-207
3.05111e-205
1.66678e-203
8.90011e-202
4.64687e-200
2.37298e-198
1.18545e-196
5.79412e-195
2.77097e-193
1.2627e-191
5.06669e-190
1.7777e-188
5.41599e-187
1.42332e-185
3.2073e-184
6.16701e-183
1.00855e-181
1.40115e-180
1.65478e-179
1.66335e-178
1.42328e-177
1.0403e-176
6.60288e-176
3.72013e-175
1.86981e-174
8.27499e-174
3.21224e-173
1.1094e-172
3.4997e-172
1.03268e-171
2.86376e-171
7.42053e-171
1.787e-170
3.99923e-170
8.34523e-170
1.63362e-169
3.02238e-169
5.32878e-169
9.01008e-169
1.46879e-168
2.31632e-168
3.54064e-168
5.25202e-168
7.56814e-168
1.06058e-167
1.44712e-167
1.92437e-167
2.49679e-167
3.16469e-167
3.92321e-167
4.76201e-167
5.6656e-167
6.61323e-167
7.58011e-167
8.53848e-167
9.45924e-167
1.03132e-166
1.10545e-166
1.1447e-166
9.72489e-167
1.50539e-167
5.34201e-176
2.56285e-173
3.85829e-165
2.2679e-164
2.6323e-164
2.54728e-164
2.38993e-164
2.20661e-164
2.00615e-164
1.79469e-164
1.5787e-164
1.36449e-164
1.15783e-164
9.63699e-165
7.85971e-165
6.27453e-165
4.89746e-165
3.73291e-165
2.77547e-165
2.01105e-165
1.41837e-165
9.72672e-166
6.47904e-166
4.18739e-166
2.62089e-166
1.58338e-166
9.18584e-167
5.08627e-167
2.66631e-167
1.31389e-167
6.04991e-168
2.59401e-168
1.03545e-168
3.86809e-169
1.36007e-169
4.47888e-170
1.34889e-170
3.61919e-171
8.53147e-172
1.77491e-172
3.30289e-173
5.461e-174
7.83296e-175
9.58773e-176
9.98813e-177
8.85308e-178
6.66403e-179
4.25499e-180
2.30684e-181
1.06533e-182
4.2112e-184
1.43339e-185
4.22877e-187
1.08878e-188
2.46349e-190
5.28762e-192
1.10937e-193
2.27514e-195
4.56059e-197
8.93407e-199
1.71e-200
3.1969e-202
5.83565e-204
1.03964e-205
1.80669e-207
3.06082e-209
5.05194e-211
8.11752e-213
1.26876e-214
1.92726e-216
2.84238e-218
4.06577e-220
5.63407e-222
7.55401e-224
9.78632e-226
1.22324e-227
1.47285e-229
1.70535e-231
1.8952e-233
2.01744e-235
2.05245e-237
1.99072e-239
1.83586e-241
1.60499e-243
1.32577e-245
1.03092e-247
7.51531e-250
5.11198e-252
3.22719e-254
1.87915e-256
1.00198e-258
4.8506e-261
2.11001e-263
8.14344e-266
2.7441e-268
7.90646e-271
1.89318e-273
3.61561e-276
5.16193e-279
4.89633e-282
2.31523e-285
2.98451e-285
6.31836e-282
6.65377e-279
4.65228e-276
2.43093e-273
1.01294e-270
3.50741e-268
1.03837e-265
2.68396e-263
6.15499e-261
1.26833e-258
2.37288e-256
4.06524e-254
6.42403e-252
9.42171e-250
1.28939e-247
1.65429e-245
1.99808e-243
2.2803e-241
2.46707e-239
2.53792e-237
2.48915e-235
2.33327e-233
2.09503e-231
1.80558e-229
1.49644e-227
1.19472e-225
9.20308e-224
6.85005e-222
4.93329e-220
3.44193e-218
2.32912e-216
1.53025e-214
9.77104e-213
6.0689e-211
3.66962e-209
2.1617e-207
1.24142e-205
6.9541e-204
3.8018e-202
2.02933e-200
1.05801e-198
5.38926e-197
2.68265e-195
1.30514e-193
6.20633e-192
2.88463e-190
1.27164e-188
4.91906e-187
1.65799e-185
4.83573e-184
1.21255e-182
2.59895e-181
4.74019e-180
7.3366e-179
9.63153e-178
1.07437e-176
1.02054e-175
8.25744e-175
5.70707e-174
3.42742e-173
1.83136e-172
8.75725e-172
3.69639e-171
1.37176e-170
4.53959e-170
1.37488e-169
3.90274e-169
1.04296e-168
2.60866e-168
6.07519e-168
1.3177e-167
2.67124e-167
5.09158e-167
9.18966e-167
1.58323e-166
2.61957e-166
4.18414e-166
6.47291e-166
9.71661e-166
1.41689e-165
2.00915e-165
2.77341e-165
3.73126e-165
4.89719e-165
6.2772e-165
7.86785e-165
9.65411e-165
1.16093e-164
1.36962e-164
1.58666e-164
1.80648e-164
2.02297e-164
2.22981e-164
2.42082e-164
2.58597e-164
2.67207e-164
2.27658e-164
3.68064e-165
2.15392e-173
7.91142e-171
7.27008e-163
4.12677e-162
4.78454e-162
4.63726e-162
4.36168e-162
4.04118e-162
3.69065e-162
3.31985e-162
2.93927e-162
2.5594e-162
2.19009e-162
1.84001e-162
1.51625e-162
1.22421e-162
9.67351e-163
7.47178e-163
5.63521e-163
4.14594e-163
2.97193e-163
2.07341e-163
1.40646e-163
9.26651e-164
5.91938e-164
3.65444e-164
2.16967e-164
1.2316e-164
6.63238e-165
3.36596e-165
1.60036e-165
7.10176e-166
2.93916e-166
1.14003e-166
4.16808e-167
1.42991e-167
4.49603e-168
1.263e-168
3.12557e-169
6.84347e-170
1.34419e-170
2.35106e-171
3.57011e-172
4.62742e-173
5.1092e-174
4.80281e-175
3.83239e-176
2.59006e-177
1.48303e-178
7.21418e-180
2.99496e-181
1.06719e-182
3.28504e-184
8.79491e-186
2.06216e-187
4.56494e-189
9.86633e-191
2.08222e-192
4.29089e-194
8.6335e-196
1.69579e-197
3.25087e-199
6.08039e-201
1.10916e-202
1.97234e-204
3.41711e-206
5.76437e-208
9.46141e-210
1.50984e-211
2.34047e-213
3.52094e-215
5.13511e-217
7.25246e-219
9.90675e-221
1.3071e-222
1.66335e-224
2.03835e-226
2.40129e-228
2.7144e-230
2.93821e-232
3.03883e-234
2.9956e-236
2.80706e-238
2.49298e-240
2.09149e-242
1.65145e-244
1.22221e-246
8.43853e-249
5.40628e-251
3.19414e-253
1.72781e-255
8.48408e-258
3.74279e-260
1.46471e-262
5.00395e-265
1.4615e-267
3.54692e-270
6.86472e-273
9.93063e-276
9.54334e-279
4.57121e-282
5.98939e-282
1.2516e-278
1.30085e-275
8.97566e-273
4.62759e-270
1.90235e-267
6.49755e-265
1.89719e-262
4.83575e-260
1.09339e-257
2.22111e-255
4.09573e-253
6.91484e-251
1.07663e-248
1.55549e-246
2.0966e-244
2.6488e-242
3.14966e-240
3.53801e-238
3.76674e-236
3.81217e-234
3.67744e-232
3.38955e-230
2.99178e-228
2.5339e-226
2.06315e-224
1.6177e-222
1.22341e-220
8.93688e-219
6.31413e-217
4.32005e-215
2.86551e-213
1.84459e-211
1.15344e-209
7.01228e-208
4.14792e-206
2.38898e-204
1.34053e-202
7.33256e-201
3.91161e-199
2.03584e-197
1.03409e-195
5.12742e-194
2.48218e-192
1.17325e-190
5.41458e-189
2.43954e-187
1.03741e-185
3.85723e-184
1.24516e-182
3.4661e-181
8.2675e-180
1.68055e-178
2.89914e-177
4.23505e-176
5.24008e-175
5.50734e-174
4.93326e-173
3.76788e-172
2.45896e-171
1.39569e-170
7.06433e-170
3.20944e-169
1.29031e-168
4.57343e-168
1.44964e-167
4.21424e-167
1.15043e-166
2.96092e-166
7.14297e-166
1.6073e-165
3.37627e-165
6.64575e-165
1.23309e-164
2.17093e-164
3.65466e-164
5.9173e-164
9.26061e-164
1.40531e-163
2.07149e-163
2.96911e-163
4.14232e-163
5.6313e-163
7.46865e-163
9.67282e-163
1.22465e-162
1.51761e-162
1.84285e-162
2.19514e-162
2.56761e-162
2.95174e-162
3.33787e-162
3.71564e-162
4.07456e-162
4.40454e-162
4.68873e-162
4.83408e-162
4.12905e-162
6.96606e-163
6.78765e-171
1.97537e-168
1.09061e-160
5.97298e-160
6.91938e-160
6.72033e-160
6.33978e-160
5.89656e-160
5.41089e-160
4.89516e-160
4.36294e-160
3.8281e-160
3.3039e-160
2.80241e-160
2.33375e-160
1.90608e-160
1.52511e-160
1.194e-160
9.13668e-161
6.82693e-161
4.97483e-161
3.53157e-161
2.43982e-161
1.6388e-161
1.06843e-161
6.74052e-162
4.09558e-162
2.3836e-162
1.31902e-162
6.89828e-163
3.38955e-163
1.55829e-163
6.69276e-164
2.69717e-164
1.0257e-164
3.66641e-165
1.20413e-165
3.54541e-166
9.22531e-167
2.1289e-167
4.4188e-168
8.1852e-169
1.31788e-169
1.81227e-170
2.12542e-171
2.12423e-172
1.80159e-173
1.29232e-174
7.83768e-176
4.02811e-177
1.7617e-178
6.59247e-180
2.12404e-181
5.93174e-183
1.44574e-184
3.30957e-186
7.38773e-188
1.60839e-189
3.41553e-191
7.07468e-193
1.42923e-194
2.81555e-196
5.40733e-198
1.01207e-199
1.84526e-201
3.27575e-203
5.65869e-205
9.50565e-207
1.55162e-208
2.45904e-210
3.78026e-212
5.63143e-214
8.12038e-216
1.13206e-217
1.52381e-219
1.97759e-221
2.47066e-223
2.96634e-225
3.41633e-227
3.76664e-229
3.96681e-231
3.9808e-233
3.79647e-235
3.43072e-237
2.92794e-239
2.35134e-241
1.7695e-243
1.24205e-245
8.08822e-248
4.85637e-250
2.66918e-252
1.33148e-254
5.96628e-257
2.3712e-259
8.22558e-262
2.43907e-264
6.00875e-267
1.18032e-269
1.73275e-272
1.68959e-275
8.2106e-279
1.09551e-278
2.25624e-275
2.31087e-272
1.57103e-269
7.97961e-267
3.23119e-264
1.08694e-261
3.12523e-259
7.843e-257
1.7457e-254
3.49034e-252
6.33368e-250
1.0521e-247
1.61141e-245
2.28977e-243
3.03484e-241
3.76939e-239
4.40548e-237
4.8629e-235
5.08632e-233
5.05595e-231
4.78908e-229
4.33317e-227
3.75338e-225
3.11873e-223
2.49044e-221
1.91448e-219
1.41898e-217
1.01548e-215
7.02605e-214
4.70557e-212
3.05389e-210
1.92252e-208
1.17507e-206
6.97896e-205
4.03063e-203
2.26516e-201
1.23942e-199
6.60616e-198
3.43141e-196
1.73754e-194
8.57912e-193
4.13116e-191
1.94025e-189
8.88776e-188
3.97037e-186
1.72935e-184
7.0718e-183
2.5192e-181
7.76331e-180
2.05578e-178
4.64949e-177
8.93514e-176
1.45361e-174
1.99846e-173
2.32425e-172
2.29581e-171
1.93495e-170
1.39238e-169
8.56718e-169
4.59058e-168
2.19848e-167
9.47557e-167
3.62284e-166
1.22511e-165
3.7177e-165
1.03721e-164
2.72213e-164
6.743e-164
1.56748e-163
3.40458e-163
6.92016e-163
1.32183e-162
2.38677e-162
4.09839e-162
6.74157e-162
1.06815e-161
1.63788e-161
2.43796e-161
3.52843e-161
4.9702e-161
6.82095e-161
9.13008e-161
1.19342e-160
1.52484e-160
1.90645e-160
2.33528e-160
2.80578e-160
3.31e-160
3.83796e-160
4.37778e-160
4.91628e-160
5.43956e-160
5.93395e-160
6.38646e-160
6.77452e-160
6.96833e-160
5.96497e-160
1.04934e-160
1.72283e-168
4.06377e-166
1.32532e-158
6.99914e-158
8.10398e-158
7.88968e-158
7.46733e-158
6.97389e-158
6.43158e-158
5.85311e-158
5.25259e-158
4.64475e-158
4.04403e-158
3.46381e-158
2.91572e-158
2.40957e-158
1.95275e-158
1.55e-158
1.20375e-158
9.13734e-159
6.77056e-159
4.89165e-159
3.44244e-159
2.35756e-159
1.56878e-159
1.01138e-159
6.2892e-160
3.75328e-160
2.13494e-160
1.15138e-160
5.85248e-161
2.79058e-161
1.24512e-161
5.2174e-162
2.06444e-162
7.69047e-163
2.63949e-163
8.15618e-164
2.23541e-164
5.44562e-165
1.19579e-165
2.34852e-166
4.01611e-167
5.8714e-168
7.3313e-169
7.81033e-170
7.05972e-171
5.39038e-172
3.47312e-173
1.89183e-174
8.74495e-176
3.44812e-177
1.16673e-178
3.41006e-180
8.66781e-182
2.05765e-183
4.75644e-185
1.07098e-186
2.34936e-188
5.02149e-190
1.04574e-191
2.12168e-193
4.19293e-195
8.06888e-197
1.5115e-198
2.75488e-200
4.88275e-202
8.41051e-204
1.40692e-205
2.2838e-207
3.59423e-209
5.47882e-211
8.08041e-213
1.15169e-214
1.58427e-216
2.10042e-218
2.67977e-220
3.28455e-222
3.86053e-224
4.34251e-226
4.66449e-228
4.77299e-230
4.64028e-232
4.27353e-234
3.71618e-236
3.04008e-238
2.33003e-240
1.66532e-242
1.10402e-244
6.74706e-247
3.77381e-249
1.9154e-251
8.73117e-254
3.52946e-256
1.24511e-258
3.75404e-261
9.40209e-264
1.87732e-266
2.80099e-269
2.77543e-272
1.37034e-275
1.86596e-275
3.78176e-272
3.8111e-269
2.54897e-266
1.27352e-263
5.07182e-261
1.67771e-258
4.74281e-256
1.17005e-253
2.55971e-251
5.02933e-249
8.96689e-247
1.4632e-244
2.20106e-242
3.0712e-240
3.99623e-238
4.8718e-236
5.58747e-234
6.05086e-232
6.2075e-230
6.05051e-228
5.61822e-226
4.98177e-224
4.22765e-222
3.44044e-220
2.68982e-218
2.02373e-216
1.46747e-214
1.02703e-212
6.94632e-211
4.54561e-209
2.88113e-207
1.77047e-205
1.05573e-203
6.11365e-202
3.44062e-200
1.8829e-198
1.00255e-196
5.19602e-195
2.62224e-193
1.28895e-191
6.17213e-190
2.87949e-188
1.3088e-186
5.79515e-185
2.49917e-183
1.04937e-181
4.11267e-180
1.39887e-178
4.10095e-177
1.02949e-175
2.20022e-174
3.98431e-173
6.09358e-172
7.86155e-171
8.57035e-170
7.93534e-169
6.27798e-168
4.24741e-167
2.45983e-166
1.24292e-165
5.62559e-165
2.29655e-164
8.33553e-164
2.68587e-163
7.79935e-163
2.08788e-162
5.26614e-162
1.25454e-161
2.80717e-161
5.87872e-161
1.1551e-160
2.13963e-160
3.75854e-160
6.29393e-160
1.01159e-159
1.56842e-159
2.35629e-159
3.43986e-159
4.88725e-159
6.76404e-159
9.12883e-159
1.20278e-158
1.54907e-158
1.95208e-158
2.40951e-158
2.91679e-158
3.46666e-158
4.04949e-158
4.65379e-158
5.26621e-158
5.87237e-158
6.45739e-158
7.00693e-158
7.50774e-158
7.93532e-158
8.14252e-158
6.98197e-158
1.27992e-158
3.59225e-166
6.97208e-164
1.31768e-156
6.70732e-156
7.76541e-156
7.57981e-156
7.19909e-156
6.75237e-156
6.25972e-156
5.73158e-156
5.17983e-156
4.61717e-156
4.05626e-156
3.50914e-156
2.98657e-156
2.49801e-156
2.05106e-156
1.65115e-156
1.30187e-156
1.00429e-156
7.5696e-157
5.56786e-157
3.99245e-157
2.78835e-157
1.89398e-157
1.24782e-157
7.94168e-158
4.86049e-158
2.84292e-158
1.58222e-158
8.32881e-159
4.12424e-159
1.91406e-159
8.34705e-160
3.43798e-160
1.33496e-160
4.79085e-161
1.55595e-161
4.50094e-162
1.1595e-162
2.69663e-163
5.62189e-164
1.02302e-164
1.59371e-165
2.12388e-166
2.4183e-167
2.33627e-168
1.90443e-169
1.30774e-170
7.57492e-172
3.71365e-173
1.54834e-174
5.52168e-176
1.69501e-177
4.50894e-179
1.11323e-180
2.67222e-182
6.23928e-184
1.41745e-185
3.13385e-187
6.74348e-189
1.41226e-190
2.87822e-192
5.70709e-194
1.10066e-195
2.0638e-197
3.76051e-199
6.65483e-201
1.14301e-202
1.90396e-204
3.0732e-206
4.80218e-208
7.25682e-210
1.05929e-211
1.49175e-213
2.02388e-215
2.64137e-217
3.31059e-219
3.97768e-221
4.57235e-223
5.01751e-225
5.24367e-227
5.20514e-229
4.89334e-231
4.34249e-233
3.6245e-235
2.83366e-237
2.06544e-239
1.39614e-241
8.69799e-244
4.95852e-246
2.56459e-248
1.19107e-250
4.90463e-253
1.76224e-255
5.41056e-258
1.3797e-260
2.80444e-263
4.25892e-266
4.29467e-269
2.1576e-272
3.00582e-272
5.98582e-269
5.9264e-266
3.89361e-263
1.91062e-260
7.47217e-258
2.42686e-255
6.73497e-253
1.63082e-250
3.50118e-248
6.74958e-246
1.18052e-243
1.88936e-241
2.78699e-239
3.81251e-237
4.86249e-235
5.80905e-233
6.5273e-231
6.92357e-229
6.95523e-227
6.63666e-225
6.03106e-223
5.23219e-221
4.34276e-219
3.45542e-217
2.64043e-215
1.94092e-213
1.37452e-211
9.39099e-210
6.19772e-208
3.95559e-206
2.44401e-204
1.46324e-202
8.49606e-201
4.78776e-199
2.62029e-197
1.39353e-195
7.20513e-194
3.62324e-192
1.7726e-190
8.43866e-189
3.9096e-187
1.76275e-185
7.73399e-184
3.30127e-182
1.3705e-180
5.53092e-179
2.07011e-177
6.6985e-176
1.86124e-174
4.4131e-173
8.88028e-172
1.51006e-170
2.16403e-169
2.6119e-168
2.66134e-167
2.30362e-166
1.7065e-165
1.08297e-164
5.89223e-164
2.80435e-163
1.1982e-162
4.62476e-162
1.59029e-161
4.87559e-161
1.35406e-160
3.47737e-160
8.42557e-160
1.92858e-159
4.14876e-159
8.36622e-159
1.58736e-158
2.84926e-158
4.86753e-158
7.94789e-158
1.2481e-157
1.89355e-157
2.7868e-157
3.98934e-157
5.56259e-157
7.56181e-157
1.00327e-156
1.30067e-156
1.64991e-156
2.04996e-156
2.49734e-156
2.98673e-156
3.51064e-156
4.05975e-156
4.62335e-156
5.18941e-156
5.7452e-156
6.2779e-156
6.77542e-156
7.22687e-156
7.61047e-156
7.78923e-156
6.68648e-156
1.27677e-156
6.23343e-164
1.00512e-161
1.07633e-154
5.27767e-154
6.11338e-154
5.98396e-154
5.70408e-154
5.37401e-154
5.00867e-154
4.61494e-154
4.20089e-154
3.77537e-154
3.34737e-154
2.92565e-154
2.51825e-154
2.1325e-154
1.77463e-154
1.44949e-154
1.16085e-154
9.10533e-155
6.98466e-155
5.23317e-155
3.82518e-155
2.72537e-155
1.8901e-155
1.27275e-155
8.29131e-156
5.20481e-156
3.13147e-156
1.79999e-156
9.82456e-157
5.05956e-157
2.44602e-157
1.1114e-157
4.76776e-158
1.93024e-158
7.24774e-159
2.4782e-159
7.58403e-160
2.07013e-160
5.10503e-161
1.13112e-161
2.19507e-162
3.65332e-163
5.20964e-164
6.35766e-165
6.58415e-166
5.74809e-167
4.22078e-168
2.60905e-169
1.3616e-170
6.02546e-172
2.2733e-173
7.35712e-175
2.05581e-176
5.29526e-178
1.3238e-179
3.21407e-181
7.58192e-183
1.73834e-184
3.87443e-186
8.3952e-188
1.76844e-189
3.62096e-191
7.20493e-193
1.39271e-194
2.61414e-196
4.76218e-198
8.41437e-200
1.44101e-201
2.38996e-203
3.83526e-205
5.94897e-207
8.90933e-209
1.28667e-210
1.78944e-212
2.39304e-214
3.07224e-216
3.77968e-218
4.4473e-220
4.99389e-222
5.33888e-224
5.41985e-226
5.20936e-228
4.72529e-230
4.03034e-232
3.21916e-234
2.39669e-236
1.65439e-238
1.05231e-240
6.12363e-243
3.23237e-245
1.53182e-247
6.43518e-250
2.35846e-252
7.38482e-255
1.92018e-257
3.97919e-260
6.1598e-263
6.33063e-266
3.2409e-269
4.63255e-269
9.05114e-266
8.79084e-263
5.66482e-260
2.72604e-257
1.04535e-254
3.32844e-252
9.054e-250
2.14853e-247
4.51964e-245
8.53568e-243
1.46225e-240
2.29172e-238
3.30971e-236
4.43178e-234
5.53148e-232
6.46545e-230
7.1061e-228
7.37086e-226
7.23888e-224
6.75082e-222
5.994e-220
5.07908e-218
4.11622e-216
3.19677e-214
2.38342e-212
1.70874e-210
1.17972e-208
7.85424e-207
5.04873e-205
3.1369e-203
1.8858e-201
1.0979e-199
6.19509e-198
3.39048e-196
1.80082e-194
9.2875e-193
4.65299e-191
2.26523e-189
1.07186e-187
4.93027e-186
2.20452e-184
9.58144e-183
4.04697e-181
1.66061e-179
6.61662e-178
2.55839e-176
9.10961e-175
2.79328e-173
7.32717e-172
1.63441e-170
3.08462e-169
4.90721e-168
6.56658e-167
7.3907e-166
7.01725e-165
5.66242e-164
3.91745e-163
2.3258e-162
1.18626e-161
5.31176e-161
2.13989e-160
7.79335e-160
2.53294e-159
7.37651e-159
1.95814e-158
4.82285e-158
1.1219e-157
2.46452e-157
5.08946e-157
9.86836e-157
1.80581e-156
3.13846e-156
5.21244e-156
8.29785e-156
1.27303e-155
1.88962e-155
2.72375e-155
3.822e-155
5.22788e-155
6.9769e-155
9.09509e-155
1.15963e-154
1.44816e-154
1.77332e-154
2.13139e-154
2.5176e-154
2.92579e-154
3.34869e-154
3.7783e-154
4.20582e-154
4.6222e-154
5.01847e-154
5.38646e-154
5.71899e-154
6.00006e-154
6.12439e-154
5.25929e-154
1.04604e-154
9.0751e-162
1.22231e-159
7.21575e-153
3.4036e-152
3.94762e-152
3.87556e-152
3.70818e-152
3.50962e-152
3.28905e-152
3.05005e-152
2.79702e-152
2.5349e-152
2.26885e-152
2.00398e-152
1.74509e-152
1.49675e-152
1.26299e-152
1.04721e-152
8.52425e-153
6.80337e-153
5.31559e-153
4.05995e-153
3.02739e-153
2.20184e-153
1.55985e-153
1.07388e-153
7.16197e-154
4.61211e-154
2.85529e-154
1.69652e-154
9.614e-155
5.15782e-155
2.60217e-155
1.23386e-155
5.51782e-156
2.33007e-156
9.16036e-157
3.30398e-157
1.07259e-157
3.10928e-158
8.14064e-159
1.91951e-159
3.98274e-160
7.10266e-161
1.08673e-161
1.42563e-162
1.58779e-163
1.48959e-164
1.17385e-165
7.77301e-167
4.33528e-168
2.04449e-169
8.19368e-171
2.80698e-172
8.27225e-174
2.23034e-175
5.82519e-177
1.47498e-178