/*--------------------------------*- C++ -*----------------------------------*\
| =========                 |                                                 |
| \\      /  F ield         | OpenFOAM: The Open Source CFD Toolbox           |
|  \\    /   O peration     | Version:  2412                                  |
|   \\  /    A nd           | Website:  www.openfoam.com                      |
|    \\/     M anipulation  |                                                 |
\*---------------------------------------------------------------------------*/
FoamFile
{
    version     2.0;
    format      ascii;
    arch        "LSB;label=32;scalar=64";
    class       surfaceScalarField;
    location    "1.17";
    object      alphaPhi0.water;
}
// * * * * * * * * * * * * * * * * * * * * * * * * * * * * * * * * * * * * * //

dimensions      [0 3 -1 0 0 0 0];

oriented        oriented;

internalField   nonuniform List<scalar> 
79600
(
7.51764e-199
-2.68505e-195
2.64996e-189
-3.80083e-186
3.2282e-188
-2.84905e-185
5.65353e-188
-3.5336e-185
7.32586e-188
-3.5227e-185
8.50958e-188
-3.32245e-185
9.2251e-188
-3.03368e-185
9.49965e-188
-2.7008e-185
9.37811e-188
-2.35043e-185
8.92292e-188
-2.00135e-185
8.20583e-188
-1.667e-185
7.30447e-188
-1.35725e-185
6.2984e-188
-1.07925e-185
5.26155e-188
-8.37226e-186
4.25749e-188
-6.32883e-186
3.33531e-188
-4.65603e-186
2.52784e-188
-3.32919e-186
1.85218e-188
-2.31079e-186
1.31109e-188
-1.55526e-186
8.9578e-189
-1.01368e-186
5.90175e-189
-6.39041e-187
3.74583e-189
-3.89178e-187
2.28752e-189
-2.28631e-187
1.34134e-189
-1.29275e-187
7.52557e-190
-7.00955e-188
4.0179e-190
-3.62425e-188
2.02772e-190
-1.77478e-188
9.58853e-191
-8.15861e-189
4.21309e-191
-3.49138e-189
1.70906e-191
-1.38184e-189
6.37981e-192
-5.04108e-190
2.19268e-192
-1.69562e-190
6.97389e-193
-5.28508e-191
2.06285e-193
-1.53405e-191
5.6446e-194
-4.12394e-192
1.39727e-194
-1.00367e-192
3.04802e-195
-2.15348e-193
5.77463e-196
-4.01364e-194
9.52157e-197
-6.51141e-195
1.37959e-197
-9.28474e-196
1.75112e-198
-1.15925e-196
1.91608e-199
-1.24545e-197
1.78291e-200
-1.13458e-198
1.40359e-201
-8.71309e-200
9.34004e-203
-5.62998e-201
5.25387e-204
-3.05646e-202
2.49943e-205
-1.392e-203
1.00645e-206
-5.30806e-205
3.43256e-208
-1.68879e-206
9.90821e-210
-4.44716e-208
2.4102e-211
-9.50985e-210
4.88028e-213
-1.57134e-211
7.9679e-215
-1.69009e-213
9.59655e-217
6.5216e-222
1.13996e-218
1.19833e-221
1.33383e-220
2.78912e-223
1.53593e-222
4.83031e-225
1.73935e-224
7.33077e-227
1.93575e-226
1.02666e-228
2.11568e-228
1.35719e-230
2.26924e-230
1.71354e-232
2.38677e-232
2.08019e-234
2.45978e-234
2.43792e-236
2.48182e-236
2.76515e-238
2.44934e-238
3.0398e-240
2.36222e-240
3.24153e-242
2.22403e-242
3.35412e-244
2.04195e-244
3.36764e-246
1.82614e-246
3.27991e-248
1.58881e-248
3.09719e-250
1.34306e-250
2.83359e-252
1.10154e-252
2.50952e-254
8.75256e-255
2.14921e-256
6.72685e-257
1.7778e-258
4.99214e-259
1.41845e-260
3.57078e-261
1.09e-262
2.45686e-263
8.05374e-265
1.62259e-265
5.71139e-267
1.02623e-267
3.87963e-269
6.19987e-270
2.51877e-271
3.56801e-272
1.55912e-273
1.95008e-274
9.17706e-276
1.00878e-276
5.12117e-278
4.92078e-279
2.7005e-280
2.25393e-281
1.34069e-282
9.64836e-284
6.24051e-285
3.83906e-286
2.71071e-287
1.41106e-288
1.09291e-289
4.75618e-291
4.06471e-292
1.45755e-293
1.38445e-294
4.0192e-296
4.28157e-297
9.84632e-299
1.1899e-299
2.10885e-301
2.93411e-302
3.86686e-304
6.31725e-305
5.89975e-307
1.16299e-307
7.18784e-310
1.77928e-310
6.55357e-313
2.17102e-313
3.97356e-316
1.97997e-316
1.20132e-319
1.19929e-319
0
3.45846e-323
-1.58205e-319
4.94066e-323
-5.20148e-316
1.58081e-319
-8.5261e-313
2.59299e-316
-9.29475e-310
2.82531e-313
-7.58408e-307
2.30135e-310
-4.94227e-304
1.49529e-307
-2.68031e-301
8.07543e-305
-1.24468e-298
3.72974e-302
-5.05411e-296
1.50436e-299
-1.82357e-293
5.38471e-297
-5.9214e-291
1.73233e-294
-1.74844e-288
5.06117e-292
-4.73525e-286
1.35439e-289
-1.18483e-283
3.34387e-287
-2.7561e-281
7.66422e-285
-5.99256e-279
1.63956e-282
-1.22367e-276
3.28902e-280
-2.35655e-274
6.21271e-278
-4.29607e-272
1.10911e-275
-7.43892e-270
1.87749e-273
-1.22719e-267
3.02252e-271
-1.93409e-265
4.63999e-269
-2.91944e-263
6.80876e-267
-4.23044e-261
9.57132e-265
-5.89739e-259
1.29152e-262
-7.92463e-257
1.6759e-260
-1.02834e-254
2.09469e-258
-1.29083e-252
2.5256e-256
-1.56989e-250
2.94142e-254
-1.85259e-248
3.31288e-252
-2.12422e-246
3.61224e-250
-2.36971e-244
3.81632e-248
-2.57514e-242
3.90926e-246
-2.72904e-240
3.88476e-244
-2.82351e-238
3.74631e-242
-2.85482e-236
3.50598e-240
-2.8235e-234
3.18275e-238
-2.73404e-232
2.80055e-236
-2.59412e-230
2.38516e-234
-2.41372e-228
1.9612e-232
-2.20403e-226
1.55052e-230
-1.97648e-224
1.17078e-228
-1.74186e-222
8.34501e-227
-1.50967e-220
5.48986e-225
-1.28776e-218
3.16605e-223
-1.08221e-216
1.36024e-221
-8.97581e-215
1.23757e-221
-5.48484e-213
-1.90127e-213
-2.69875e-211
-1.76704e-211
-1.10399e-209
-1.06607e-209
-3.80158e-208
-4.9618e-208
-1.10681e-206
-1.87282e-206
-2.72716e-205
-5.8443e-205
-5.68473e-204
-1.52033e-203
-1.00194e-202
-3.30952e-202
-1.49294e-201
-6.04227e-201
-1.88096e-200
-9.2699e-200
-2.00588e-199
-1.19704e-198
-1.82039e-198
-1.30371e-197
-1.42569e-197
-1.20485e-196
-9.79027e-197
-9.59221e-196
-5.90942e-196
-6.69301e-195
-3.10477e-195
-4.10591e-194
-1.4175e-194
-2.19276e-193
-5.70786e-194
-1.0178e-192
-2.08074e-193
-4.16838e-192
-7.0211e-193
-1.54665e-191
-2.2038e-192
-5.31838e-191
-6.40207e-192
-1.70341e-190
-1.71258e-191
-5.05611e-190
-4.21658e-191
-1.38394e-189
-9.58632e-191
-3.49223e-189
-2.02542e-190
-8.15163e-189
-4.01013e-190
-1.77159e-188
-7.50548e-190
-3.61468e-188
-1.33691e-189
-6.9856e-188
-2.27903e-189
-1.28744e-187
-3.73112e-189
-2.27575e-187
-5.87833e-189
-3.87259e-187
-8.92312e-189
-6.35784e-187
-1.30626e-188
-1.00849e-186
-1.84571e-188
-1.54735e-186
-2.51945e-188
-2.29913e-186
-3.32483e-188
-3.31224e-186
-4.24509e-188
-4.63205e-186
-5.24844e-188
-6.29585e-186
-6.28686e-188
-8.32921e-186
-7.29804e-188
-1.07393e-185
-8.20962e-188
-1.35108e-185
-8.94388e-188
-1.6604e-185
-9.42555e-188
-1.99522e-185
-9.5893e-188
-2.34646e-185
-9.38671e-188
-2.70301e-185
-8.79153e-188
-3.05228e-185
-7.78797e-188
-3.38084e-185
-6.28284e-188
-3.66732e-185
-3.71341e-188
-3.81492e-185
-2.81002e-189
-3.15691e-185
-5.35691e-199
-3.88724e-186
-1.94254e-195
4.5783e-195
-9.43858e-192
1.05551e-185
-8.6823e-183
1.1686e-184
-6.05619e-182
1.94477e-184
-7.26954e-182
2.4515e-184
-7.13675e-182
2.81435e-184
-6.70514e-182
3.04351e-184
-6.13822e-182
3.14058e-184
-5.49427e-182
3.11449e-184
-4.81412e-182
2.98104e-184
-4.13029e-182
2.76082e-184
-3.46866e-182
2.4774e-184
-2.84948e-182
2.15547e-184
-2.28785e-182
1.81861e-184
-1.79346e-182
1.48767e-184
-1.37113e-182
1.17936e-184
-1.02108e-182
9.05439e-185
-7.39735e-183
6.72742e-185
-5.20732e-183
4.8343e-185
-3.55806e-183
3.3568e-185
-2.35683e-183
2.2503e-185
-1.51162e-183
1.45505e-185
-9.3767e-184
9.06428e-186
-5.61762e-184
5.42925e-186
-3.24345e-184
3.11601e-186
-1.79819e-184
1.70437e-186
-9.51973e-185
8.82626e-187
-4.78039e-185
4.29012e-187
-2.25707e-185
1.94131e-187
-9.93853e-186
8.12666e-188
-4.05523e-186
3.13716e-188
-1.52815e-186
1.11739e-188
-5.31999e-187
3.69148e-189
-1.71987e-187
1.13705e-189
-5.18996e-188
3.24855e-190
-1.45384e-188
8.41747e-191
-3.69355e-189
1.92699e-191
-8.28538e-190
3.84181e-192
-1.61723e-190
6.68737e-193
-2.75442e-191
1.02685e-193
-4.13714e-192
1.38659e-194
-5.45527e-193
1.61949e-195
-6.1953e-194
1.61388e-196
-5.96698e-195
1.3661e-197
-4.8476e-196
9.82082e-199
-3.3161e-197
6.00186e-200
-1.90697e-198
3.12375e-201
-9.20306e-200
1.38869e-202
-3.72085e-201
5.29453e-204
-1.25686e-202
1.73934e-205
-3.52486e-204
4.94715e-207
-8.08088e-206
1.22337e-208
-1.4537e-207
2.63736e-210
-1.79224e-209
4.95622e-212
-4.19211e-212
8.9976e-214
1.3175e-216
1.60258e-215
5.06492e-218
2.79947e-217
1.36614e-219
4.79426e-219
3.17726e-221
8.04566e-221
6.76353e-223
1.32244e-222
1.35181e-224
2.12775e-224
2.57008e-226
3.34913e-226
4.68263e-228
5.15372e-228
8.21278e-230
7.74767e-230
1.39044e-231
1.13695e-231
2.27622e-233
1.62728e-233
3.60667e-235
2.26951e-235
5.53404e-237
3.08123e-237
8.22377e-239
4.06794e-239
1.18336e-240
5.21655e-241
1.64818e-242
6.4896e-243
2.22057e-244
7.82173e-245
2.89168e-246
9.12053e-247
3.63615e-248
1.02732e-248
4.41012e-250
1.11593e-250
5.15251e-252
1.16693e-252
5.79061e-254
1.17243e-254
6.24989e-256
1.12941e-256
6.46688e-258
1.04077e-258
6.40237e-260
9.15178e-261
6.05159e-262
7.65812e-263
5.44808e-264
6.07987e-265
4.6592e-266
4.56428e-267
3.77398e-268
3.22804e-269
2.88594e-270
2.1418e-271
2.07579e-272
1.32692e-273
1.39862e-274
7.63469e-276
8.78626e-277
4.05435e-278
5.11887e-279
1.97279e-280
2.74868e-281
8.72045e-283
1.35056e-283
3.46578e-285
6.02044e-286
1.22276e-287
2.40979e-288
3.76862e-290
8.55158e-291
9.93662e-293
2.64769e-293
2.17841e-295
7.00417e-296
3.81083e-298
1.53868e-298
4.98569e-301
2.69391e-301
4.33511e-304
3.52293e-304
1.87903e-307
3.05811e-307
1.01842e-313
1.32163e-310
-2.34512e-307
1.65614e-310
-5.40327e-304
3.82627e-307
-6.19894e-301
4.39648e-304
-4.7251e-298
3.35227e-301
-2.69327e-295
1.90904e-298
-1.22493e-292
8.66403e-296
-4.6322e-290
3.26534e-293
-1.4986e-287
1.05152e-290
-4.23548e-285
2.95441e-288
-1.06271e-282
7.35977e-286
-2.39746e-280
1.64632e-283
-4.91371e-278
3.34126e-281
-9.22831e-276
6.20542e-279
-1.59971e-273
1.06227e-276
-2.57553e-271
1.68652e-274
-3.87204e-269
2.49667e-272
-5.46153e-267
3.4624e-270
-7.25775e-265
4.51677e-268
-9.12053e-263
5.56294e-266
-1.08747e-260
6.48974e-264
-1.23396e-258
7.19232e-262
-1.33617e-256
7.59236e-260
-1.38413e-254
7.65226e-258
-1.37479e-252
7.37986e-256
-1.31206e-250
6.82343e-254
-1.20548e-248
6.0593e-252
-1.06815e-246
5.17604e-250
-9.14292e-245
4.25943e-248
-7.57153e-243
3.38096e-246
-6.07498e-241
2.59146e-244
-4.7287e-239
1.91991e-242
-3.57527e-237
1.37596e-240
-2.62871e-235
9.54511e-239
-1.8815e-233
6.41191e-237
-1.31227e-231
4.17164e-235
-8.9268e-230
2.6284e-233
-5.92781e-228
1.60296e-231
-3.84555e-226
9.45271e-230
-2.43894e-224
5.381e-228
-1.51325e-222
2.94872e-226
-9.19071e-221
1.5485e-224
-5.4671e-219
7.73547e-223
-3.18676e-217
3.62831e-221
-1.82104e-215
1.55793e-219
-1.02056e-213
5.77041e-218
-5.61115e-212
1.50214e-216
-2.98133e-210
-4.61993e-212
-1.37928e-208
-2.03213e-209
-5.55659e-207
-1.6464e-207
-1.94395e-205
-9.11974e-206
-5.88131e-204
-3.9576e-204
-1.53158e-202
-1.40201e-202
-3.41755e-201
-4.11868e-201
-6.5099e-200
-1.00992e-199
-1.0558e-198
-2.07338e-198
-1.4558e-197
-3.57153e-197
-1.70539e-196
-5.1728e-196
-1.69769e-195
-6.31127e-195
-1.44303e-194
-6.49847e-194
-1.06212e-193
-5.67921e-193
-6.88134e-193
-4.27992e-192
-3.93415e-192
-2.83452e-191
-1.9641e-191
-1.65612e-190
-8.54476e-191
-8.4445e-190
-3.28709e-190
-3.74902e-189
-1.14768e-189
-1.47088e-188
-3.71899e-189
-5.2375e-188
-1.12382e-188
-1.73235e-187
-3.1502e-188
-5.3495e-187
-8.14854e-188
-1.53417e-186
-1.94408e-187
-4.06519e-186
-4.29173e-187
-9.95021e-186
-8.8221e-187
-2.25731e-185
-1.70237e-186
-4.77675e-185
-3.11041e-186
-9.50557e-185
-5.41677e-186
-1.79433e-184
-9.04031e-186
-3.23475e-184
-1.45093e-185
-5.60034e-184
-2.2438e-185
-9.34575e-184
-3.34733e-185
-1.50646e-183
-4.82137e-185
-2.34882e-183
-6.71089e-185
-3.54622e-183
-9.03447e-185
-5.19068e-183
-1.17714e-184
-7.37489e-183
-1.48551e-184
-1.01819e-182
-1.81707e-184
-1.36767e-182
-2.15546e-184
-1.78975e-182
-2.48017e-184
-2.28461e-182
-2.76808e-184
-2.84796e-182
-2.99496e-184
-3.47105e-182
-3.13782e-184
-4.14012e-182
-3.17718e-184
-4.83714e-182
-3.09901e-184
-5.54061e-182
-2.89618e-184
-6.22676e-182
-2.56491e-184
-6.87055e-182
-2.07562e-184
-7.43364e-182
-1.24286e-184
-7.73116e-182
-1.00508e-185
-6.44925e-182
-3.15078e-195
-8.41913e-183
-6.91973e-192
6.37411e-192
-1.1953e-188
9.7774e-183
-7.1205e-180
1.04132e-181
-4.76743e-179
1.70218e-181
-5.63458e-179
2.12e-181
-5.48222e-179
2.42116e-181
-5.13693e-179
2.61757e-181
-4.71015e-179
2.70838e-181
-4.23326e-179
2.69825e-181
-3.73006e-179
2.59797e-181
-3.22167e-179
2.42293e-181
-2.7262e-179
2.19162e-181
-2.2586e-179
1.92393e-181
-1.83043e-179
1.63934e-181
-1.44961e-179
1.35558e-181
-1.12062e-179
1.08735e-181
-8.44626e-180
8.45502e-182
-6.19894e-180
6.369e-182
-4.42503e-180
4.64489e-182
-3.06913e-180
3.27679e-182
-2.06575e-180
2.23421e-182
-1.34773e-180
1.47103e-182
-8.5133e-181
9.3425e-183
-5.19995e-181
5.71233e-183
-3.06474e-181
3.35116e-183
-1.73673e-181
1.87624e-183
-9.41091e-182
9.96033e-184
-4.84442e-182
4.97087e-184
-2.34863e-182
2.31367e-184
-1.06391e-182
9.98148e-185
-4.47498e-183
3.97872e-185
-1.74182e-183
1.46615e-185
-6.27537e-184
5.02174e-186
-2.10369e-184
1.60738e-186
-6.59702e-185
4.78297e-187
-1.92459e-185
1.29303e-187
-5.10066e-186
3.09299e-188
-1.19545e-186
6.454e-189
-2.44213e-187
1.17863e-189
-4.36356e-188
1.90493e-190
-6.89819e-189
2.71432e-191
-9.59577e-190
3.34782e-192
-1.15004e-190
3.52325e-193
-1.16848e-191
3.15068e-194
-1.00141e-192
2.39407e-195
-7.22658e-194
1.54675e-196
-4.38125e-195
8.50934e-198
-2.22619e-196
3.99787e-199
-9.45991e-198
1.6111e-200
-3.3523e-199
5.59964e-202
-9.84768e-201
1.68897e-203
-2.36348e-202
4.44944e-205
-4.46174e-204
1.03032e-206
-5.8583e-206
2.10972e-208
-2.02428e-208
4.1506e-210
8.63186e-213
7.9985e-212
3.74896e-214
1.50945e-213
1.10682e-215
2.78877e-215
2.79492e-217
5.04243e-217
6.43489e-219
8.91906e-219
1.38759e-220
1.54257e-220
2.84097e-222
2.60724e-222
5.5659e-224
4.30396e-224
1.04834e-225
6.93454e-226
1.90389e-227
1.08971e-227
3.33993e-229
1.6688e-229
5.66582e-231
2.48835e-231
9.29956e-233
3.60934e-233
1.47711e-234
5.08749e-235
2.27021e-236
6.96079e-237
3.37488e-238
9.23364e-239
4.84998e-240
1.186e-240
6.73259e-242
1.47296e-242
9.01941e-244
1.76619e-244
1.16481e-245
2.04134e-246
1.44832e-247
2.27019e-248
1.73142e-249
2.42465e-250
1.98691e-251
2.48183e-252
2.18492e-253
2.42914e-254
2.2979e-255
2.26784e-256
2.30639e-257
2.01407e-258
2.20399e-259
1.69642e-260
1.99996e-261
1.35066e-262
1.71829e-263
1.01276e-264
1.39324e-265
7.12195e-267
1.06223e-267
4.67501e-269
7.58397e-270
2.84917e-271
5.04695e-272
1.60218e-273
3.11385e-274
8.25306e-276
1.7702e-276
3.86101e-278
9.20598e-279
1.6236e-280
4.34233e-281
6.05932e-283
1.83866e-283
1.97501e-285
6.90063e-286
5.5059e-288
2.25905e-288
1.27596e-290
6.31727e-291
2.35907e-293
1.4667e-293
3.26133e-296
2.71337e-296
2.99622e-299
3.74879e-299
1.37237e-302
3.43762e-302
1.22848e-308
1.56963e-305
-1.70249e-302
1.95409e-305
-3.71906e-299
4.28134e-302
-4.04289e-296
4.66237e-299
-2.91894e-293
3.36805e-296
-1.57544e-290
1.8166e-293
-6.78288e-288
7.80624e-291
-2.42744e-285
2.78487e-288
-7.42992e-283
8.4864e-286
-1.98616e-280
2.25573e-283
-4.71211e-278
5.3145e-281
-1.00488e-275
1.12401e-278
-1.94628e-273
2.15622e-276
-3.45318e-271
3.78399e-274
-5.6533e-269
6.11896e-272
-8.59316e-267
9.17395e-270
-1.2193e-264
1.28206e-267
-1.62262e-262
1.67787e-265
-2.03369e-260
2.06486e-263
-2.40949e-258
2.39824e-261
-2.70757e-256
2.63742e-259
-2.89434e-254
2.75432e-257
-2.95133e-252
2.73869e-255
-2.87777e-250
2.59892e-253
-2.68935e-248
2.35884e-251
-2.41374e-246
2.05163e-249
-2.08456e-244
1.71299e-247
-1.73534e-242
1.37514e-245
-1.39477e-240
1.06289e-243
-1.08399e-238
7.91993e-242
-8.15743e-237
5.69533e-240
-5.95179e-235
3.95623e-238
-4.21528e-233
2.65669e-236
-2.90116e-231
1.72565e-234
-1.94235e-229
1.08461e-232
-1.2662e-227
6.59708e-231
-8.0441e-226
3.88252e-229
-4.98423e-224
2.20961e-227
-3.01426e-222
1.21474e-225
-1.78038e-220
6.43904e-224
-1.02767e-218
3.28144e-222
-5.80009e-217
1.60019e-220
-3.20228e-215
7.40927e-219
-1.73024e-213
3.21325e-217
-9.15212e-212
1.27067e-215
-4.74058e-210
4.29936e-214
-2.40508e-208
9.90647e-213
-1.1725e-206
-2.28224e-208
-5.04898e-205
-6.70013e-206
-1.90877e-203
-5.09366e-204
-6.29472e-202
-2.68732e-202
-1.79923e-200
-1.11336e-200
-4.43047e-199
-3.76315e-199
-9.34893e-198
-1.05306e-197
-1.68368e-196
-2.45496e-196
-2.58137e-195
-4.7833e-195
-3.36559e-194
-7.80969e-194
-3.73016e-193
-1.07152e-192
-3.51478e-192
-1.23862e-191
-2.82803e-191
-1.20844e-190
-1.97213e-190
-1.00033e-189
-1.21374e-189
-7.14404e-189
-6.61355e-189
-4.49468e-188
-3.15438e-188
-2.50298e-187
-1.31327e-187
-1.21932e-186
-4.84208e-187
-5.18085e-186
-1.62315e-186
-1.94844e-185
-5.06148e-186
-6.66174e-185
-1.47526e-185
-2.12033e-184
-3.99706e-185
-6.31432e-184
-1.00127e-184
-1.74984e-183
-2.31795e-184
-4.48895e-183
-4.97482e-184
-1.06587e-182
-9.95999e-184
-2.35046e-182
-1.87494e-183
-4.84416e-182
-3.34696e-183
-9.40413e-182
-5.70262e-183
-1.73447e-181
-9.32369e-183
-3.05937e-181
-1.4678e-182
-5.18916e-181
-2.22914e-182
-8.49406e-181
-3.26944e-182
-1.34456e-180
-4.635e-182
-2.06094e-180
-6.35675e-182
-3.06228e-180
-8.44117e-182
-4.41598e-180
-1.08597e-181
-6.18794e-180
-1.3545e-181
-8.4342e-180
-1.63908e-181
-1.11954e-179
-1.92522e-181
-1.44912e-179
-2.19546e-181
-1.83132e-179
-2.43054e-181
-2.26212e-179
-2.61083e-181
-2.73431e-179
-2.71809e-181
-3.23726e-179
-2.73718e-181
-3.75755e-179
-2.65764e-181
-4.27944e-179
-2.47463e-181
-4.78596e-179
-2.18587e-181
-5.25948e-179
-1.76749e-181
-5.67267e-179
-1.06475e-181
-5.89045e-179
-9.07552e-183
-4.93634e-179
-4.67053e-192
-6.77095e-180
-9.14371e-189
4.78767e-189
-8.75374e-186
4.76843e-180
-3.31298e-177
4.94937e-179
-2.14735e-176
8.0559e-179
-2.52087e-176
9.99939e-179
-2.44274e-176
1.14105e-178
-2.28696e-176
1.23559e-178
-2.10081e-176
1.28295e-178
-1.89531e-176
1.28447e-178
-1.67877e-176
1.24428e-178
-1.45921e-176
1.16873e-178
-1.24391e-176
1.06572e-178
-1.03914e-176
9.44015e-179
-8.49963e-177
8.12411e-179
-6.80003e-177
6.79142e-179
-5.31543e-177
5.51247e-179
-4.05487e-177
4.34162e-179
-3.01496e-177
3.31591e-179
-2.18254e-177
2.4544e-179
-1.53667e-177
1.75917e-179
-1.051e-177
1.21993e-179
-6.97488e-178
8.17829e-180
-4.4865e-178
5.29476e-180
-2.7937e-178
3.30429e-180
-1.68063e-178
1.98112e-180
-9.73358e-179
1.13515e-180
-5.39817e-179
6.17656e-181
-2.8485e-179
3.16467e-181
-1.41812e-179
1.51512e-181
-6.61043e-180
6.73688e-182
-2.86737e-180
2.7733e-182
-1.1534e-180
1.05742e-182
-4.3024e-181
3.75487e-183
-1.49608e-181
1.24873e-183
-4.87616e-182
3.86889e-184
-1.48158e-182
1.09083e-184
-4.09679e-183
2.72555e-185
-1.00366e-183
5.95065e-186
-2.14748e-184
1.13971e-186
-4.02872e-185
1.93807e-187
-6.70855e-186
2.91211e-188
-9.85196e-187
3.78879e-189
-1.247e-187
4.20404e-190
-1.33769e-188
3.96349e-191
-1.21065e-189
3.17473e-192
-9.22723e-191
2.16045e-193
-5.90438e-192
1.24997e-194
-3.1616e-193
6.16307e-196
-1.41279e-194
2.6002e-197
-5.25201e-196
9.43785e-199
-1.61453e-197
2.96559e-200
-4.04675e-199
8.12147e-202
-7.97355e-201
1.95174e-203
-1.09923e-202
4.14401e-205
-4.56122e-205
8.4136e-207
2.30147e-209
1.67145e-208
1.05957e-210
3.24855e-210
3.24738e-212
6.17551e-212
8.46963e-214
1.14794e-213
2.00924e-215
2.08579e-215
4.4573e-217
3.70292e-217
9.37762e-219
6.41991e-219
1.88607e-220
1.08637e-220
3.64385e-222
1.79319e-222
6.78286e-224
2.88512e-224
1.21881e-225
4.52129e-226
2.11653e-227
6.89531e-228
3.55421e-229
1.02244e-229
5.77279e-231
1.4726e-231
9.06807e-233
2.05788e-233
1.37715e-234
2.78699e-235
2.02093e-236
3.65323e-237
2.86351e-238
4.6286e-239
3.9141e-240
5.65987e-241
5.15567e-242
6.66882e-243
6.53617e-244
7.55823e-245
7.96418e-246
8.22427e-247
9.3124e-248
8.57403e-249
1.04311e-249
8.54489e-251
1.11715e-251
8.12069e-253
1.14151e-253
7.33953e-255
1.11022e-255
6.28978e-257
1.0251e-257
5.09396e-259
8.95947e-260
3.88439e-261
7.3884e-262
2.77736e-263
5.72783e-264
1.85328e-265
4.15739e-266
1.14793e-267
2.81201e-268
6.55942e-270
1.76306e-270
3.43278e-272
1.01833e-272
1.63129e-274
5.37968e-275
6.96683e-277
2.57723e-277
2.6402e-279
1.10816e-279
8.73715e-282
4.22271e-282
2.47259e-284
1.40333e-284
5.81597e-287
3.98322e-287
1.09126e-289
9.38542e-290
1.53086e-292
1.76186e-292
1.427e-295
2.46973e-295
6.63179e-299
2.29759e-298
6.85378e-305
1.06431e-301
-8.29184e-299
1.33537e-301
-1.78627e-295
2.88562e-298
-1.91439e-292
3.09848e-295
-1.36241e-289
2.20658e-292
-7.24691e-287
1.17307e-289
-3.07443e-284
4.96778e-287
-1.08399e-281
1.74625e-284
-3.26825e-279
5.24247e-282
-8.60449e-277
1.37257e-279
-2.01015e-274
3.18472e-277
-4.2204e-272
6.63227e-275
-8.04615e-270
1.25253e-272
-1.40495e-267
2.16355e-270
-2.26318e-265
3.44294e-268
-3.38419e-263
5.07875e-266
-4.72284e-261
6.98174e-264
-6.18026e-259
8.98617e-262
-7.61501e-257
1.08735e-259
-8.8675e-255
1.24146e-257
-9.79124e-253
1.34175e-255
-1.0282e-250
1.37674e-253
-1.02966e-248
1.34464e-251
-9.85733e-247
1.25303e-249
-9.04165e-245
1.11646e-247
-7.96258e-243
9.52993e-246
-6.74528e-241
7.80638e-244
-5.50607e-239
6.14611e-242
-4.33788e-237
4.65743e-240
-3.30333e-235
3.40113e-238
-2.43478e-233
2.39604e-236
-1.73921e-231
1.62987e-234
-1.20542e-229
1.07131e-232
-8.11499e-228
6.80811e-231
-5.31172e-226
4.18436e-229
-3.38358e-224
2.48747e-227
-2.09932e-222
1.42995e-225
-1.26961e-220
7.9443e-224
-7.48956e-219
4.26055e-222
-4.31227e-217
2.20154e-220
-2.4247e-215
1.09277e-218
-1.33207e-213
5.18538e-217
-7.15301e-212
2.33355e-215
-3.75577e-210
9.82066e-214
-1.92877e-208
3.7595e-212
-9.69005e-207
1.22512e-210
-4.76318e-205
2.66232e-209
-2.23889e-203
-5.21514e-205
-9.28661e-202
-1.2686e-202
-3.3758e-200
-9.17978e-201
-1.06804e-198
-4.63749e-199
-2.92139e-197
-1.83856e-197
-6.86623e-196
-5.93394e-196
-1.37953e-194
-1.58161e-194
-2.36054e-193
-3.50328e-193
-3.43343e-192
-6.4717e-192
-4.2439e-191
-1.00032e-190
-4.45923e-190
-1.2986e-189
-3.98347e-189
-1.42072e-188
-3.03737e-188
-1.31228e-187
-2.00811e-187
-1.02818e-186
-1.17448e-186
-6.95373e-186
-6.1015e-186
-4.15286e-185
-2.7811e-185
-2.20242e-184
-1.10842e-184
-1.02429e-183
-3.91835e-184
-4.16331e-183
-1.26146e-183
-1.50065e-182
-3.78602e-183
-4.92616e-182
-1.06439e-182
-1.50856e-181
-2.78714e-182
-4.33101e-181
-6.76054e-182
-1.15922e-180
-1.51849e-181
-2.87762e-180
-3.16838e-181
-6.6256e-180
-6.17872e-181
-1.41988e-179
-1.13482e-180
-2.8497e-179
-1.97949e-180
-5.397e-179
-3.3002e-180
-9.72626e-179
-5.28665e-180
-1.67865e-178
-8.16434e-180
-2.7896e-178
-1.21774e-179
-4.47916e-178
-1.75602e-179
-6.96293e-178
-2.45026e-179
-1.04921e-177
-3.31098e-179
-1.53422e-177
-4.33644e-179
-2.17952e-177
-5.50797e-179
-3.01171e-177
-6.78918e-179
-4.05212e-177
-8.12655e-179
-5.31455e-177
-9.45047e-179
-6.80342e-177
-1.06795e-178
-8.51107e-177
-1.17263e-178
-1.04166e-176
-1.25038e-178
-1.24863e-176
-1.2933e-178
-1.4673e-176
-1.29501e-178
-1.69186e-176
-1.25127e-178
-1.91572e-176
-1.16038e-178
-2.13183e-176
-1.02173e-178
-2.33301e-176
-8.24714e-179
-2.50796e-176
-4.98799e-179
-2.59922e-176
-4.45652e-180
-2.18597e-176
-3.7494e-189
-3.13964e-177
-6.97687e-186
2.48622e-186
-4.41327e-183
1.56449e-177
-1.04058e-174
1.57813e-176
-6.53231e-174
2.56725e-176
-7.64712e-174
3.18765e-176
-7.40302e-174
3.64242e-176
-6.93592e-174
3.955e-176
-6.38712e-174
4.12331e-176
-5.78537e-174
4.14976e-176
-5.15131e-174
4.0451e-176
-4.50601e-174
3.827e-176
-3.86946e-174
3.51832e-176
-3.25947e-174
3.14506e-176
-2.6909e-174
2.73396e-176
-2.17496e-174
2.31076e-176
-1.71925e-174
1.89818e-176
-1.32757e-174
1.51448e-176
-1.00016e-174
1.17291e-176
-7.34323e-175
8.81242e-177
-5.249e-175
6.41785e-177
-3.64841e-175
4.52686e-177
-2.46309e-175
3.09011e-177
-1.61339e-175
2.03938e-177
-1.02419e-175
1.29897e-177
-6.28864e-176
7.9591e-178
-3.72221e-176
4.66712e-178
-2.11272e-176
2.60296e-178
-1.14286e-176
1.36943e-178
-5.84386e-177
6.74598e-179
-2.80427e-177
3.09307e-179
-1.25518e-177
1.31573e-179
-5.22147e-178
5.19364e-180
-2.01797e-178
1.91282e-180
-7.28237e-179
6.61085e-181
-2.46757e-179
2.13294e-181
-7.80992e-180
6.27372e-182
-2.25397e-180
1.63831e-182
-5.77659e-181
3.74578e-183
-1.296e-181
7.53114e-184
-2.55577e-182
1.34871e-184
-4.48772e-183
2.13898e-185
-6.96525e-184
2.93828e-186
-9.32245e-185
3.44116e-187
-1.05741e-185
3.42475e-188
-1.01245e-186
2.896e-189
-8.16733e-188
2.07892e-190
-5.52839e-189
1.26667e-191
-3.12678e-190
6.56165e-193
-1.47267e-191
2.90051e-194
-5.75586e-193
1.09972e-195
-1.85548e-194
3.59826e-197
-4.86523e-196
1.02284e-198
-1.00146e-197
2.54343e-200
-1.44698e-199
5.571e-202
-6.83861e-202
1.16161e-203
3.91364e-206
2.36762e-205
1.89103e-207
4.71677e-207
5.97772e-209
9.18321e-209
1.6014e-210
1.74686e-210
3.89426e-212
3.24567e-212
8.84392e-214
5.88802e-214
1.90283e-215
1.04246e-215
3.91045e-217
1.80031e-217
7.71379e-219
3.03097e-219
1.46511e-220
4.9713e-221
2.68458e-222
7.93771e-223
4.75123e-224
1.23283e-224
8.12715e-226
1.86082e-226
1.34395e-227
2.72696e-228
2.1484e-229
3.87582e-230
3.31893e-231
5.33651e-232
4.95228e-233
7.10915e-234
7.13223e-235
9.15074e-236
9.90545e-237
1.13641e-237
1.32524e-238
1.35944e-239
1.70591e-240
1.56381e-241
2.10991e-242
1.72658e-243
2.50349e-244
1.82592e-245
2.84482e-246
1.84543e-247
3.09001e-248
1.77815e-249
3.20141e-250
1.62902e-251
3.1563e-252
1.41474e-253
2.95352e-254
1.16087e-255
2.61557e-256
8.96697e-258
2.185e-258
6.49327e-260
1.71561e-260
4.3873e-262
1.26094e-262
2.75117e-264
8.63478e-265
1.59124e-266
5.48003e-267
8.42768e-269
3.20342e-269
4.05243e-271
1.71244e-271
1.75094e-273
8.29998e-274
6.71212e-276
3.61013e-276
2.24654e-278
1.39137e-278
6.42921e-281
4.67607e-281
1.52907e-283
1.34203e-283
2.90054e-286
3.1969e-286
4.11313e-289
6.0665e-289
3.87524e-292
8.59517e-292
1.82014e-295
8.081e-295
1.95483e-301
3.78274e-298
-2.30427e-295
4.80577e-298
-4.91215e-292
1.02777e-294
-5.20872e-289
1.09202e-291
-3.66709e-286
7.69427e-289
-1.92939e-283
4.0465e-286
-8.09515e-281
1.69497e-283
-2.82238e-278
5.89237e-281
-8.41339e-276
1.7492e-278
-2.18968e-273
4.52787e-276
-5.0561e-271
1.03853e-273
-1.04906e-268
2.13761e-271
-1.97616e-266
3.98935e-269
-3.40884e-264
6.80852e-267
-5.42372e-262
1.07031e-264
-8.0091e-260
1.55938e-262
-1.10356e-257
2.11686e-260
-1.42553e-255
2.68997e-258
-1.7335e-253
3.21291e-256
-1.99178e-251
3.62012e-254
-2.16953e-249
3.86033e-252
-2.24692e-247
3.90719e-250
-2.21859e-245
3.76334e-248
-2.09362e-243
3.45758e-246
-1.89245e-241
3.03654e-244
-1.64188e-239
2.55403e-242
-1.36983e-237
2.0609e-240
-1.1009e-235
1.59788e-238
-8.53646e-234
1.19203e-236
-6.39576e-232
8.56659e-235
-4.63638e-230
5.93697e-233
-3.25597e-228
3.97139e-231
-2.21766e-226
2.56595e-229
-1.4665e-224
1.60217e-227
-9.4247e-223
9.6708e-226
-5.89161e-221
5.64325e-224
-3.58538e-219
3.18274e-222
-2.12564e-217
1.73379e-220
-1.22852e-215
9.11175e-219
-6.92579e-214
4.61067e-217
-3.81042e-212
2.23945e-215
-2.04684e-210
1.03894e-213
-1.0739e-208
4.56646e-212
-5.50481e-207
1.87445e-210
-2.7575e-205
6.98491e-209
-1.35005e-203
2.20645e-207
-6.46065e-202
4.56751e-206
-2.94295e-200
-7.91483e-202
-1.17926e-198
-1.68587e-199
-4.12771e-197
-1.16328e-197
-1.25333e-195
-5.62174e-196
-3.2794e-194
-2.12887e-194
-7.35032e-193
-6.54657e-193
-1.40439e-191
-1.65809e-191
-2.27995e-190
-3.48125e-190
-3.14121e-189
-6.08293e-189
-3.67537e-188
-8.88077e-188
-3.65642e-187
-1.0885e-186
-3.09336e-186
-1.12501e-185
-2.23314e-185
-9.82342e-185
-1.39848e-184
-7.27617e-184
-7.76567e-184
-4.65515e-183
-3.84276e-183
-2.63611e-182
-1.67246e-182
-1.32984e-181
-6.37733e-182
-5.89784e-181
-2.16097e-181
-2.29146e-180
-6.68035e-181
-7.91332e-180
-1.92928e-180
-2.49366e-179
-5.22948e-180
-7.34541e-179
-1.3227e-179
-2.032e-178
-3.10488e-179
-5.24943e-178
-6.76309e-179
-1.26006e-177
-1.37145e-178
-2.8116e-177
-2.60469e-178
-5.85299e-177
-4.66729e-178
-1.14372e-176
-7.95524e-178
-2.11297e-176
-1.29781e-177
-3.72072e-176
-2.03698e-177
-6.28352e-176
-3.08592e-177
-1.02307e-175
-4.5203e-177
-1.61135e-175
-6.40849e-177
-2.45977e-175
-8.80039e-177
-3.6435e-175
-1.17153e-176
-5.24249e-175
-1.51313e-176
-7.33563e-175
-1.8972e-176
-9.99434e-175
-2.31064e-176
-1.32714e-174
-2.73545e-176
-1.71955e-174
-3.14909e-176
-2.17673e-174
-3.52599e-176
-2.69524e-174
-3.83953e-176
-3.26797e-174
-4.06368e-176
-3.88428e-174
-4.17545e-176
-4.53004e-174
-4.15681e-176
-5.18836e-174
-3.99645e-176
-5.84038e-174
-3.69068e-176
-6.46641e-174
-3.23884e-176
-7.04672e-174
-2.60906e-176
-7.54932e-174
-1.58317e-176
-7.80759e-174
-1.47942e-177
-6.58621e-174
-2.0403e-186
-9.88787e-175
-3.63579e-183
9.75071e-184
-1.66337e-180
3.80303e-175
-2.40073e-172
3.71378e-174
-1.45765e-171
6.03901e-174
-1.70414e-171
7.51018e-174
-1.65103e-171
8.60187e-174
-1.54973e-171
9.37162e-174
-1.43154e-171
9.8137e-174
-1.30227e-171
9.93038e-174
-1.16583e-171
9.74201e-174
-1.02638e-171
9.28469e-174
-8.87969e-172
8.60685e-174
-7.54311e-172
7.76514e-174
-6.28607e-172
6.81927e-174
-5.13374e-172
5.82834e-174
-4.1044e-172
4.8461e-174
-3.20868e-172
3.91749e-174
-2.44975e-172
3.07702e-174
-1.82454e-172
2.34702e-174
-1.32431e-172
1.73701e-174
-9.35595e-173
1.24634e-174
-6.42623e-173
8.66334e-175
-4.28684e-173
5.82858e-175
-2.77432e-173
3.78906e-175
-1.73866e-173
2.37258e-175
-1.0517e-173
1.42381e-175
-6.10943e-174
8.1402e-176
-3.38827e-174
4.39841e-176
-1.77993e-174
2.23039e-176
-8.79726e-175
1.0552e-176
-4.0662e-175
4.64172e-177
-1.7508e-175
1.89821e-177
-7.01614e-176
7.25491e-178
-2.62919e-176
2.60648e-178
-9.2644e-177
8.75934e-179
-3.05498e-177
2.68882e-179
-9.20608e-178
7.34464e-180
-2.47053e-178
1.76059e-180
-5.81966e-179
3.72052e-181
-1.20803e-179
7.0249e-182
-2.23934e-180
1.17726e-182
-3.67739e-181
1.70973e-183
-5.21182e-182
2.11674e-184
-6.26146e-183
2.22815e-185
-6.3559e-184
1.99353e-186
-5.43953e-185
1.51322e-187
-3.90473e-186
9.73346e-189
-2.33879e-187
5.31079e-190
-1.16415e-188
2.46587e-191
-4.79698e-190
9.79058e-193
-1.62611e-191
3.3439e-194
-4.47268e-193
9.88912e-196
-9.64215e-195
2.54978e-197
-1.46254e-196
5.7716e-199
-7.745e-199
1.23807e-200
4.8954e-203
2.5933e-202
2.48496e-204
5.30421e-204
8.11202e-206
1.05927e-205
2.23515e-207
2.06511e-207
5.5793e-209
3.9293e-209
1.29888e-210
7.29434e-211
2.86179e-212
1.32063e-212
6.01728e-214
2.33074e-214
1.21351e-215
4.00763e-216
2.35477e-217
6.70946e-218
4.4054e-219
1.09292e-219
7.95592e-221
1.73083e-221
1.38792e-222
2.66259e-223
2.33953e-224
3.97494e-225
3.81043e-226
5.75283e-227
5.99485e-228
8.06243e-229
9.10592e-230
1.09283e-230
1.33448e-231
1.43072e-232
1.88524e-233
1.80655e-234
2.56471e-235
2.1966e-236
3.35589e-237
2.56752e-238
4.21778e-239
2.87958e-240
5.08398e-241
3.09253e-242
5.86713e-243
3.17324e-244
6.47031e-245
3.10339e-246
6.80438e-247
2.88502e-248
6.80769e-249
2.54187e-250
6.46298e-251
2.11552e-252
5.8054e-253
1.65708e-254
4.9181e-255
1.21657e-256
3.9152e-257
8.33223e-259
2.91696e-259
5.29528e-261
2.02446e-261
3.10338e-263
1.30191e-263