/*--------------------------------*- C++ -*----------------------------------*\
| =========                 |                                                 |
| \\      /  F ield         | OpenFOAM: The Open Source CFD Toolbox           |
|  \\    /   O peration     | Version:  2412                                  |
|   \\  /    A nd           | Website:  www.openfoam.com                      |
|    \\/     M anipulation  |                                                 |
\*---------------------------------------------------------------------------*/
FoamFile
{
    version     2.0;
    format      ascii;
    arch        "LSB;label=32;scalar=64";
    class       volScalarField;
    location    "1.17";
    object      p;
}
// * * * * * * * * * * * * * * * * * * * * * * * * * * * * * * * * * * * * * //

dimensions      [1 -1 -2 0 0 0 0];

internalField   nonuniform List<scalar> 
40000
(
0
1.48705e-05
-7.01281e-05
-0.00026271
-0.000563768
-0.000973301
-0.00149078
-0.00211562
-0.00284716
-0.00368467
-0.0046273
-0.00567414
-0.00682421
-0.00807647
-0.00942983
-0.0108831
-0.0124349
-0.014084
-0.0158287
-0.0176676
-0.019599
-0.0216212
-0.0237323
-0.0259305
-0.0282137
-0.0305798
-0.0330268
-0.0355524
-0.0381542
-0.0408297
-0.0435767
-0.0463923
-0.049274
-0.052219
-0.0552245
-0.0582877
-0.0614057
-0.0645753
-0.0677938
-0.0710578
-0.0743642
-0.0777097
-0.0810911
-0.084505
-0.0879481
-0.0914169
-0.0949079
-0.0984176
-0.101942
-0.105479
-0.109023
-0.112571
-0.11612
-0.119666
-0.123206
-0.126735
-0.13025
-0.133747
-0.137223
-0.140674
-0.144097
-0.147487
-0.150841
-0.154157
-0.157429
-0.160655
-0.163831
-0.166953
-0.17002
-0.173027
-0.17597
-0.178848
-0.181657
-0.184393
-0.187054
-0.189638
-0.19214
-0.19456
-0.196893
-0.199138
-0.201293
-0.203354
-0.20532
-0.207188
-0.208958
-0.210626
-0.212191
-0.213651
-0.215006
-0.216252
-0.21739
-0.218418
-0.219334
-0.220139
-0.22083
-0.221408
-0.221871
-0.22222
-0.222453
-0.222571
-0.222573
-0.22246
-0.222231
-0.221888
-0.221429
-0.220856
-0.22017
-0.21937
-0.218458
-0.217435
-0.216302
-0.21506
-0.21371
-0.212254
-0.210694
-0.20903
-0.207265
-0.205401
-0.20344
-0.201383
-0.199233
-0.196992
-0.194663
-0.192248
-0.189749
-0.18717
-0.184512
-0.18178
-0.178975
-0.176101
-0.173161
-0.170158
-0.167096
-0.163976
-0.160804
-0.157581
-0.154312
-0.151001
-0.147649
-0.144262
-0.140843
-0.137395
-0.133922
-0.130427
-0.126915
-0.123389
-0.119853
-0.116309
-0.112763
-0.109217
-0.105675
-0.102142
-0.0986195
-0.0951124
-0.0916239
-0.0881575
-0.0847168
-0.0813051
-0.0779259
-0.0745824
-0.0712779
-0.0680159
-0.0647993
-0.0616315
-0.0585153
-0.0554539
-0.0524501
-0.0495067
-0.0466266
-0.0438125
-0.0410671
-0.038393
-0.0357927
-0.0332685
-0.0308228
-0.0284577
-0.0261755
-0.0239783
-0.0218682
-0.0198469
-0.0179163
-0.0160781
-0.014334
-0.0126855
-0.0111342
-0.00968138
-0.0083283
-0.00707612
-0.00592605
-0.00487908
-0.00393609
-0.003098
-0.00236539
-0.00173912
-0.00121951
-0.000806946
-0.000501858
-0.000304994
-0.000217547
-0.000236996
-3.92402
-3.924
-3.92408
-3.92427
-3.92458
-3.92499
-3.9255
-3.92613
-3.92686
-3.9277
-3.92864
-3.92969
-3.93084
-3.93209
-3.93344
-3.9349
-3.93645
-3.9381
-3.93984
-3.94168
-3.94361
-3.94563
-3.94775
-3.94994
-3.95223
-3.95459
-3.95704
-3.95957
-3.96217
-3.96484
-3.96759
-3.97041
-3.97329
-3.97623
-3.97924
-3.9823
-3.98542
-3.98859
-3.99181
-3.99507
-3.99838
-4.00172
-4.0051
-4.00852
-4.01196
-4.01543
-4.01892
-4.02243
-4.02595
-4.02949
-4.03303
-4.03658
-4.04013
-4.04368
-4.04721
-4.05074
-4.05426
-4.05775
-4.06123
-4.06468
-4.0681
-4.07149
-4.07484
-4.07816
-4.08143
-4.08465
-4.08783
-4.09095
-4.09402
-4.09702
-4.09997
-4.10284
-4.10565
-4.10838
-4.11104
-4.11363
-4.11613
-4.11855
-4.12088
-4.12312
-4.12528
-4.12734
-4.1293
-4.13117
-4.13294
-4.1346
-4.13617
-4.13763
-4.13898
-4.14023
-4.14137
-4.14239
-4.14331
-4.14411
-4.1448
-4.14538
-4.14584
-4.14619
-4.14643
-4.14654
-4.14655
-4.14643
-4.1462
-4.14586
-4.1454
-4.14483
-4.14414
-4.14334
-4.14243
-4.14141
-4.14028
-4.13904
-4.13769
-4.13623
-4.13467
-4.13301
-4.13125
-4.12938
-4.12742
-4.12537
-4.12322
-4.12098
-4.11865
-4.11624
-4.11374
-4.11116
-4.1085
-4.10577
-4.10297
-4.1001
-4.09716
-4.09416
-4.09109
-4.08797
-4.0848
-4.08158
-4.07831
-4.075
-4.07165
-4.06827
-4.06485
-4.0614
-4.05793
-4.05443
-4.05092
-4.0474
-4.04386
-4.04032
-4.03677
-4.03323
-4.02969
-4.02615
-4.02263
-4.01912
-4.01564
-4.01217
-4.00873
-4.00532
-4.00194
-3.9986
-3.99529
-3.99203
-3.98881
-3.98564
-3.98253
-3.97947
-3.97646
-3.97352
-3.97064
-3.96783
-3.96508
-3.96241
-3.95981
-3.95728
-3.95484
-3.95247
-3.95019
-3.94799
-3.94588
-3.94386
-3.94193
-3.94009
-3.93835
-3.9367
-3.93515
-3.93369
-3.93234
-3.93109
-3.92994
-3.92889
-3.92795
-3.92711
-3.92638
-3.92575
-3.92523
-3.92482
-3.92451
-3.92432
-3.92423
-3.92425
-7.84793
-7.84792
-7.848
-7.84819
-7.84849
-7.84891
-7.84942
-7.85005
-7.85078
-7.85162
-7.85256
-7.85361
-7.85476
-7.85602
-7.85737
-7.85882
-7.86038
-7.86203
-7.86377
-7.86561
-7.86755
-7.86957
-7.87168
-7.87388
-7.87617
-7.87854
-7.88099
-7.88351
-7.88612
-7.8888
-7.89154
-7.89436
-7.89725
-7.90019
-7.9032
-7.90627
-7.90939
-7.91256
-7.91578
-7.91905
-7.92236
-7.9257
-7.92909
-7.93251
-7.93595
-7.93942
-7.94292
-7.94643
-7.94996
-7.95349
-7.95704
-7.96059
-7.96414
-7.96769
-7.97123
-7.97476
-7.97828
-7.98178
-7.98526
-7.98871
-7.99214
-7.99553
-7.99888
-8.0022
-8.00547
-8.0087
-8.01188
-8.015
-8.01807
-8.02108
-8.02402
-8.0269
-8.02971
-8.03245
-8.03511
-8.03769
-8.0402
-8.04262
-8.04495
-8.0472
-8.04935
-8.05141
-8.05338
-8.05525
-8.05702
-8.05868
-8.06025
-8.06171
-8.06306
-8.06431
-8.06545
-8.06648
-8.06739
-8.0682
-8.06889
-8.06947
-8.06993
-8.07028
-8.07051
-8.07063
-8.07063
-8.07052
-8.07029
-8.06995
-8.06949
-8.06892
-8.06823
-8.06743
-8.06652
-8.06549
-8.06436
-8.06312
-8.06177
-8.06031
-8.05875
-8.05709
-8.05532
-8.05346
-8.0515
-8.04944
-8.04729
-8.04505
-8.04272
-8.0403
-8.03781
-8.03523
-8.03257
-8.02983
-8.02703
-8.02415
-8.02121
-8.01821
-8.01514
-8.01202
-8.00885
-8.00563
-8.00236
-7.99904
-7.99569
-7.9923
-7.98888
-7.98543
-7.98196
-7.97846
-7.97494
-7.97142
-7.96788
-7.96433
-7.96078
-7.95723
-7.95369
-7.95015
-7.94663
-7.94312
-7.93963
-7.93616
-7.93272
-7.9293
-7.92592
-7.92258
-7.91927
-7.916
-7.91278
-7.90961
-7.9065
-7.90343
-7.90043
-7.89748
-7.8946
-7.89178
-7.88903
-7.88636
-7.88375
-7.88123
-7.87878
-7.87641
-7.87413
-7.87193
-7.86982
-7.8678
-7.86586
-7.86402
-7.86228
-7.86063
-7.85907
-7.85762
-7.85627
-7.85501
-7.85386
-7.85281
-7.85187
-7.85103
-7.8503
-7.84967
-7.84915
-7.84874
-7.84843
-7.84824
-7.84815
-7.84817
-11.7717
-11.7717
-11.7718
-11.772
-11.7723
-11.7727
-11.7732
-11.7739
-11.7746
-11.7754
-11.7764
-11.7774
-11.7786
-11.7798
-11.7812
-11.7827
-11.7842
-11.7859
-11.7876
-11.7895
-11.7914
-11.7934
-11.7955
-11.7977
-11.8
-11.8024
-11.8049
-11.8074
-11.81
-11.8127
-11.8154
-11.8183
-11.8211
-11.8241
-11.8271
-11.8302
-11.8333
-11.8365
-11.8397
-11.843
-11.8463
-11.8497
-11.853
-11.8565
-11.8599
-11.8634
-11.8669
-11.8704
-11.8739
-11.8775
-11.881
-11.8846
-11.8882
-11.8917
-11.8953
-11.8988
-11.9023
-11.9058
-11.9093
-11.9128
-11.9162
-11.9196
-11.923
-11.9263
-11.9296
-11.9328
-11.936
-11.9391
-11.9422
-11.9452
-11.9482
-11.951
-11.9539
-11.9566
-11.9593
-11.9618
-11.9644
-11.9668
-11.9691
-11.9714
-11.9735
-11.9756
-11.9776
-11.9794
-11.9812
-11.9829
-11.9844
-11.9859
-11.9873
-11.9885
-11.9897
-11.9907
-11.9916
-11.9924
-11.9931
-11.9937
-11.9941
-11.9945
-11.9947
-11.9948
-11.9948
-11.9947
-11.9945
-11.9942
-11.9937
-11.9931
-11.9924
-11.9916
-11.9907
-11.9897
-11.9886
-11.9873
-11.986
-11.9845
-11.9829
-11.9813
-11.9795
-11.9776
-11.9757
-11.9736
-11.9715
-11.9692
-11.9669
-11.9645
-11.962
-11.9594
-11.9567
-11.954
-11.9512
-11.9483
-11.9453
-11.9423
-11.9393
-11.9361
-11.933
-11.9297
-11.9264
-11.9231
-11.9198
-11.9164
-11.9129
-11.9095
-11.906
-11.9025
-11.899
-11.8954
-11.8919
-11.8883
-11.8848
-11.8812
-11.8777
-11.8741
-11.8706
-11.8671
-11.8636
-11.8601
-11.8567
-11.8533
-11.8499
-11.8465
-11.8432
-11.8399
-11.8367
-11.8335
-11.8304
-11.8273
-11.8243
-11.8214
-11.8185
-11.8157
-11.8129
-11.8102
-11.8076
-11.8051
-11.8026
-11.8003
-11.798
-11.7958
-11.7937
-11.7916
-11.7897
-11.7879
-11.7861
-11.7845
-11.7829
-11.7815
-11.7801
-11.7788
-11.7777
-11.7766
-11.7757
-11.7749
-11.7741
-11.7735
-11.773
-11.7726
-11.7722
-11.7721
-11.772
-11.772
-15.6955
-15.6954
-15.6955
-15.6957
-15.696
-15.6964
-15.697
-15.6976
-15.6983
-15.6992
-15.7001
-15.7012
-15.7023
-15.7036
-15.7049
-15.7064
-15.708
-15.7096
-15.7114
-15.7132
-15.7152
-15.7172
-15.7193
-15.7215
-15.7238
-15.7262
-15.7286
-15.7312
-15.7338
-15.7365
-15.7393
-15.7421
-15.745
-15.7479
-15.751
-15.754
-15.7572
-15.7604
-15.7636
-15.7669
-15.7702
-15.7736
-15.777
-15.7804
-15.7839
-15.7873
-15.7909
-15.7944
-15.7979
-15.8015
-15.805
-15.8086
-15.8122
-15.8157
-15.8193
-15.8229
-15.8264
-15.8299
-15.8334
-15.8369
-15.8403
-15.8437
-15.8471
-15.8504
-15.8537
-15.857
-15.8601
-15.8633
-15.8664
-15.8694
-15.8724
-15.8752
-15.8781
-15.8808
-15.8835
-15.8861
-15.8886
-15.891
-15.8934
-15.8956
-15.8978
-15.8999
-15.9019
-15.9037
-15.9055
-15.9072
-15.9088
-15.9102
-15.9116
-15.9128
-15.914
-15.915
-15.9159
-15.9167
-15.9174
-15.918
-15.9185
-15.9188
-15.9191
-15.9192
-15.9192
-15.9191
-15.9189
-15.9185
-15.918
-15.9175
-15.9168
-15.916
-15.9151
-15.914
-15.9129
-15.9116
-15.9103
-15.9088
-15.9073
-15.9056
-15.9038
-15.9019
-15.9
-15.8979
-15.8957
-15.8935
-15.8911
-15.8887
-15.8862
-15.8836
-15.8809
-15.8782
-15.8754
-15.8725
-15.8695
-15.8665
-15.8634
-15.8603
-15.8571
-15.8539
-15.8506
-15.8472
-15.8439
-15.8405
-15.837
-15.8336
-15.8301
-15.8266
-15.823
-15.8195
-15.8159
-15.8124
-15.8088
-15.8052
-15.8017
-15.7981
-15.7946
-15.7911
-15.7876
-15.7841
-15.7806
-15.7772
-15.7738
-15.7704
-15.7671
-15.7638
-15.7606
-15.7574
-15.7543
-15.7512
-15.7482
-15.7452
-15.7423
-15.7395
-15.7367
-15.734
-15.7314
-15.7289
-15.7264
-15.7241
-15.7218
-15.7196
-15.7174
-15.7154
-15.7135
-15.7116
-15.7099
-15.7082
-15.7066
-15.7052
-15.7038
-15.7026
-15.7014
-15.7004
-15.6994
-15.6986
-15.6978
-15.6972
-15.6967
-15.6963
-15.696
-15.6958
-15.6957
-15.6957
-19.6191
-19.619
-19.6191
-19.6193
-19.6196
-19.62
-19.6206
-19.6212
-19.6219
-19.6228
-19.6237
-19.6248
-19.6259
-19.6272
-19.6286
-19.63
-19.6316
-19.6333
-19.635
-19.6369
-19.6388
-19.6409
-19.643
-19.6452
-19.6475
-19.6499
-19.6524
-19.6549
-19.6575
-19.6602
-19.663
-19.6658
-19.6688
-19.6717
-19.6748
-19.6778
-19.681
-19.6842
-19.6874
-19.6907
-19.6941
-19.6974
-19.7009
-19.7043
-19.7078
-19.7113
-19.7148
-19.7183
-19.7219
-19.7255
-19.729
-19.7326
-19.7362
-19.7398
-19.7434
-19.7469
-19.7505
-19.754
-19.7575
-19.761
-19.7644
-19.7679
-19.7712
-19.7746
-19.7779
-19.7812
-19.7844
-19.7875
-19.7906
-19.7936
-19.7966
-19.7995
-19.8024
-19.8051
-19.8078
-19.8104
-19.8129
-19.8154
-19.8177
-19.82
-19.8222
-19.8243
-19.8262
-19.8281
-19.8299
-19.8316
-19.8332
-19.8347
-19.836
-19.8373
-19.8384
-19.8395
-19.8404
-19.8412
-19.8419
-19.8425
-19.843
-19.8433
-19.8435
-19.8437
-19.8437
-19.8436
-19.8433
-19.843
-19.8425
-19.8419
-19.8412
-19.8404
-19.8395
-19.8385
-19.8373
-19.8361
-19.8347
-19.8332
-19.8317
-19.83
-19.8282
-19.8263
-19.8244
-19.8223
-19.8201
-19.8178
-19.8155
-19.8131
-19.8105
-19.8079
-19.8052
-19.8025
-19.7997
-19.7968
-19.7938
-19.7908
-19.7877
-19.7845
-19.7813
-19.7781
-19.7748
-19.7714
-19.768
-19.7646
-19.7612
-19.7577
-19.7542
-19.7506
-19.7471
-19.7435
-19.74
-19.7364
-19.7328
-19.7292
-19.7257
-19.7221
-19.7185
-19.715
-19.7115
-19.708
-19.7045
-19.7011
-19.6977
-19.6943
-19.6909
-19.6877
-19.6844
-19.6812
-19.6781
-19.675
-19.672
-19.669
-19.6661
-19.6632
-19.6605
-19.6578
-19.6552
-19.6526
-19.6501
-19.6478
-19.6455
-19.6432
-19.6411
-19.6391
-19.6371
-19.6353
-19.6335
-19.6319
-19.6303
-19.6288
-19.6275
-19.6262
-19.625
-19.624
-19.623
-19.6222
-19.6215
-19.6208
-19.6203
-19.6199
-19.6196
-19.6194
-19.6193
-19.6193
-23.5426
-23.5426
-23.5426
-23.5428
-23.5431
-23.5436
-23.5441
-23.5447
-23.5455
-23.5463
-23.5473
-23.5483
-23.5495
-23.5508
-23.5521
-23.5536
-23.5552
-23.5568
-23.5586
-23.5605
-23.5624
-23.5645
-23.5666
-23.5688
-23.5711
-23.5735
-23.576
-23.5786
-23.5812
-23.5839
-23.5867
-23.5895
-23.5925
-23.5955
-23.5985
-23.6016
-23.6048
-23.608
-23.6112
-23.6145
-23.6179
-23.6213
-23.6247
-23.6282
-23.6317
-23.6352
-23.6387
-23.6423
-23.6458
-23.6494
-23.653
-23.6566
-23.6602
-23.6638
-23.6674
-23.671
-23.6746
-23.6781
-23.6816
-23.6851
-23.6886
-23.692
-23.6955
-23.6988
-23.7021
-23.7054
-23.7086
-23.7118
-23.7149
-23.718
-23.721
-23.7239
-23.7267
-23.7295
-23.7322
-23.7348
-23.7374
-23.7398
-23.7422
-23.7445
-23.7467
-23.7488
-23.7507
-23.7526
-23.7544
-23.7561
-23.7577
-23.7592
-23.7606
-23.7618
-23.763
-23.764
-23.765
-23.7658
-23.7665
-23.7671
-23.7676
-23.7679
-23.7681
-23.7683
-23.7683
-23.7681
-23.7679
-23.7676
-23.7671
-23.7665
-23.7658
-23.765
-23.7641
-23.763
-23.7619
-23.7606
-23.7593
-23.7578
-23.7562
-23.7545
-23.7527
-23.7508
-23.7488
-23.7468
-23.7446
-23.7423
-23.7399
-23.7375
-23.7349
-23.7323
-23.7296
-23.7269
-23.724
-23.7211
-23.7181
-23.7151
-23.7119
-23.7088
-23.7056
-23.7023
-23.699
-23.6956
-23.6922
-23.6888
-23.6853
-23.6818
-23.6783
-23.6747
-23.6712
-23.6676
-23.664
-23.6604
-23.6568
-23.6532
-23.6496
-23.646
-23.6425
-23.6389
-23.6354
-23.6319
-23.6284
-23.6249
-23.6215
-23.6181
-23.6148
-23.6115
-23.6082
-23.605
-23.6018
-23.5987
-23.5957
-23.5927
-23.5898
-23.5869
-23.5842
-23.5814
-23.5788
-23.5763
-23.5738
-23.5714
-23.5691
-23.5668
-23.5647
-23.5627
-23.5607
-23.5588
-23.5571
-23.5554
-23.5538
-23.5524
-23.551
-23.5497
-23.5486
-23.5475
-23.5466
-23.5457
-23.545
-23.5443
-23.5438
-23.5434
-23.5431
-23.5429
-23.5428
-23.5428
-27.466
-27.466
-27.466
-27.4662
-27.4666
-27.467
-27.4675
-27.4681
-27.4689
-27.4697
-27.4707
-27.4718
-27.4729
-27.4742
-27.4756
-27.4771
-27.4786
-27.4803
-27.4821
-27.484
-27.4859
-27.488
-27.4901
-27.4924
-27.4947
-27.4971
-27.4996
-27.5022
-27.5048
-27.5075
-27.5103
-27.5132
-27.5161
-27.5191
-27.5222
-27.5253
-27.5285
-27.5317
-27.535
-27.5383
-27.5417
-27.5451
-27.5485
-27.552
-27.5555
-27.5591
-27.5626
-27.5662
-27.5698
-27.5734
-27.577
-27.5806
-27.5843
-27.5879
-27.5915
-27.5951
-27.5987
-27.6022
-27.6058
-27.6093
-27.6128
-27.6163
-27.6197
-27.6231
-27.6264
-27.6297
-27.633
-27.6362
-27.6393
-27.6424
-27.6454
-27.6483
-27.6512
-27.654
-27.6567
-27.6593
-27.6619
-27.6644
-27.6667
-27.669
-27.6712
-27.6733
-27.6754
-27.6773
-27.6791
-27.6808
-27.6824
-27.6839
-27.6853
-27.6865
-27.6877
-27.6887
-27.6897
-27.6905
-27.6912
-27.6918
-27.6923
-27.6926
-27.6929
-27.693
-27.693
-27.6929
-27.6926
-27.6923
-27.6918
-27.6912
-27.6905
-27.6897
-27.6888
-27.6877
-27.6866
-27.6853
-27.6839
-27.6824
-27.6808
-27.6791
-27.6773
-27.6754
-27.6734
-27.6713
-27.6691
-27.6668
-27.6645
-27.662
-27.6594
-27.6568
-27.6541
-27.6513
-27.6484
-27.6455
-27.6425
-27.6394
-27.6363
-27.6331
-27.6299
-27.6266
-27.6232
-27.6199
-27.6164
-27.613
-27.6095
-27.606
-27.6024
-27.5989
-27.5953
-27.5917
-27.5881
-27.5844
-27.5808
-27.5772
-27.5736
-27.57
-27.5664
-27.5628
-27.5593
-27.5557
-27.5522
-27.5487
-27.5453
-27.5419
-27.5385
-27.5352
-27.5319
-27.5287
-27.5255
-27.5224
-27.5194
-27.5164
-27.5134
-27.5106
-27.5078
-27.505
-27.5024
-27.4998
-27.4973
-27.4949
-27.4926
-27.4904
-27.4882
-27.4862
-27.4842
-27.4823
-27.4806
-27.4789
-27.4773
-27.4758
-27.4744
-27.4732
-27.472
-27.4709
-27.47
-27.4691
-27.4684
-27.4677
-27.4672
-27.4668
-27.4665
-27.4663
-27.4662
-27.4662
-31.3893
-31.3893
-31.3893
-31.3895
-31.3899
-31.3903
-31.3908
-31.3914
-31.3922
-31.3931
-31.394
-31.3951
-31.3963
-31.3975
-31.3989
-31.4004
-31.402
-31.4037
-31.4055
-31.4074
-31.4093
-31.4114
-31.4136
-31.4158
-31.4181
-31.4206
-31.4231
-31.4257
-31.4283
-31.4311
-31.4339
-31.4368
-31.4397
-31.4427
-31.4458
-31.4489
-31.4521
-31.4554
-31.4587
-31.462
-31.4654
-31.4689
-31.4723
-31.4758
-31.4794
-31.4829
-31.4865
-31.4901
-31.4937
-31.4974
-31.501
-31.5046
-31.5083
-31.5119
-31.5156
-31.5192
-31.5228
-31.5264
-31.53
-31.5335
-31.537
-31.5405
-31.544
-31.5474
-31.5508
-31.5541
-31.5573
-31.5606
-31.5637
-31.5668
-31.5698
-31.5728
-31.5757
-31.5785
-31.5813
-31.5839
-31.5865
-31.589
-31.5914
-31.5937
-31.5959
-31.598
-31.6001
-31.602
-31.6038
-31.6055
-31.6071
-31.6087
-31.61
-31.6113
-31.6125
-31.6136
-31.6145
-31.6153
-31.6161
-31.6166
-31.6171
-31.6175
-31.6177
-31.6178
-31.6178
-31.6177
-31.6175
-31.6171
-31.6167
-31.6161
-31.6154
-31.6145
-31.6136
-31.6126
-31.6114
-31.6101
-31.6087
-31.6072
-31.6056
-31.6039
-31.6021
-31.6002
-31.5981
-31.596
-31.5938
-31.5915
-31.5891
-31.5866
-31.584
-31.5814
-31.5786
-31.5758
-31.5729
-31.57
-31.5669
-31.5639
-31.5607
-31.5575
-31.5542
-31.5509
-31.5475
-31.5441
-31.5407
-31.5372
-31.5337
-31.5302
-31.5266
-31.523
-31.5194
-31.5158
-31.5121
-31.5085
-31.5048
-31.5012
-31.4976
-31.4939
-31.4903
-31.4867
-31.4831
-31.4796
-31.476
-31.4725
-31.4691
-31.4656
-31.4623
-31.4589
-31.4556
-31.4524
-31.4492
-31.446
-31.443
-31.4399
-31.437
-31.4341
-31.4313
-31.4286
-31.4259
-31.4233
-31.4208
-31.4184
-31.4161
-31.4138
-31.4116
-31.4096
-31.4076
-31.4057
-31.4039
-31.4023
-31.4007
-31.3992
-31.3978
-31.3965
-31.3953
-31.3943
-31.3933
-31.3924
-31.3917
-31.3911
-31.3905
-31.3901
-31.3898
-31.3896
-31.3895
-31.3895
-35.3125
-35.3125
-35.3125
-35.3127
-35.3131
-35.3135
-35.314
-35.3147
-35.3154
-35.3163
-35.3172
-35.3183
-35.3195
-35.3208
-35.3222
-35.3237
-35.3253
-35.327
-35.3288
-35.3307
-35.3327
-35.3347
-35.3369
-35.3392
-35.3415
-35.344
-35.3465
-35.3491
-35.3518
-35.3545
-35.3574
-35.3603
-35.3632
-35.3663
-35.3694
-35.3725
-35.3758
-35.379
-35.3824
-35.3857
-35.3891
-35.3926
-35.3961
-35.3996
-35.4032
-35.4068
-35.4104
-35.414
-35.4176
-35.4213
-35.425
-35.4286
-35.4323
-35.436
-35.4397
-35.4433
-35.447
-35.4506
-35.4542
-35.4578
-35.4613
-35.4648
-35.4683
-35.4717
-35.4751
-35.4785
-35.4818
-35.485
-35.4882
-35.4913
-35.4944
-35.4974
-35.5003
-35.5031
-35.5059
-35.5086
-35.5112
-35.5137
-35.5161
-35.5185
-35.5207
-35.5228
-35.5249
-35.5268
-35.5287
-35.5304
-35.532
-35.5336
-35.535
-35.5363
-35.5374
-35.5385
-35.5395
-35.5403
-35.541
-35.5416
-35.5421
-35.5425
-35.5427
-35.5428
-35.5428
-35.5427
-35.5425
-35.5421
-35.5416
-35.541
-35.5403
-35.5395
-35.5386
-35.5375
-35.5363
-35.535
-35.5336
-35.5321
-35.5305
-35.5287
-35.5269
-35.525
-35.5229
-35.5208
-35.5186
-35.5162
-35.5138
-35.5113
-35.5087
-35.506
-35.5033
-35.5004
-35.4975
-35.4945
-35.4915
-35.4884
-35.4852
-35.4819
-35.4786
-35.4753
-35.4719
-35.4685
-35.465
-35.4615
-35.4579
-35.4544
-35.4508
-35.4471
-35.4435
-35.4398
-35.4362
-35.4325
-35.4288
-35.4252
-35.4215
-35.4179
-35.4142
-35.4106
-35.407
-35.4034
-35.3998
-35.3963
-35.3928
-35.3894
-35.3859
-35.3826
-35.3793
-35.376
-35.3728
-35.3696
-35.3665
-35.3635
-35.3605
-35.3576
-35.3548
-35.352
-35.3493
-35.3467
-35.3442
-35.3418
-35.3394
-35.3372
-35.335
-35.3329
-35.3309
-35.329
-35.3272
-35.3255
-35.3239
-35.3224
-35.321
-35.3198
-35.3186
-35.3175
-35.3165
-35.3157
-35.3149
-35.3143
-35.3137
-35.3133
-35.313
-35.3128
-35.3127
-35.3127
-39.2356
-39.2356
-39.2356
-39.2358
-39.2362
-39.2366
-39.2371
-39.2378
-39.2385
-39.2394
-39.2404
-39.2415
-39.2427
-39.2439
-39.2454
-39.2469
-39.2485
-39.2502
-39.252
-39.2539
-39.2559
-39.258
-39.2602
-39.2625
-39.2648
-39.2673
-39.2698
-39.2725
-39.2752
-39.2779
-39.2808
-39.2837
-39.2867
-39.2898
-39.2929
-39.2961
-39.2993
-39.3026
-39.306
-39.3094
-39.3128
-39.3163
-39.3198
-39.3234
-39.327
-39.3306
-39.3342
-39.3379
-39.3416
-39.3453
-39.349
-39.3527
-39.3564
-39.3601
-39.3638
-39.3675
-39.3711
-39.3748
-39.3784
-39.382
-39.3856
-39.3892
-39.3927
-39.3961
-39.3996
-39.403
-39.4063
-39.4096
-39.4128
-39.4159
-39.419
-39.422
-39.425
-39.4278
-39.4306
-39.4334
-39.436
-39.4385
-39.441
-39.4433
-39.4456
-39.4478
-39.4498
-39.4518
-39.4536
-39.4554
-39.457
-39.4586
-39.46
-39.4613
-39.4625
-39.4636
-39.4645
-39.4654
-39.4661
-39.4667
-39.4672
-39.4676
-39.4678
-39.468
-39.468
-39.4678
-39.4676
-39.4672
-39.4668
-39.4661
-39.4654
-39.4646
-39.4636
-39.4626
-39.4614
-39.4601
-39.4586
-39.4571
-39.4555
-39.4537
-39.4519
-39.4499
-39.4478
-39.4457
-39.4434
-39.4411
-39.4386
-39.4361
-39.4335
-39.4308
-39.428
-39.4251
-39.4222
-39.4191
-39.4161
-39.4129
-39.4097
-39.4064
-39.4031
-39.3997
-39.3963
-39.3928
-39.3893
-39.3858
-39.3822
-39.3786
-39.375
-39.3713
-39.3676
-39.364
-39.3603
-39.3566
-39.3529
-39.3491
-39.3455
-39.3418
-39.3381
-39.3344
-39.3308
-39.3272
-39.3236
-39.32
-39.3165
-39.313
-39.3096
-39.3062
-39.3028
-39.2996
-39.2963
-39.2931
-39.29
-39.2869
-39.2839
-39.281
-39.2782
-39.2754
-39.2727
-39.2701
-39.2675
-39.2651
-39.2627
-39.2604
-39.2582
-39.2561
-39.2541
-39.2522
-39.2504
-39.2487
-39.2471
-39.2456
-39.2442
-39.2429
-39.2417
-39.2406
-39.2397
-39.2388
-39.238
-39.2374
-39.2368
-39.2364
-39.2361
-39.2359
-39.2358
-39.2358
-43.1586
-43.1585
-43.1586
-43.1588
-43.1592
-43.1596
-43.1601
-43.1608
-43.1615
-43.1624
-43.1634
-43.1645
-43.1657
-43.167
-43.1684
-43.1699
-43.1716
-43.1733
-43.1751
-43.177
-43.179
-43.1812
-43.1834
-43.1857
-43.1881
-43.1905
-43.1931
-43.1957
-43.1985
-43.2013
-43.2041
-43.2071
-43.2101
-43.2132
-43.2163
-43.2196
-43.2228
-43.2262
-43.2295
-43.233
-43.2364
-43.24
-43.2435
-43.2471
-43.2507
-43.2544
-43.2581
-43.2617
-43.2655
-43.2692
-43.2729
-43.2767
-43.2804
-43.2841
-43.2879
-43.2916
-43.2953
-43.299
-43.3027
-43.3063
-43.31
-43.3135
-43.3171
-43.3206
-43.3241
-43.3275
-43.3308
-43.3341
-43.3374
-43.3406
-43.3437
-43.3468
-43.3497
-43.3526
-43.3555
-43.3582
-43.3609
-43.3634
-43.3659
-43.3683
-43.3706
-43.3728
-43.3749
-43.3768
-43.3787
-43.3805
-43.3822
-43.3837
-43.3852
-43.3865
-43.3877
-43.3888
-43.3898
-43.3906
-43.3914
-43.392
-43.3925
-43.3928
-43.3931
-43.3932
-43.3932
-43.3931
-43.3928
-43.3925
-43.392
-43.3914
-43.3907
-43.3898
-43.3888
-43.3877
-43.3865
-43.3852
-43.3838
-43.3822
-43.3806
-43.3788
-43.3769
-43.3749
-43.3729
-43.3707
-43.3684
-43.366
-43.3635
-43.361
-43.3583
-43.3556
-43.3528
-43.3499
-43.3469
-43.3438
-43.3407
-43.3375
-43.3343
-43.331
-43.3276
-43.3242
-43.3208
-43.3173
-43.3137
-43.3101
-43.3065
-43.3029
-43.2992
-43.2955
-43.2918
-43.2881
-43.2843
-43.2806
-43.2769
-43.2731
-43.2694
-43.2657
-43.262
-43.2583
-43.2546
-43.2509
-43.2473
-43.2437
-43.2402
-43.2367
-43.2332
-43.2298
-43.2264
-43.2231
-43.2198
-43.2166
-43.2134
-43.2103
-43.2073
-43.2044
-43.2015
-43.1987
-43.196
-43.1933
-43.1908
-43.1883
-43.1859
-43.1836
-43.1814
-43.1793
-43.1773
-43.1754
-43.1735
-43.1718
-43.1702
-43.1687
-43.1673
-43.166
-43.1648
-43.1637
-43.1627
-43.1618
-43.161
-43.1604
-43.1598
-43.1594
-43.1591
-43.1589
-43.1588
-43.1588
-47.0814
-47.0814
-47.0815
-47.0817
-47.082
-47.0825
-47.083
-47.0837
-47.0845
-47.0853
-47.0863
-47.0874
-47.0886
-47.09
-47.0914
-47.0929
-47.0946
-47.0963
-47.0981
-47.1001
-47.1021
-47.1042
-47.1065
-47.1088
-47.1112
-47.1137
-47.1163
-47.1189
-47.1217
-47.1245
-47.1274
-47.1304
-47.1334
-47.1366
-47.1397
-47.143
-47.1463
-47.1497
-47.1531
-47.1565
-47.16
-47.1636
-47.1672
-47.1708
-47.1745
-47.1781
-47.1819
-47.1856
-47.1893
-47.1931
-47.1969
-47.2007
-47.2044
-47.2082
-47.212
-47.2158
-47.2195
-47.2233
-47.227
-47.2307
-47.2343
-47.238
-47.2415
-47.2451
-47.2486
-47.252
-47.2555
-47.2588
-47.2621
-47.2653
-47.2685
-47.2716
-47.2746
-47.2775
-47.2804
-47.2831
-47.2858
-47.2884
-47.2909
-47.2934
-47.2957
-47.2979
-47.3
-47.302
-47.3039
-47.3057
-47.3074
-47.309
-47.3104
-47.3118
-47.313
-47.3141
-47.3151
-47.316
-47.3167
-47.3173
-47.3178
-47.3182
-47.3185
-47.3186
-47.3186
-47.3185
-47.3182
-47.3179
-47.3174
-47.3167
-47.316
-47.3151
-47.3142
-47.3131
-47.3118
-47.3105
-47.309
-47.3075
-47.3058
-47.304
-47.3021
-47.3001
-47.298
-47.2958
-47.2935
-47.291
-47.2885
-47.2859
-47.2833
-47.2805
-47.2776
-47.2747
-47.2717
-47.2686
-47.2655
-47.2622
-47.2589
-47.2556
-47.2522
-47.2487
-47.2452
-47.2417
-47.2381
-47.2345
-47.2308
-47.2272
-47.2234
-47.2197
-47.216
-47.2122
-47.2084
-47.2046
-47.2009
-47.1971
-47.1933
-47.1896
-47.1858
-47.1821
-47.1784
-47.1747
-47.171
-47.1674
-47.1638
-47.1603
-47.1568
-47.1533
-47.1499
-47.1465
-47.1432
-47.14
-47.1368
-47.1337
-47.1306
-47.1277
-47.1248
-47.1219
-47.1192
-47.1165
-47.1139
-47.1114
-47.109
-47.1067
-47.1045
-47.1024
-47.1003
-47.0984
-47.0965
-47.0948
-47.0932
-47.0916
-47.0902
-47.0889
-47.0877
-47.0866
-47.0856
-47.0847
-47.0839
-47.0833
-47.0827
-47.0823
-47.082
-47.0818
-47.0817
-47.0817
-51.0042
-51.0042
-51.0043
-51.0045
-51.0048
-51.0053
-51.0058
-51.0065
-51.0073
-51.0082
-51.0092
-51.0103
-51.0115
-51.0128
-51.0143
-51.0158
-51.0175
-51.0192
-51.0211
-51.023
-51.0251
-51.0272
-51.0295
-51.0318
-51.0342
-51.0368
-51.0394
-51.0421
-51.0448
-51.0477
-51.0506
-51.0536
-51.0567
-51.0599
-51.0631
-51.0664
-51.0697
-51.0731
-51.0765
-51.08
-51.0836
-51.0872
-51.0908
-51.0945
-51.0982
-51.1019
-51.1057
-51.1094
-51.1132
-51.117
-51.1208
-51.1247
-51.1285
-51.1323
-51.1361
-51.14
-51.1438
-51.1475
-51.1513
-51.155
-51.1587
-51.1624
-51.166
-51.1696
-51.1732
-51.1767
-51.1801
-51.1835
-51.1868
-51.1901
-51.1933
-51.1964
-51.1995
-51.2025
-51.2054
-51.2082
-51.2109
-51.2135
-51.2161
-51.2185
-51.2209
-51.2231
-51.2253
-51.2273
-51.2292
-51.2311
-51.2328
-51.2344
-51.2359
-51.2372
-51.2385
-51.2396
-51.2406
-51.2415
-51.2422
-51.2428
-51.2434
-51.2437
-51.244
-51.2441
-51.2441
-51.244
-51.2437
-51.2434
-51.2429
-51.2422
-51.2415
-51.2406
-51.2396
-51.2385
-51.2373
-51.2359
-51.2344
-51.2328
-51.2311
-51.2293
-51.2274
-51.2254
-51.2232
-51.221
-51.2186
-51.2162
-51.2137
-51.211
-51.2083
-51.2055
-51.2026
-51.1996
-51.1966
-51.1934
-51.1903
-51.187
-51.1837
-51.1803
-51.1768
-51.1733
-51.1698
-51.1662
-51.1626
-51.1589
-51.1552
-51.1515
-51.1477
-51.1439
-51.1401
-51.1363
-51.1325
-51.1287
-51.1249
-51.121
-51.1172
-51.1134
-51.1096
-51.1059
-51.1021
-51.0984
-51.0947
-51.091
-51.0874
-51.0838
-51.0803
-51.0768
-51.0733
-51.0699
-51.0666
-51.0633
-51.0601
-51.057
-51.0539
-51.0509
-51.0479
-51.0451
-51.0423
-51.0396
-51.037
-51.0345
-51.0321
-51.0297
-51.0275
-51.0253
-51.0233
-51.0213
-51.0195
-51.0177
-51.0161
-51.0145
-51.0131
-51.0117
-51.0105
-51.0094
-51.0084
-51.0075
-51.0067
-51.0061
-51.0055
-51.0051
-51.0048
-51.0046
-51.0045
-51.0045
-54.9269
-54.9269
-54.927
-54.9272
-54.9275
-54.9279
-54.9285
-54.9292
-54.93
-54.9309
-54.9319
-54.933
-54.9342
-54.9356
-54.937
-54.9386
-54.9403
-54.942
-54.9439
-54.9459
-54.948
-54.9501
-54.9524
-54.9548
-54.9572
-54.9598
-54.9624
-54.9651
-54.9679
-54.9708
-54.9738
-54.9768
-54.9799
-54.9831
-54.9864
-54.9897
-54.9931
-54.9965
-55
-55.0035
-55.0071
-55.0107
-55.0144
-55.0181
-55.0219
-55.0256
-55.0294
-55.0332
-55.0371
-55.0409
-55.0448
-55.0487
-55.0525
-55.0564
-55.0603
-55.0642
-55.068
-55.0718
-55.0756
-55.0794
-55.0832
-55.0869
-55.0906
-55.0942
-55.0978
-55.1014
-55.1049
-55.1083
-55.1117
-55.115
-55.1182
-55.1214
-55.1245
-55.1275
-55.1305
-55.1333
-55.1361
-55.1388
-55.1413
-55.1438
-55.1462
-55.1485
-55.1507
-55.1527
-55.1547
-55.1565
-55.1583
-55.1599
-55.1614
-55.1628
-55.164
-55.1652
-55.1662
-55.1671
-55.1679
-55.1685
-55.169
-55.1694
-55.1697
-55.1698
-55.1698
-55.1697
-55.1694
-55.169
-55.1685
-55.1679
-55.1671
-55.1662
-55.1652
-55.1641
-55.1628
-55.1614
-55.16
-55.1583
-55.1566
-55.1548
-55.1528
-55.1507
-55.1486
-55.1463
-55.1439
-55.1414
-55.1389
-55.1362
-55.1334
-55.1306
-55.1276
-55.1246
-55.1215
-55.1184
-55.1151
-55.1118
-55.1084
-55.105
-55.1015
-55.098
-55.0944
-55.0907
-55.0871
-55.0833
-55.0796
-55.0758
-55.072
-55.0682
-55.0643
-55.0605
-55.0566
-55.0527
-55.0489
-55.045
-55.0411
-55.0373
-55.0335
-55.0296
-55.0258
-55.0221
-55.0183
-55.0146
-55.011
-55.0073
-55.0037
-55.0002
-54.9967
-54.9933
-54.9899
-54.9866
-54.9834
-54.9802
-54.9771
-54.974
-54.9711
-54.9682
-54.9654
-54.9627
-54.96
-54.9575
-54.955
-54.9526
-54.9504
-54.9482
-54.9461
-54.9442
-54.9423
-54.9405
-54.9388
-54.9373
-54.9358
-54.9345
-54.9333
-54.9321
-54.9311
-54.9302
-54.9294
-54.9288
-54.9282
-54.9278
-54.9274
-54.9272
-54.9271
-54.9272
-58.8495
-58.8494
-58.8495
-58.8497
-58.8501
-58.8505
-58.8511
-58.8518
-58.8526
-58.8535
-58.8545
-58.8556
-58.8569
-58.8582
-58.8597
-58.8613
-58.863
-58.8647
-58.8666
-58.8686
-58.8707
-58.8729
-58.8752
-58.8776
-58.8801
-58.8827
-58.8854
-58.8881
-58.8909
-58.8939
-58.8969
-58.8999
-58.9031
-58.9063
-58.9096
-58.9129
-58.9164
-58.9198
-58.9234
-58.9269
-58.9306
-58.9342
-58.938
-58.9417
-58.9455
-58.9493
-58.9532
-58.957
-58.9609
-58.9648
-58.9688
-58.9727
-58.9766
-58.9805
-58.9845
-58.9884
-58.9923
-58.9961
-59
-59.0038
-59.0077
-59.0114
-59.0152
-59.0189
-59.0225
-59.0261
-59.0296
-59.0331
-59.0366
-59.0399
-59.0432
-59.0464
-59.0496
-59.0527
-59.0556
-59.0585
-59.0613
-59.0641
-59.0667
-59.0692
-59.0716
-59.0739
-59.0762
-59.0783
-59.0802
-59.0821
-59.0839
-59.0855
-59.0871
-59.0885
-59.0897
-59.0909
-59.0919
-59.0928
-59.0936
-59.0943
-59.0948
-59.0952
-59.0955
-59.0956
-59.0956
-59.0955
-59.0952
-59.0948
-59.0943
-59.0937
-59.0929
-59.092
-59.091
-59.0898
-59.0885
-59.0871
-59.0856
-59.084
-59.0822
-59.0803
-59.0783
-59.0762
-59.074
-59.0717
-59.0693
-59.0668
-59.0642
-59.0615
-59.0587
-59.0558
-59.0528
-59.0497
-59.0466
-59.0434
-59.0401
-59.0367
-59.0333
-59.0298
-59.0263
-59.0227
-59.019
-59.0153
-59.0116
-59.0078
-59.004
-59.0002
-58.9963
-58.9924
-58.9886
-58.9846
-58.9807
-58.9768
-58.9729
-58.969
-58.965
-58.9611
-58.9573
-58.9534
-58.9495
-58.9457
-58.9419
-58.9382
-58.9345
-58.9308
-58.9272
-58.9236
-58.9201
-58.9166
-58.9132
-58.9098
-58.9065
-58.9033
-58.9002
-58.8971
-58.8941
-58.8912
-58.8883
-58.8856
-58.8829
-58.8804
-58.8779
-58.8755
-58.8732
-58.871
-58.8689
-58.8669
-58.865
-58.8632
-58.8615
-58.86
-58.8585
-58.8571
-58.8559
-58.8547
-58.8537
-58.8528
-58.852
-58.8513
-58.8508
-58.8503
-58.85
-58.8498
-58.8497
-58.8497
-62.7719
-62.7719
-62.772
-62.7722
-62.7725
-62.773
-62.7736
-62.7742
-62.775
-62.776
-62.777
-62.7781
-62.7794
-62.7808
-62.7823
-62.7839
-62.7856
-62.7874
-62.7893
-62.7913
-62.7934
-62.7957
-62.798
-62.8004
-62.8029
-62.8055
-62.8082
-62.811
-62.8139
-62.8168
-62.8199
-62.823
-62.8262
-62.8294
-62.8327
-62.8361
-62.8396
-62.8431
-62.8467
-62.8503