/*--------------------------------*- C++ -*----------------------------------*\
| =========                 |                                                 |
| \\      /  F ield         | OpenFOAM: The Open Source CFD Toolbox           |
|  \\    /   O peration     | Version:  2412                                  |
|   \\  /    A nd           | Website:  www.openfoam.com                      |
|    \\/     M anipulation  |                                                 |
\*---------------------------------------------------------------------------*/
FoamFile
{
    version     2.0;
    format      ascii;
    arch        "LSB;label=32;scalar=64";
    class       volVectorField;
    location    "1.17";
    object      U;
}
// * * * * * * * * * * * * * * * * * * * * * * * * * * * * * * * * * * * * * //

dimensions      [0 1 -1 0 0 0 0];

internalField   nonuniform List<vector> 
40000
(
(7.84903e-06 -7.05037e-06 0)
(3.67302e-05 -9.84774e-06 0)
(7.18355e-05 -1.13512e-05 0)
(0.000109009 -1.2057e-05 0)
(0.000147341 -1.23053e-05 0)
(0.000185944 -1.23636e-05 0)
(0.000224515 -1.23152e-05 0)
(0.000262923 -1.22314e-05 0)
(0.000301104 -1.2135e-05 0)
(0.000339026 -1.20363e-05 0)
(0.000376666 -1.19355e-05 0)
(0.000414003 -1.18295e-05 0)
(0.000451018 -1.17174e-05 0)
(0.000487689 -1.15986e-05 0)
(0.00052399 -1.14726e-05 0)
(0.000559897 -1.13386e-05 0)
(0.000595383 -1.11961e-05 0)
(0.000630424 -1.10449e-05 0)
(0.000664991 -1.08851e-05 0)
(0.000699057 -1.07163e-05 0)
(0.000732594 -1.05384e-05 0)
(0.000765575 -1.03515e-05 0)
(0.000797969 -1.01554e-05 0)
(0.00082975 -9.9502e-06 0)
(0.000860888 -9.73578e-06 0)
(0.000891354 -9.51214e-06 0)
(0.00092112 -9.27929e-06 0)
(0.000950157 -9.03728e-06 0)
(0.000978437 -8.7862e-06 0)
(0.00100593 -8.52612e-06 0)
(0.00103261 -8.25706e-06 0)
(0.00105844 -7.97903e-06 0)
(0.00108341 -7.69204e-06 0)
(0.00110747 -7.39614e-06 0)
(0.0011306 -7.09147e-06 0)
(0.00115278 -6.77815e-06 0)
(0.00117397 -6.45632e-06 0)
(0.00119415 -6.12607e-06 0)
(0.00121329 -5.78749e-06 0)
(0.00123136 -5.44068e-06 0)
(0.00124834 -5.08575e-06 0)
(0.00126421 -4.72285e-06 0)
(0.00127892 -4.35221e-06 0)
(0.00129247 -3.97405e-06 0)
(0.00130483 -3.58866e-06 0)
(0.00131597 -3.19635e-06 0)
(0.00132587 -2.79744e-06 0)
(0.0013345 -2.39225e-06 0)
(0.00134186 -1.98106e-06 0)
(0.00134791 -1.5641e-06 0)
(0.00135264 -1.1415e-06 0)
(0.00135603 -7.13015e-07 0)
(0.00135807 -2.77102e-07 0)
(0.00135873 1.68512e-07 0)
(0.00135799 6.10432e-07 0)
(0.00135584 1.05652e-06 0)
(0.00135228 1.50351e-06 0)
(0.00134731 1.95109e-06 0)
(0.00134091 2.39968e-06 0)
(0.00133308 2.8491e-06 0)
(0.00132382 3.29891e-06 0)
(0.00131312 3.74858e-06 0)
(0.00130099 4.19759e-06 0)
(0.00128743 4.64539e-06 0)
(0.00127243 5.09141e-06 0)
(0.00125601 5.53501e-06 0)
(0.00123816 5.97549e-06 0)
(0.00121891 6.41215e-06 0)
(0.00119826 6.84428e-06 0)
(0.00117623 7.27126e-06 0)
(0.00115282 7.69255e-06 0)
(0.00112807 8.10762e-06 0)
(0.00110198 8.51589e-06 0)
(0.00107459 8.91669e-06 0)
(0.00104591 9.3093e-06 0)
(0.00101597 9.693e-06 0)
(0.000984807 1.00672e-05 0)
(0.000952442 1.04312e-05 0)
(0.000918911 1.07846e-05 0)
(0.000884249 1.11268e-05 0)
(0.000848493 1.14573e-05 0)
(0.000811683 1.17752e-05 0)
(0.000773859 1.20802e-05 0)
(0.000735065 1.23714e-05 0)
(0.000695345 1.26485e-05 0)
(0.000654746 1.29109e-05 0)
(0.000613316 1.31582e-05 0)
(0.000571105 1.33899e-05 0)
(0.000528165 1.36057e-05 0)
(0.000484549 1.38051e-05 0)
(0.000440312 1.39879e-05 0)
(0.000395508 1.41536e-05 0)
(0.000350193 1.4302e-05 0)
(0.000304427 1.44326e-05 0)
(0.000258267 1.45453e-05 0)
(0.000211772 1.464e-05 0)
(0.000165003 1.47164e-05 0)
(0.00011802 1.47744e-05 0)
(7.08842e-05 1.48136e-05 0)
(2.3659e-05 1.48333e-05 0)
(-2.35967e-05 1.48334e-05 0)
(-7.08217e-05 1.48136e-05 0)
(-0.000117957 1.47744e-05 0)
(-0.00016494 1.47164e-05 0)
(-0.00021171 1.46399e-05 0)
(-0.000258205 1.45452e-05 0)
(-0.000304365 1.44325e-05 0)
(-0.000350131 1.43019e-05 0)
(-0.000395446 1.41536e-05 0)
(-0.000440251 1.3988e-05 0)
(-0.000484489 1.38054e-05 0)
(-0.000528106 1.36062e-05 0)
(-0.000571047 1.33905e-05 0)
(-0.00061326 1.31587e-05 0)
(-0.000654692 1.29114e-05 0)
(-0.000695294 1.26492e-05 0)
(-0.000735017 1.23721e-05 0)
(-0.000773814 1.2081e-05 0)
(-0.000811641 1.17764e-05 0)
(-0.000848454 1.14586e-05 0)
(-0.000884213 1.11282e-05 0)
(-0.000918878 1.07861e-05 0)
(-0.000952412 1.04327e-05 0)
(-0.000984781 1.00684e-05 0)
(-0.00101595 9.69407e-06 0)
(-0.00104589 9.31047e-06 0)
(-0.00107458 8.9181e-06 0)
(-0.00110198 8.51762e-06 0)
(-0.00112807 8.10939e-06 0)
(-0.00115283 7.69405e-06 0)
(-0.00117624 7.27279e-06 0)
(-0.00119828 6.84592e-06 0)
(-0.00121894 6.4135e-06 0)
(-0.0012382 5.97673e-06 0)
(-0.00125605 5.53679e-06 0)
(-0.00127248 5.09389e-06 0)
(-0.00128749 4.6482e-06 0)
(-0.00130106 4.20069e-06 0)
(-0.00131321 3.75223e-06 0)
(-0.00132391 3.30297e-06 0)
(-0.00133319 2.85323e-06 0)
(-0.00134102 2.4036e-06 0)
(-0.00134744 1.9546e-06 0)
(-0.00135242 1.50668e-06 0)
(-0.00135599 1.0592e-06 0)
(-0.00135815 6.12341e-07 0)
(-0.00135889 1.69928e-07 0)
(-0.00135823 -2.75569e-07 0)
(-0.00135621 -7.11377e-07 0)
(-0.00135282 -1.13959e-06 0)
(-0.0013481 -1.5618e-06 0)
(-0.00134206 -1.97811e-06 0)
(-0.00133472 -2.38846e-06 0)
(-0.0013261 -2.79286e-06 0)
(-0.00131621 -3.19091e-06 0)
(-0.00130509 -3.58238e-06 0)
(-0.00129276 -3.96719e-06 0)
(-0.00127923 -4.34513e-06 0)
(-0.00126453 -4.71592e-06 0)
(-0.00124868 -5.07917e-06 0)
(-0.00123172 -5.43471e-06 0)
(-0.00121367 -5.78217e-06 0)
(-0.00119454 -6.12109e-06 0)
(-0.00117438 -6.45139e-06 0)
(-0.00115321 -6.77285e-06 0)
(-0.00113105 -7.08569e-06 0)
(-0.00110794 -7.3899e-06 0)
(-0.0010839 -7.68544e-06 0)
(-0.00105896 -7.97229e-06 0)
(-0.00103315 -8.25013e-06 0)
(-0.0010065 -8.51916e-06 0)
(-0.000979032 -8.77942e-06 0)
(-0.000950778 -9.03026e-06 0)
(-0.000921768 -9.27138e-06 0)
(-0.000892034 -9.50287e-06 0)
(-0.000861605 -9.72487e-06 0)
(-0.000830509 -9.93708e-06 0)
(-0.000798775 -1.01405e-05 0)
(-0.00076643 -1.03355e-05 0)
(-0.000733503 -1.05217e-05 0)
(-0.000700021 -1.06993e-05 0)
(-0.000666015 -1.08683e-05 0)
(-0.000631512 -1.10273e-05 0)
(-0.000596541 -1.11757e-05 0)
(-0.000561131 -1.13144e-05 0)
(-0.000525314 -1.14432e-05 0)
(-0.000489117 -1.15634e-05 0)
(-0.000452568 -1.16754e-05 0)
(-0.000415693 -1.1779e-05 0)
(-0.000378518 -1.18736e-05 0)
(-0.000341071 -1.1959e-05 0)
(-0.000303381 -1.2035e-05 0)
(-0.000265476 -1.21004e-05 0)
(-0.000227388 -1.21549e-05 0)
(-0.000189149 -1.21963e-05 0)
(-0.000150797 -1.22161e-05 0)
(-0.000112365 -1.21901e-05 0)
(-7.40514e-05 -1.20118e-05 0)
(-3.72093e-05 -1.1089e-05 0)
(-7.39158e-06 -7.42651e-06 0)
(1.22424e-05 -3.77034e-05 0)
(6.30067e-05 -5.88932e-05 0)
(0.000120322 -6.4547e-05 0)
(0.000179031 -6.66534e-05 0)
(0.000238389 -6.75779e-05 0)
(0.000297945 -6.78016e-05 0)
(0.000357515 -6.76452e-05 0)
(0.000416963 -6.73152e-05 0)
(0.000476185 -6.68984e-05 0)
(0.000535107 -6.64329e-05 0)
(0.000593668 -6.59288e-05 0)
(0.000651816 -6.53854e-05 0)
(0.000709507 -6.48019e-05 0)
(0.000766696 -6.4177e-05 0)
(0.000823339 -6.35091e-05 0)
(0.000879392 -6.27965e-05 0)
(0.000934814 -6.20379e-05 0)
(0.000989561 -6.12323e-05 0)
(0.00104359 -6.0379e-05 0)
(0.00109686 -5.94774e-05 0)
(0.00114932 -5.85268e-05 0)
(0.00120093 -5.75268e-05 0)
(0.00125165 -5.64771e-05 0)
(0.00130142 -5.53774e-05 0)
(0.00135022 -5.42273e-05 0)
(0.00139798 -5.30268e-05 0)
(0.00144468 -5.17758e-05 0)
(0.00149025 -5.04744e-05 0)
(0.00153467 -4.91227e-05 0)
(0.00157787 -4.77209e-05 0)
(0.00161982 -4.62688e-05 0)
(0.00166047 -4.47666e-05 0)
(0.00169978 -4.32142e-05 0)
(0.0017377 -4.1612e-05 0)
(0.00177419 -3.99603e-05 0)
(0.0018092 -3.82596e-05 0)
(0.00184269 -3.65102e-05 0)
(0.00187461 -3.47126e-05 0)
(0.00190493 -3.28671e-05 0)
(0.00193359 -3.09744e-05 0)
(0.00196056 -2.90349e-05 0)
(0.00198579 -2.70496e-05 0)
(0.00200925 -2.50196e-05 0)
(0.00203089 -2.29458e-05 0)
(0.00205067 -2.08297e-05 0)
(0.00206856 -1.86725e-05 0)
(0.00208452 -1.64758e-05 0)
(0.00209851 -1.42411e-05 0)
(0.00211051 -1.197e-05 0)
(0.00212046 -9.66422e-06 0)
(0.00212836 -7.32529e-06 0)
(0.00213416 -4.9544e-06 0)
(0.00213784 -2.55159e-06 0)
(0.00213937 -1.15263e-07 0)
(0.00213875 2.34151e-06 0)
(0.00213593 4.81718e-06 0)
(0.0021309 7.30715e-06 0)
(0.00212365 9.81019e-06 0)
(0.00211415 1.2325e-05 0)
(0.0021024 1.48492e-05 0)
(0.00208838 1.73801e-05 0)
(0.00207209 1.99147e-05 0)
(0.00205352 2.24499e-05 0)
(0.00203268 2.49825e-05 0)
(0.00200957 2.75088e-05 0)
(0.00198419 3.00253e-05 0)
(0.00195654 3.2528e-05 0)
(0.00192666 3.50132e-05 0)
(0.00189454 3.7477e-05 0)
(0.0018602 3.99159e-05 0)
(0.00182368 4.23262e-05 0)
(0.00178499 4.47041e-05 0)
(0.00174417 4.70461e-05 0)
(0.00170125 4.93479e-05 0)
(0.00165627 5.16057e-05 0)
(0.00160926 5.38154e-05 0)
(0.00156027 5.59732e-05 0)
(0.00150934 5.80754e-05 0)
(0.00145654 6.01183e-05 0)
(0.00140191 6.20983e-05 0)
(0.00134551 6.40116e-05 0)
(0.0012874 6.58543e-05 0)
(0.00122766 6.76228e-05 0)
(0.00116634 6.93136e-05 0)
(0.00110352 7.09233e-05 0)
(0.00103927 7.24489e-05 0)
(0.000973667 7.38875e-05 0)
(0.000906798 7.52362e-05 0)
(0.000838743 7.64925e-05 0)
(0.000769586 7.76537e-05 0)
(0.000699416 7.87174e-05 0)
(0.000628322 7.96816e-05 0)
(0.000556396 8.05441e-05 0)
(0.000483731 8.13031e-05 0)
(0.000410423 8.19572e-05 0)
(0.000336569 8.25051e-05 0)
(0.000262265 8.29455e-05 0)
(0.000187612 8.32774e-05 0)
(0.000112708 8.34996e-05 0)
(3.76564e-05 8.36109e-05 0)
(-3.74487e-05 8.36109e-05 0)
(-0.0001125 8.34996e-05 0)
(-0.000187404 8.32774e-05 0)
(-0.000262058 8.29457e-05 0)
(-0.000336361 8.25054e-05 0)
(-0.000410216 8.19579e-05 0)
(-0.000483524 8.13041e-05 0)
(-0.000556189 8.05454e-05 0)
(-0.000628116 7.96833e-05 0)
(-0.000699211 7.87197e-05 0)
(-0.000769382 7.76566e-05 0)
(-0.000838541 7.64961e-05 0)
(-0.000906598 7.52402e-05 0)
(-0.000973469 7.38915e-05 0)
(-0.00103907 7.24529e-05 0)
(-0.00110332 7.09276e-05 0)
(-0.00116615 6.93182e-05 0)
(-0.00122747 6.76277e-05 0)
(-0.00128722 6.58597e-05 0)
(-0.00134533 6.40176e-05 0)
(-0.00140173 6.21048e-05 0)
(-0.00145636 6.01251e-05 0)
(-0.00150917 5.80823e-05 0)
(-0.0015601 5.598e-05 0)
(-0.00160909 5.38224e-05 0)
(-0.00165611 5.16135e-05 0)
(-0.0017011 4.93566e-05 0)
(-0.00174403 4.70558e-05 0)
(-0.00178486 4.47147e-05 0)
(-0.00182355 4.23367e-05 0)
(-0.00186008 3.99266e-05 0)
(-0.00189442 3.74882e-05 0)
(-0.00192654 3.50244e-05 0)
(-0.00195644 3.25397e-05 0)
(-0.00198409 3.00388e-05 0)
(-0.00200948 2.75249e-05 0)
(-0.0020326 2.50005e-05 0)
(-0.00205345 2.24694e-05 0)
(-0.00207203 1.99357e-05 0)
(-0.00208833 1.7402e-05 0)
(-0.00210236 1.48708e-05 0)
(-0.00211412 1.23455e-05 0)
(-0.00212363 9.8292e-06 0)
(-0.00213089 7.32473e-06 0)
(-0.00213593 4.83321e-06 0)
(-0.00213875 2.35549e-06 0)
(-0.00213939 -1.02703e-07 0)
(-0.00213786 -2.53917e-06 0)
(-0.00213419 -4.94157e-06 0)
(-0.0021284 -7.31108e-06 0)
(-0.00212051 -9.6476e-06 0)
(-0.00211057 -1.195e-05 0)
(-0.00209859 -1.42172e-05 0)
(-0.00208461 -1.64482e-05 0)
(-0.00206866 -1.86415e-05 0)
(-0.00205078 -2.0796e-05 0)
(-0.00203101 -2.29107e-05 0)
(-0.00200939 -2.4984e-05 0)
(-0.00198595 -2.70144e-05 0)
(-0.00196073 -2.90005e-05 0)
(-0.00193378 -3.0941e-05 0)
(-0.00190514 -3.28347e-05 0)
(-0.00187484 -3.46801e-05 0)
(-0.00184293 -3.64771e-05 0)
(-0.00180946 -3.82248e-05 0)
(-0.00177447 -3.99232e-05 0)
(-0.001738 -4.15726e-05 0)
(-0.0017001 -4.31727e-05 0)
(-0.00166081 -4.47232e-05 0)
(-0.00162018 -4.62239e-05 0)
(-0.00157825 -4.7675e-05 0)
(-0.00153506 -4.9076e-05 0)
(-0.00149067 -5.04254e-05 0)
(-0.00144512 -5.17223e-05 0)
(-0.00139845 -5.29666e-05 0)
(-0.00135072 -5.41584e-05 0)
(-0.00130195 -5.52992e-05 0)
(-0.00125221 -5.63907e-05 0)
(-0.00120152 -5.74349e-05 0)
(-0.00114995 -5.843e-05 0)
(-0.00109753 -5.93772e-05 0)
(-0.0010443 -6.02737e-05 0)
(-0.00099032 -6.11183e-05 0)
(-0.000935619 -6.19097e-05 0)
(-0.000880246 -6.26499e-05 0)
(-0.000824245 -6.33398e-05 0)
(-0.000767659 -6.3982e-05 0)
(-0.000710533 -6.45778e-05 0)
(-0.000652907 -6.5126e-05 0)
(-0.000594823 -6.56272e-05 0)
(-0.000536325 -6.608e-05 0)
(-0.000477454 -6.64829e-05 0)
(-0.000418252 -6.68346e-05 0)
(-0.000358764 -6.71339e-05 0)
(-0.000299031 -6.73759e-05 0)
(-0.000239089 -6.75429e-05 0)
(-0.000178938 -6.7519e-05 0)
(-0.000118801 -6.65923e-05 0)
(-6.07083e-05 -6.10605e-05 0)
(-1.0921e-05 -3.71036e-05 0)
(1.24495e-05 -7.58879e-05 0)
(6.80752e-05 -0.00011774 0)
(0.00013118 -0.000126055 0)
(0.000195234 -0.000128251 0)
(0.000259173 -0.000129232 0)
(0.000323002 -0.000129534 0)
(0.000386749 -0.000129378 0)
(0.000450355 -0.00012894 0)
(0.000513742 -0.000128317 0)
(0.000576837 -0.000127562 0)
(0.000639576 -0.000126698 0)
(0.0007019 -0.000125734 0)
(0.000763754 -0.000124675 0)
(0.000825088 -0.000123524 0)
(0.000885852 -0.000122281 0)
(0.000945997 -0.000120945 0)
(0.00100548 -0.000119516 0)
(0.00106424 -0.000117994 0)
(0.00112225 -0.000116378 0)
(0.00117944 -0.000114668 0)
(0.00123578 -0.000112861 0)
(0.00129122 -0.000110959 0)
(0.0013457 -0.000108961 0)
(0.00139919 -0.000106865 0)
(0.00145163 -0.000104673 0)
(0.00150297 -0.000102383 0)
(0.00155317 -9.99947e-05 0)
(0.00160218 -9.75091e-05 0)
(0.00164994 -9.49259e-05 0)
(0.00169642 -9.22452e-05 0)
(0.00174156 -8.94669e-05 0)
(0.00178531 -8.65911e-05 0)
(0.00182763 -8.3618e-05 0)
(0.00186846 -8.05481e-05 0)
(0.00190777 -7.7382e-05 0)
(0.00194549 -7.41204e-05 0)
(0.00198158 -7.07639e-05 0)
(0.002016 -6.73131e-05 0)
(0.0020487 -6.37691e-05 0)
(0.00207963 -6.01328e-05 0)
(0.00210874 -5.64057e-05 0)
(0.002136 -5.25894e-05 0)
(0.00216135 -4.86859e-05 0)
(0.00218475 -4.46972e-05 0)
(0.00220617 -4.06255e-05 0)
(0.00222556 -3.64733e-05 0)
(0.00224287 -3.22431e-05 0)
(0.00225808 -2.7938e-05 0)
(0.00227114 -2.35611e-05 0)
(0.00228201 -1.91158e-05 0)
(0.00229068 -1.46058e-05 0)
(0.00229709 -1.00346e-05 0)
(0.00230122 -5.40631e-06 0)
(0.00230305 -7.25715e-07 0)
(0.00230255 4.00636e-06 0)
(0.00229971 8.77953e-06 0)
(0.00229449 1.35895e-05 0)
(0.00228687 1.84317e-05 0)
(0.00227683 2.3301e-05 0)
(0.00226437 2.81919e-05 0)
(0.00224946 3.30986e-05 0)
(0.00223211 3.80153e-05 0)
(0.0022123 4.29357e-05 0)
(0.00219003 4.78531e-05 0)
(0.00216531 5.27608e-05 0)
(0.00213815 5.76514e-05 0)
(0.00210854 6.25178e-05 0)
(0.00207651 6.73526e-05 0)
(0.00204206 7.21486e-05 0)
(0.00200522 7.68987e-05 0)
(0.00196601 8.15953e-05 0)
(0.00192446 8.6231e-05 0)
(0.0018806 9.0798e-05 0)
(0.00183447 9.52885e-05 0)
(0.0017861 9.96945e-05 0)
(0.00173553 0.000104008 0)
(0.00168282 0.000108223 0)
(0.00162801 0.00011233 0)
(0.00157117 0.000116323 0)
(0.00151234 0.000120194 0)
(0.0014516 0.000123935 0)
(0.001389 0.00012754 0)
(0.00132462 0.000131 0)
(0.00125854 0.000134309 0)
(0.00119082 0.00013746 0)
(0.00112155 0.000140447 0)
(0.00105081 0.000143265 0)
(0.000978696 0.000145906 0)
(0.000905289 0.000148367 0)
(0.000830685 0.000150641 0)
(0.000754979 0.000152725 0)
(0.000678266 0.000154613 0)
(0.000600648 0.000156301 0)
(0.000522227 0.000157786 0)
(0.000443105 0.000159066 0)
(0.000363388 0.000160136 0)
(0.000283181 0.000160996 0)
(0.000202593 0.000161642 0)
(0.000121732 0.000162073 0)
(4.07095e-05 0.000162289 0)
(-4.03729e-05 0.000162289 0)
(-0.000121396 0.000162073 0)
(-0.000202256 0.000161642 0)
(-0.000282844 0.000160995 0)
(-0.000363051 0.000160136 0)
(-0.000442768 0.000159066 0)
(-0.000521891 0.000157787 0)
(-0.000600313 0.000156302 0)
(-0.000677932 0.000154614 0)
(-0.000754645 0.000152727 0)
(-0.000830353 0.000150644 0)
(-0.000904958 0.00014837 0)
(-0.000978366 0.00014591 0)
(-0.00105048 0.000143269 0)
(-0.00112122 0.000140452 0)
(-0.00119049 0.000137466 0)
(-0.00125821 0.000134315 0)
(-0.0013243 0.000131007 0)
(-0.00138868 0.000127547 0)
(-0.00145128 0.000123944 0)
(-0.00151203 0.000120204 0)
(-0.00157086 0.000116333 0)
(-0.00162771 0.00011234 0)
(-0.00168252 0.000108233 0)
(-0.00173523 0.000104019 0)
(-0.0017858 9.9706e-05 0)
(-0.00183417 9.53005e-05 0)
(-0.00188031 9.08106e-05 0)
(-0.00192418 8.62445e-05 0)
(-0.00196573 8.16093e-05 0)
(-0.00200494 7.69123e-05 0)
(-0.00204179 7.21623e-05 0)
(-0.00207624 6.73667e-05 0)
(-0.00210828 6.25327e-05 0)
(-0.00213789 5.7668e-05 0)
(-0.00216506 5.278e-05 0)
(-0.00218979 4.78749e-05 0)
(-0.00221206 4.29594e-05 0)
(-0.00223187 3.80405e-05 0)
(-0.00224923 3.31246e-05 0)
(-0.00226414 2.82175e-05 0)
(-0.00227661 2.33259e-05 0)
(-0.00228665 1.84556e-05 0)
(-0.00229428 1.36122e-05 0)
(-0.0022995 8.80126e-06 0)
(-0.00230235 4.02681e-06 0)
(-0.00230285 -7.06454e-07 0)
(-0.00230103 -5.38761e-06 0)
(-0.00229691 -1.00159e-05 0)
(-0.0022905 -1.45859e-05 0)
(-0.00228185 -1.90935e-05 0)
(-0.00227098 -2.35352e-05 0)
(-0.00225793 -2.79078e-05 0)
(-0.00224273 -3.22086e-05 0)
(-0.00222542 -3.64348e-05 0)
(-0.00220604 -4.05842e-05 0)
(-0.00218462 -4.46543e-05 0)
(-0.00216123 -4.86423e-05 0)
(-0.00213588 -5.25456e-05 0)
(-0.00210863 -5.6362e-05 0)
(-0.00207952 -6.00895e-05 0)
(-0.0020486 -6.37259e-05 0)
(-0.00201592 -6.72699e-05 0)
(-0.00198151 -7.07202e-05 0)
(-0.00194542 -7.4076e-05 0)
(-0.00190771 -7.7336e-05 0)
(-0.00186841 -8.05005e-05 0)
(-0.00182759 -8.35684e-05 0)
(-0.00178528 -8.65393e-05 0)
(-0.00174153 -8.94133e-05 0)
(-0.0016964 -9.21903e-05 0)
(-0.00164993 -9.48697e-05 0)
(-0.00160217 -9.74507e-05 0)
(-0.00155318 -9.99325e-05 0)
(-0.00150299 -0.000102314 0)
(-0.00145165 -0.000104596 0)
(-0.00139922 -0.000106781 0)
(-0.00134574 -0.000108869 0)
(-0.00129126 -0.000110863 0)
(-0.00123583 -0.000112762 0)
(-0.0011795 -0.000114566 0)
(-0.00112231 -0.000116272 0)
(-0.00106431 -0.000117881 0)
(-0.00100555 -0.000119391 0)
(-0.000946064 -0.000120805 0)
(-0.000885912 -0.000122124 0)
(-0.000825135 -0.00012335 0)
(-0.00076378 -0.000124485 0)
(-0.000701892 -0.000125528 0)
(-0.000639518 -0.000126481 0)
(-0.000576703 -0.000127341 0)
(-0.00051349 -0.000128108 0)
(-0.000449924 -0.00012878 0)
(-0.00038605 -0.000129359 0)
(-0.000321912 -0.00012984 0)
(-0.000257548 -0.000130206 0)
(-0.000192961 -0.000130279 0)
(-0.000128401 -0.000128835 0)
(-6.61222e-05 -0.000119051 0)
(-1.18163e-05 -7.35522e-05 0)
(1.20939e-05 -0.000115008 0)
(6.79121e-05 -0.000179392 0)
(0.000132107 -0.000191344 0)
(0.000197628 -0.000193464 0)
(0.000262799 -0.000194075 0)
(0.000327648 -0.000194129 0)
(0.000392279 -0.000193774 0)
(0.000456697 -0.000193116 0)
(0.00052086 -0.000192225 0)
(0.000584717 -0.000191143 0)
(0.00064821 -0.000189893 0)
(0.000711286 -0.000188489 0)
(0.000773891 -0.000186937 0)
(0.000835974 -0.000185241 0)
(0.000897486 -0.000183402 0)
(0.000958376 -0.000181422 0)
(0.0010186 -0.000179301 0)
(0.0010781 -0.000177037 0)
(0.00113684 -0.000174632 0)
(0.00119476 -0.000172083 0)
(0.00125182 -0.000169391 0)
(0.00130797 -0.000166554 0)
(0.00136316 -0.000163573 0)
(0.00141735 -0.000160446 0)
(0.00147048 -0.000157173 0)
(0.0015225 -0.000153754 0)
(0.00157337 -0.000150188 0)
(0.00162304 -0.000146475 0)
(0.00167145 -0.000142615 0)
(0.00171857 -0.000138609 0)
(0.00176433 -0.000134455 0)
(0.00180869 -0.000130155 0)
(0.00185161 -0.000125708 0)
(0.00189302 -0.000121116 0)
(0.00193289 -0.000116378 0)
(0.00197116 -0.000111497 0)
(0.00200778 -0.000106472 0)
(0.00204272 -0.000101305 0)
(0.00207591 -9.5997e-05 0)
(0.00210731 -9.05502e-05 0)
(0.00213688 -8.49667e-05 0)
(0.00216457 -7.92488e-05 0)
(0.00219034 -7.33992e-05 0)
(0.00221414 -6.74209e-05 0)
(0.00223592 -6.1317e-05 0)
(0.00225565 -5.50912e-05 0)
(0.00227328 -4.87473e-05 0)
(0.00228878 -4.22898e-05 0)
(0.0023021 -3.57235e-05 0)
(0.00231322 -2.90533e-05 0)
(0.00232209 -2.22847e-05 0)
(0.00232868 -1.54233e-05 0)
(0.00233296 -8.47555e-06 0)
(0.00233491 -1.44884e-06 0)
(0.00233449 5.65179e-06 0)
(0.00233169 1.28196e-05 0)
(0.00232647 2.00473e-05 0)
(0.00231882 2.73266e-05 0)
(0.00230872 3.46492e-05 0)
(0.00229616 4.20063e-05 0)
(0.00228112 4.93893e-05 0)
(0.0022636 5.67888e-05 0)
(0.00224358 6.41953e-05 0)
(0.00222107 7.15988e-05 0)
(0.00219608 7.89889e-05 0)
(0.00216859 8.63551e-05 0)
(0.00213863 9.36866e-05 0)
(0.00210621 0.000100973 0)
(0.00207133 0.000108202 0)
(0.00203403 0.000115364 0)
(0.00199432 0.000122447 0)
(0.00195223 0.000129439 0)
(0.00190779 0.000136329 0)
(0.00186104 0.000143104 0)
(0.00181202 0.000149754 0)
(0.00176077 0.000156266 0)
(0.00170734 0.00016263 0)
(0.00165178 0.000168832 0)
(0.00159414 0.000174863 0)
(0.00153449 0.000180709 0)
(0.0014729 0.000186361 0)
(0.00140941 0.000191807 0)
(0.00134412 0.000197035 0)
(0.00127708 0.000202036 0)
(0.00120839 0.000206799 0)
(0.00113812 0.000211315 0)
(0.00106636 0.000215575 0)
(0.000993198 0.000219569 0)
(0.00091872 0.00022329 0)
(0.000843023 0.000226729 0)
(0.000766204 0.00022988 0)
(0.000688361 0.000232735 0)
(0.000609597 0.000235288 0)
(0.000530015 0.000237534 0)
(0.00044972 0.000239469 0)
(0.000368819 0.000241087 0)
(0.00028742 0.000242386 0)
(0.000205633 0.000243362 0)
(0.000123568 0.000244014 0)
(4.1338e-05 0.000244339 0)
(-4.09519e-05 0.00024434 0)
(-0.000123181 0.000244014 0)
(-0.000205246 0.000243363 0)
(-0.000287034 0.000242387 0)
(-0.000368433 0.000241089 0)
(-0.000449334 0.000239471 0)
(-0.000529629 0.000237537 0)
(-0.000609212 0.000235291 0)
(-0.000687977 0.000232738 0)
(-0.00076582 0.000229884 0)
(-0.00084264 0.000226734 0)
(-0.000918339 0.000223295 0)
(-0.000992818 0.000219575 0)
(-0.00106599 0.000215581 0)
(-0.00113775 0.000211322 0)
(-0.00120802 0.000206807 0)
(-0.00127671 0.000202045 0)
(-0.00134375 0.000197045 0)
(-0.00140904 0.000191817 0)
(-0.00147253 0.000186372 0)
(-0.00153413 0.000180722 0)
(-0.00159378 0.000174875 0)
(-0.00165142 0.000168846 0)
(-0.00170698 0.000162644 0)
(-0.00176042 0.000156281 0)
(-0.00181167 0.00014977 0)
(-0.00186069 0.00014312 0)
(-0.00190745 0.000136344 0)
(-0.00195189 0.000129455 0)
(-0.00199398 0.000122464 0)
(-0.00203369 0.000115381 0)
(-0.002071 0.000108219 0)
(-0.00210588 0.00010099 0)
(-0.00213831 9.37053e-05 0)
(-0.00216827 8.63749e-05 0)
(-0.00219576 7.90102e-05 0)
(-0.00222076 7.16221e-05 0)
(-0.00224327 6.42206e-05 0)
(-0.00226329 5.68156e-05 0)
(-0.00228082 4.94171e-05 0)
(-0.00229586 4.20345e-05 0)
(-0.00230842 3.46774e-05 0)
(-0.00231853 2.73546e-05 0)
(-0.00232618 2.00743e-05 0)
(-0.0023314 1.28459e-05 0)
(-0.00233421 5.67774e-06 0)
(-0.00233463 -1.42343e-06 0)
(-0.00233269 -8.45037e-06 0)
(-0.00232842 -1.53978e-05 0)
(-0.00232183 -2.22579e-05 0)
(-0.00231296 -2.90243e-05 0)
(-0.00230185 -3.56914e-05 0)
(-0.00228853 -4.22541e-05 0)
(-0.00227304 -4.87075e-05 0)
(-0.00225541 -5.50477e-05 0)
(-0.00223568 -6.12709e-05 0)
(-0.0022139 -6.73731e-05 0)
(-0.00219011 -7.33506e-05 0)
(-0.00216434 -7.91999e-05 0)
(-0.00213666 -8.49179e-05 0)
(-0.00210709 -9.05014e-05 0)
(-0.00207569 -9.59482e-05 0)
(-0.00204251 -0.000101256 0)
(-0.00200758 -0.000106423 0)
(-0.00197096 -0.000111447 0)
(-0.00193269 -0.000116328 0)
(-0.00189283 -0.000121065 0)
(-0.00185142 -0.000125655 0)
(-0.0018085 -0.0001301 0)
(-0.00176414 -0.000134399 0)
(-0.00171838 -0.000138551 0)
(-0.00167127 -0.000142556 0)
(-0.00162286 -0.000146414 0)
(-0.0015732 -0.000150123 0)
(-0.00152233 -0.000153684 0)
(-0.00147031 -0.000157096 0)
(-0.00141718 -0.000160363 0)
(-0.00136299 -0.000163485 0)
(-0.00130779 -0.000166463 0)
(-0.00125163 -0.000169297 0)
(-0.00119456 -0.000171988 0)
(-0.00113663 -0.000174533 0)
(-0.00107788 -0.000176934 0)
(-0.00101836 -0.000179191 0)
(-0.000958117 -0.000181305 0)
(-0.000897197 -0.000183278 0)
(-0.000835648 -0.000185111 0)
(-0.000773514 -0.000186807 0)
(-0.000710844 -0.000188364 0)
(-0.000647683 -0.000189786 0)
(-0.000584076 -0.000191068 0)
(-0.000520068 -0.000192212 0)
(-0.000455703 -0.000193216 0)
(-0.000391027 -0.000194082 0)
(-0.000326087 -0.000194808 0)
(-0.000260916 -0.000195371 0)
(-0.000195524 -0.000195518 0)
(-0.000130179 -0.000193466 0)
(-6.72148e-05 -0.000179178 0)
(-1.20251e-05 -0.000111498 0)
(1.2015e-05 -0.000153261 0)
(6.74365e-05 -0.000240479 0)
(0.000131611 -0.000256867 0)
(0.000197607 -0.000259214 0)
(0.000263317 -0.000259468 0)
(0.000328647 -0.000259206 0)
(0.000393681 -0.000258585 0)
(0.000458439 -0.000257657 0)
(0.000522904 -0.000256462 0)
(0.000587039 -0.000255031 0)
(0.000650795 -0.000253383 0)
(0.000714126 -0.00025153 0)
(0.000776982 -0.000249478 0)
(0.000839313 -0.000247234 0)
(0.000901072 -0.000244798 0)
(0.000962209 -0.000242171 0)
(0.00102268 -0.000239355 0)
(0.00108243 -0.000236349 0)
(0.00114141 -0.000233152 0)
(0.00119958 -0.000229764 0)
(0.00125689 -0.000226185 0)
(0.00131328 -0.000222412 0)
(0.00136872 -0.000218447 0)
(0.00142315 -0.000214287 0)
(0.00147653 -0.000209932 0)
(0.00152879 -0.000205382 0)
(0.00157991 -0.000200636 0)
(0.00162982 -0.000195693 0)
(0.00167848 -0.000190554 0)
(0.00172583 -0.000185219 0)
(0.00177183 -0.000179688 0)
(0.00181643 -0.00017396 0)
(0.00185958 -0.000168036 0)
(0.00190122 -0.000161918 0)
(0.00194132 -0.000155605 0)
(0.00197982 -0.000149099 0)
(0.00201667 -0.000142401 0)
(0.00205182 -0.000135513 0)
(0.00208523 -0.000128437 0)
(0.00211684 -0.000121174 0)
(0.00214662 -0.000113729 0)
(0.00217451 -0.000106104 0)
(0.00220047 -9.83016e-05 0)
(0.00222445 -9.03268e-05 0)
(0.00224642 -8.21835e-05 0)
(0.00226632 -7.38766e-05 0)
(0.00228412 -6.54112e-05 0)
(0.00229978 -5.67932e-05 0)
(0.00231325 -4.80286e-05 0)
(0.00232451 -3.91241e-05 0)
(0.00233351 -3.00866e-05 0)
(0.00234022 -2.09238e-05 0)
(0.00234462 -1.1644e-05 0)
(0.00234666 -2.25653e-06 0)
(0.00234633 7.2304e-06 0)
(0.0023436 1.68085e-05 0)
(0.00233843 2.6468e-05 0)
(0.00233083 3.61983e-05 0)
(0.00232076 4.59882e-05 0)
(0.00230821 5.58259e-05 0)
(0.00229317 6.56996e-05 0)
(0.00227563 7.55966e-05 0)
(0.00225558 8.55042e-05 0)
(0.00223303 9.54091e-05 0)
(0.00220797 0.000105298 0)
(0.00218041 0.000115156 0)
(0.00215035 0.000124969 0)
(0.00211782 0.000134723 0)
(0.00208282 0.000144404 0)
(0.00204537 0.000153995 0)
(0.0020055 0.000163481 0)
(0.00196323 0.000172848 0)
(0.0019186 0.000182078 0)
(0.00187164 0.000191157 0)
(0.00182239 0.000200069 0)
(0.0017709 0.000208798 0)
(0.0017172 0.000217327 0)
(0.00166136 0.000225643 0)
(0.00160344 0.000233728 0)
(0.00154348 0.000241568 0)
(0.00148155 0.000249146 0)
(0.00141773 0.000256449 0)
(0.00135207 0.000263462 0)
(0.00128467 0.000270171 0)
(0.00121559 0.000276561 0)
(0.00114493 0.000282621 0)
(0.00107276 0.000288337 0)
(0.000999167 0.000293697 0)
(0.000924256 0.000298691 0)
(0.000848114 0.000303308 0)
(0.000770841 0.000307537 0)
(0.000692536 0.00031137 0)
(0.000613301 0.000314799 0)
(0.00053324 0.000317815 0)
(0.000452461 0.000320414 0)
(0.00037107 0.000322587 0)
(0.000289177 0.000324332 0)
(0.000206892 0.000325644 0)
(0.000124326 0.00032652 0)
(4.15954e-05 0.000326958 0)
(-4.11963e-05 0.000326959 0)
(-0.000123927 0.000326521 0)
(-0.000206493 0.000325646 0)
(-0.000288778 0.000324335 0)
(-0.000370671 0.000322591 0)
(-0.000452062 0.000320418 0)
(-0.000532842 0.000317821 0)
(-0.000612903 0.000314805 0)
(-0.000692139 0.000311377 0)
(-0.000770445 0.000307544 0)
(-0.000847719 0.000303315 0)
(-0.000923862 0.000298699 0)
(-0.000998775 0.000293706 0)
(-0.00107236 0.000288346 0)
(-0.00114454 0.000282631 0)
(-0.00121521 0.000276572 0)
(-0.00128428 0.000270182 0)
(-0.00135169 0.000263474 0)
(-0.00141734 0.000256462 0)
(-0.00148117 0.000249159 0)
(-0.0015431 0.000241581 0)
(-0.00160306 0.000233743 0)
(-0.00166099 0.000225659 0)
(-0.00171683 0.000217344 0)
(-0.00177053 0.000208815 0)
(-0.00182203 0.000200087 0)
(-0.00187128 0.000191176 0)
(-0.00191824 0.000182097 0)
(-0.00196288 0.000172867 0)
(-0.00200515 0.000163502 0)
(-0.00204502 0.000154016 0)
(-0.00208247 0.000144425 0)
(-0.00211748 0.000134745 0)
(-0.00215002 0.000124992 0)
(-0.00218007 0.000115179 0)
(-0.00220764 0.000105322 0)
(-0.0022327 9.54349e-05 0)
(-0.00225525 8.55317e-05 0)
(-0.0022753 7.56255e-05 0)
(-0.00229284 6.57296e-05 0)
(-0.00230788 5.58569e-05 0)
(-0.00232044 4.60197e-05 0)
(-0.00233051 3.62301e-05 0)
(-0.00233812 2.64994e-05 0)
(-0.00234329 1.68394e-05 0)
(-0.00234603 7.26149e-06 0)
(-0.00234637 -2.22533e-06 0)
(-0.00234433 -1.16125e-05 0)
(-0.00233994 -2.08913e-05 0)
(-0.00233323 -3.00528e-05 0)
(-0.00232423 -3.90883e-05 0)
(-0.00231298 -4.79906e-05 0)
(-0.00229951 -5.67524e-05 0)
(-0.00228385 -6.53672e-05 0)
(-0.00226605 -7.38296e-05 0)
(-0.00224615 -8.21343e-05 0)
(-0.00222419 -9.02761e-05 0)
(-0.00220021 -9.82503e-05 0)
(-0.00217425 -0.000106052 0)
(-0.00214636 -0.000113678 0)
(-0.00211659 -0.000121123 0)
(-0.00208498 -0.000128386 0)
(-0.00205158 -0.000135462 0)
(-0.00201643 -0.00014235 0)
(-0.00197958 -0.000149047 0)
(-0.00194109 -0.000155552 0)
(-0.00190099 -0.000161864 0)
(-0.00185935 -0.000167982 0)
(-0.0018162 -0.000173904 0)
(-0.0017716 -0.00017963 0)
(-0.0017256 -0.00018516 0)
(-0.00167825 -0.000190494 0)
(-0.0016296 -0.000195631 0)
(-0.00157969 -0.000200571 0)
(-0.00152857 -0.000205313 0)
(-0.0014763 -0.000209858 0)
(-0.00142292 -0.000214208 0)
(-0.00136849 -0.000218364 0)
(-0.00131304 -0.000222328 0)
(-0.00125663 -0.0002261 0)
(-0.00119931 -0.000229679 0)
(-0.00114113 -0.000233066 0)
(-0.00108213 -0.000236262 0)
(-0.00102236 -0.000239267 0)
(-0.000961869 -0.000242084 0)
(-0.000900699 -0.000244714 0)
(-0.0008389 -0.000247155 0)
(-0.000776518 -0.000249412 0)
(-0.000713599 -0.000251486 0)
(-0.000650189 -0.000253375 0)
(-0.000586331 -0.000255082 0)
(-0.000522071 -0.000256602 0)
(-0.000457455 -0.000257939 0)
(-0.00039253 -0.000259095 0)
(-0.000327343 -0.000260067 0)
(-0.000261927 -0.000260823 0)
(-0.000196291 -0.000261039 0)
(-0.000130709 -0.000258367 0)
(-6.75497e-05 -0.000239549 0)
(-1.21091e-05 -0.000149701 0)
(1.20105e-05 -0.000191299 0)
(6.73467e-05 -0.000301302 0)
(0.000131413 -0.000322422 0)
(0.000197625 -0.000325202 0)
(0.000263662 -0.000325167 0)
(0.000329339 -0.000324581 0)
(0.0003947 -0.000323659 0)
(0.000459759 -0.000322427 0)
(0.000524499 -0.000320903 0)
(0.000588888 -0.000319105 0)
(0.000652887 -0.000317048 0)
(0.000716452 -0.000314739 0)
(0.000779536 -0.000312186 0)
(0.000842093 -0.00030939 0)
(0.000904075 -0.000306356 0)
(0.000965435 -0.000303084 0)
(0.00102612 -0.000299574 0)
(0.0010861 -0.000295826 0)
(0.0011453 -0.00029184 0)
(0.0012037 -0.000287614 0)
(0.00126123 -0.000283148 0)
(0.00131785 -0.000278442 0)
(0.00137352 -0.000273493 0)
(0.00142818 -0.000268301 0)
(0.00148178 -0.000262866 0)
(0.00153428 -0.000257186 0)
(0.00158562 -0.00025126 0)
(0.00163576 -0.000245089 0)
(0.00168464 -0.000238672 0)
(0.00173223 -0.000232009 0)
(0.00177846 -0.0002251 0)
(0.00182329 -0.000217945 0)