/*--------------------------------*- C++ -*----------------------------------*\
| =========                 |                                                 |
| \\      /  F ield         | OpenFOAM: The Open Source CFD Toolbox           |
|  \\    /   O peration     | Version:  2412                                  |
|   \\  /    A nd           | Website:  www.openfoam.com                      |
|    \\/     M anipulation  |                                                 |
\*---------------------------------------------------------------------------*/
FoamFile
{
    version     2.0;
    format      ascii;
    arch        "LSB;label=32;scalar=64";
    class       volScalarField;
    location    "1.17";
    object      p_rgh;
}
// * * * * * * * * * * * * * * * * * * * * * * * * * * * * * * * * * * * * * //

dimensions      [1 -1 -2 0 0 0 0];

internalField   nonuniform List<scalar> 
40000
(
1.962
1.96201
1.96193
1.96174
1.96144
1.96103
1.96051
1.95988
1.95915
1.95832
1.95737
1.95633
1.95518
1.95392
1.95257
1.95112
1.94957
1.94792
1.94617
1.94433
1.9424
1.94038
1.93827
1.93607
1.93379
1.93142
1.92897
1.92645
1.92385
1.92117
1.91842
1.91561
1.91273
1.90978
1.90678
1.90371
1.90059
1.89742
1.89421
1.89094
1.88764
1.88429
1.88091
1.87749
1.87405
1.87058
1.86709
1.86358
1.86006
1.85652
1.85298
1.84943
1.84588
1.84233
1.83879
1.83527
1.83175
1.82825
1.82478
1.82133
1.8179
1.81451
1.81116
1.80784
1.80457
1.80135
1.79817
1.79505
1.79198
1.78897
1.78603
1.78315
1.78034
1.77761
1.77495
1.77236
1.76986
1.76744
1.76511
1.76286
1.76071
1.75865
1.75668
1.75481
1.75304
1.75137
1.74981
1.74835
1.74699
1.74575
1.74461
1.74358
1.74267
1.74186
1.74117
1.74059
1.74013
1.73978
1.73955
1.73943
1.73943
1.73954
1.73977
1.74011
1.74057
1.74114
1.74183
1.74263
1.74354
1.74456
1.7457
1.74694
1.74829
1.74975
1.75131
1.75297
1.75473
1.7566
1.75856
1.76062
1.76277
1.76501
1.76734
1.76975
1.77225
1.77483
1.77749
1.78022
1.78302
1.7859
1.78884
1.79184
1.7949
1.79802
1.8012
1.80442
1.80769
1.811
1.81435
1.81774
1.82116
1.8246
1.82808
1.83157
1.83508
1.83861
1.84215
1.84569
1.84924
1.85278
1.85632
1.85986
1.86338
1.86689
1.87038
1.87384
1.87728
1.88069
1.88407
1.88742
1.89072
1.89398
1.8972
1.90037
1.90348
1.90655
1.90955
1.91249
1.91537
1.91819
1.92093
1.92361
1.92621
1.92873
1.93118
1.93354
1.93582
1.93802
1.94013
1.94215
1.94408
1.94592
1.94767
1.94931
1.95087
1.95232
1.95367
1.95492
1.95607
1.95712
1.95806
1.9589
1.95963
1.96026
1.96078
1.96119
1.9615
1.9617
1.96178
1.96176
1.96198
1.962
1.96192
1.96173
1.96142
1.96101
1.9605
1.95987
1.95914
1.9583
1.95736
1.95631
1.95516
1.95391
1.95256
1.9511
1.94955
1.9479
1.94616
1.94432
1.94239
1.94037
1.93825
1.93606
1.93377
1.93141
1.92896
1.92643
1.92383
1.92116
1.91841
1.91559
1.91271
1.90977
1.90676
1.9037
1.90058
1.89741
1.89419
1.89093
1.88762
1.88428
1.8809
1.87748
1.87404
1.87057
1.86708
1.86357
1.86005
1.85651
1.85297
1.84942
1.84587
1.84232
1.83879
1.83526
1.83174
1.82825
1.82477
1.82132
1.8179
1.81451
1.81116
1.80784
1.80457
1.80135
1.79817
1.79505
1.79198
1.78898
1.78603
1.78316
1.78035
1.77762
1.77496
1.77237
1.76987
1.76745
1.76512
1.76288
1.76072
1.75866
1.7567
1.75483
1.75306
1.7514
1.74983
1.74837
1.74702
1.74577
1.74463
1.74361
1.74269
1.74189
1.7412
1.74062
1.74016
1.73981
1.73957
1.73946
1.73945
1.73957
1.7398
1.74014
1.7406
1.74117
1.74186
1.74266
1.74357
1.74459
1.74572
1.74696
1.74831
1.74977
1.75133
1.75299
1.75475
1.75662
1.75858
1.76063
1.76278
1.76502
1.76735
1.76976
1.77226
1.77484
1.7775
1.78023
1.78303
1.7859
1.78884
1.79184
1.79491
1.79803
1.8012
1.80442
1.80769
1.811
1.81435
1.81773
1.82115
1.8246
1.82807
1.83157
1.83508
1.8386
1.84214
1.84568
1.84923
1.85277
1.85631
1.85985
1.86337
1.86688
1.87036
1.87383
1.87727
1.88068
1.88406
1.8874
1.89071
1.89397
1.89719
1.90036
1.90347
1.90653
1.90954
1.91248
1.91536
1.91817
1.92092
1.92359
1.92619
1.92872
1.93116
1.93353
1.93581
1.93801
1.94012
1.94214
1.94407
1.94591
1.94765
1.9493
1.95085
1.95231
1.95366
1.95491
1.95606
1.95711
1.95805
1.95889
1.95962
1.96025
1.96077
1.96118
1.96149
1.96168
1.96177
1.96175
1.96207
1.96208
1.962
1.96181
1.96151
1.96109
1.96058
1.95995
1.95922
1.95838
1.95744
1.95639
1.95524
1.95398
1.95263
1.95118
1.94962
1.94797
1.94623
1.94439
1.94245
1.94043
1.93832
1.93612
1.93383
1.93146
1.92901
1.92649
1.92388
1.9212
1.91846
1.91564
1.91275
1.90981
1.9068
1.90373
1.90061
1.89744
1.89422
1.89095
1.88764
1.8843
1.88091
1.87749
1.87405
1.87058
1.86708
1.86357
1.86004
1.85651
1.85296
1.84941
1.84586
1.84231
1.83877
1.83524
1.83172
1.82822
1.82474
1.82129
1.81786
1.81447
1.81112
1.8078
1.80453
1.8013
1.79812
1.795
1.79193
1.78892
1.78598
1.7831
1.78029
1.77755
1.77489
1.77231
1.7698
1.76738
1.76505
1.7628
1.76065
1.75859
1.75662
1.75475
1.75298
1.75132
1.74975
1.74829
1.74694
1.74569
1.74455
1.74352
1.74261
1.7418
1.74111
1.74053
1.74007
1.73972
1.73949
1.73937
1.73937
1.73948
1.73971
1.74005
1.74051
1.74108
1.74177
1.74257
1.74348
1.74451
1.74564
1.74688
1.74823
1.74969
1.75125
1.75291
1.75468
1.75654
1.7585
1.76056
1.76271
1.76495
1.76728
1.7697
1.77219
1.77477
1.77743
1.78017
1.78297
1.78585
1.78879
1.79179
1.79486
1.79798
1.80115
1.80437
1.80764
1.81096
1.81431
1.8177
1.82112
1.82457
1.82804
1.83154
1.83506
1.83858
1.84212
1.84567
1.84922
1.85277
1.85631
1.85985
1.86337
1.86688
1.87037
1.87384
1.87728
1.8807
1.88408
1.88742
1.89073
1.894
1.89722
1.90039
1.9035
1.90657
1.90957
1.91252
1.9154
1.91822
1.92097
1.92364
1.92625
1.92877
1.93122
1.93359
1.93587
1.93807
1.94018
1.9422
1.94414
1.94598
1.94772
1.94937
1.95093
1.95238
1.95373
1.95499
1.95614
1.95719
1.95813
1.95897
1.9597
1.96033
1.96085
1.96126
1.96157
1.96176
1.96185
1.96183
1.96226
1.96227
1.96219
1.96199
1.96169
1.96128
1.96076
1.96013
1.9594
1.95856
1.95761
1.95657
1.95541
1.95416
1.9528
1.95134
1.94979
1.94813
1.94639
1.94454
1.94261
1.94058
1.93846
1.93626
1.93397
1.9316
1.92914
1.92661
1.924
1.92132
1.91857
1.91575
1.91286
1.9099
1.90689
1.90382
1.90069
1.89752
1.89429
1.89102
1.8877
1.88435
1.88096
1.87754
1.87408
1.87061
1.86711
1.86359
1.86005
1.85651
1.85296
1.8494
1.84584
1.84229
1.83874
1.8352
1.83168
1.82817
1.82469
1.82123
1.8178
1.8144
1.81103
1.80771
1.80443
1.8012
1.79802
1.79489
1.79181
1.7888
1.78585
1.78296
1.78015
1.77741
1.77474
1.77215
1.76964
1.76722
1.76488
1.76263
1.76047
1.75841
1.75644
1.75456
1.75279
1.75112
1.74955
1.74809
1.74673
1.74548
1.74434
1.74331
1.7424
1.74159
1.7409
1.74032
1.73985
1.7395
1.73927
1.73915
1.73915
1.73926
1.73949
1.73984
1.7403
1.74087
1.74156
1.74236
1.74327
1.7443
1.74543
1.74668
1.74803
1.74949
1.75105
1.75272
1.75449
1.75636
1.75832
1.76038
1.76254
1.76478
1.76712
1.76954
1.77204
1.77462
1.77729
1.78003
1.78284
1.78572
1.78866
1.79167
1.79474
1.79787
1.80105
1.80428
1.80756
1.81088
1.81423
1.81763
1.82106
1.82451
1.828
1.8315
1.83502
1.83855
1.8421
1.84565
1.84921
1.85276
1.85631
1.85985
1.86339
1.8669
1.8704
1.87387
1.87732
1.88074
1.88413
1.88748
1.8908
1.89407
1.89729
1.90047
1.90359
1.90666
1.90967
1.91262
1.91551
1.91833
1.92108
1.92377
1.92637
1.9289
1.93136
1.93373
1.93601
1.93822
1.94033
1.94236
1.94429
1.94614
1.94789
1.94954
1.95109
1.95255
1.95391
1.95516
1.95631
1.95736
1.95831
1.95915
1.95988
1.96051
1.96103
1.96144
1.96175
1.96195
1.96203
1.96202
1.96255
1.96256
1.96248
1.96228
1.96198
1.96157
1.96104
1.96042
1.95968
1.95884
1.95789
1.95684
1.95568
1.95443
1.95307
1.95161
1.95005
1.94839
1.94664
1.94479
1.94285
1.94081
1.93869
1.93648
1.93419
1.93181
1.92935
1.92681
1.9242
1.92151
1.91875
1.91592
1.91302
1.91006
1.90704
1.90396
1.90083
1.89764
1.89441
1.89112
1.8878
1.88444
1.88104
1.87761
1.87414
1.87066
1.86715
1.86362
1.86008
1.85652
1.85296
1.84939
1.84582
1.84226
1.8387
1.83515
1.83162
1.8281
1.8246
1.82113
1.81769
1.81429
1.81091
1.80758
1.80429
1.80105
1.79785
1.79471
1.79163
1.78861
1.78565
1.78276
1.77993
1.77718
1.77451
1.77191
1.76939
1.76696
1.76462
1.76236
1.76019
1.75812
1.75615
1.75427
1.75249
1.75081
1.74924
1.74777
1.74641
1.74516
1.74402
1.74298
1.74206
1.74125
1.74056
1.73998
1.73951
1.73916
1.73893
1.73881
1.73881
1.73892
1.73915
1.73949
1.73996
1.74053
1.74122
1.74203
1.74294
1.74397
1.74511
1.74636
1.74771
1.74918
1.75075
1.75242
1.75419
1.75606
1.75804
1.7601
1.76226
1.76452
1.76686
1.76929
1.7718
1.77439
1.77706
1.77981
1.78263
1.78552
1.78847
1.79149
1.79457
1.79771
1.8009
1.80414
1.80742
1.81075
1.81412
1.81753
1.82097
1.82443
1.82792
1.83144
1.83497
1.83851
1.84207
1.84563
1.8492
1.85276
1.85632
1.85988
1.86342
1.86694
1.87045
1.87393
1.87739
1.88082
1.88422
1.88758
1.8909
1.89418
1.89742
1.9006
1.90373
1.90681
1.90983
1.91279
1.91568
1.91851
1.92127
1.92396
1.92657
1.92911
1.93157
1.93394
1.93624
1.93845
1.94057
1.9426
1.94454
1.94639
1.94814
1.9498
1.95135
1.95281
1.95417
1.95543
1.95659
1.95764
1.95859
1.95943
1.96017
1.96079
1.96132
1.96173
1.96204
1.96223
1.96232
1.9623
1.96294
1.96296
1.96287
1.96267
1.96237
1.96195
1.96143
1.9608
1.96006
1.95922
1.95827
1.95721
1.95605
1.95479
1.95342
1.95196
1.9504
1.94873
1.94697
1.94512
1.94317
1.94113
1.939
1.93679
1.93449
1.9321
1.92963
1.92709
1.92446
1.92176
1.91899
1.91615
1.91325
1.91028
1.90724
1.90415
1.90101
1.89781
1.89457
1.89127
1.88794
1.88456
1.88115
1.8777
1.87423
1.87073
1.86721
1.86367
1.86011
1.85654
1.85296
1.84938
1.8458
1.84222
1.83865
1.83508
1.83154
1.82801
1.8245
1.82101
1.81756
1.81414
1.81075
1.8074
1.8041
1.80084
1.79764
1.79448
1.79139
1.78835
1.78538
1.78248
1.77964
1.77688
1.77419
1.77158
1.76906
1.76661
1.76426
1.76199
1.75982
1.75774
1.75575
1.75387
1.75208
1.7504
1.74882
1.74734
1.74597
1.74472
1.74357
1.74253
1.7416
1.74079
1.74009
1.73951
1.73904
1.73869
1.73846
1.73834
1.73833
1.73845
1.73868
1.73903
1.73949
1.74007
1.74076
1.74157
1.74249
1.74352
1.74467
1.74592
1.74728
1.74875
1.75033
1.75201
1.75379
1.75567
1.75765
1.75973
1.7619
1.76416
1.76651
1.76895
1.77147
1.77408
1.77676
1.77952
1.78235
1.78525
1.78822
1.79125
1.79434
1.79749
1.80069
1.80395
1.80725
1.81059
1.81397
1.81739
1.82084
1.82432
1.82783
1.83136
1.8349
1.83846
1.84203
1.84561
1.84919
1.85277
1.85634
1.85991
1.86346
1.867
1.87052
1.87402
1.87749
1.88093
1.88434
1.88772
1.89105
1.89434
1.89759
1.90078
1.90393
1.90701
1.91004
1.91301
1.91592
1.91876
1.92153
1.92422
1.92684
1.92939
1.93186
1.93424
1.93654
1.93876
1.94089
1.94292
1.94487
1.94672
1.94848
1.95014
1.95171
1.95317
1.95454
1.9558
1.95696
1.95801
1.95897
1.95981
1.96055
1.96118
1.9617
1.96212
1.96243
1.96262
1.96271
1.96269
1.96344
1.96345
1.96336
1.96317
1.96286
1.96244
1.96192
1.96128
1.96054
1.95969
1.95874
1.95768
1.95652
1.95525
1.95388
1.95241
1.95084
1.94917
1.9474
1.94554
1.94358
1.94154
1.9394
1.93717
1.93486
1.93247
1.92999
1.92743
1.9248
1.92209
1.9193
1.91645
1.91353
1.91055
1.90751
1.9044
1.90124
1.89803
1.89477
1.89146
1.88811
1.88472
1.88129
1.87783
1.87434
1.87082
1.86728
1.86373
1.86015
1.85657
1.85297
1.84937
1.84577
1.84218
1.83859
1.83501
1.83144
1.82789
1.82437
1.82086
1.81739
1.81395
1.81055
1.80718
1.80386
1.80059
1.79737
1.7942
1.79108
1.78803
1.78504
1.78212
1.77927
1.77649
1.77379
1.77117
1.76863
1.76617
1.76381
1.76153
1.75934
1.75725
1.75525
1.75335
1.75156
1.74986
1.74828
1.74679
1.74542
1.74415
1.743
1.74195
1.74102
1.74021
1.73951
1.73892
1.73845
1.73809
1.73786
1.73774
1.73774
1.73785
1.73808
1.73843
1.7389
1.73948
1.74018
1.74099
1.74191
1.74295
1.7441
1.74536
1.74673
1.74821
1.7498
1.75148
1.75328
1.75517
1.75716
1.75925
1.76143
1.76371
1.76607
1.76852
1.77106
1.77368
1.77637
1.77915
1.782
1.78491
1.7879
1.79094
1.79405
1.79722
1.80044
1.80371
1.80703
1.81039
1.81379
1.81722
1.82069
1.82419
1.82772
1.83126
1.83482
1.8384
1.84199
1.84558
1.84918
1.85278
1.85637
1.85995
1.86352
1.86708
1.87062
1.87413
1.87762
1.88108
1.8845
1.88789
1.89124
1.89455
1.8978
1.90102
1.90417
1.90727
1.91032
1.9133
1.91622
1.91907
1.92185
1.92456
1.92719
1.92975
1.93222
1.93462
1.93693
1.93915
1.94129
1.94334
1.94529
1.94715
1.94892
1.95059
1.95216
1.95363
1.955
1.95626
1.95743
1.95849
1.95944
1.96029
1.96103
1.96166
1.96219
1.96261
1.96292
1.96311
1.9632
1.96318
1.96403
1.96404
1.96396
1.96376
1.96345
1.96303
1.9625
1.96187
1.96112
1.96027
1.95931
1.95825
1.95708
1.9558
1.95443
1.95295
1.95137
1.94969
1.94792
1.94605
1.94408
1.94203
1.93988
1.93764
1.93532
1.93291
1.93042
1.92785
1.9252
1.92248
1.91968
1.91682
1.91388
1.91088
1.90782
1.9047
1.90153
1.8983
1.89502
1.89169
1.88832
1.88491
1.88147
1.87799
1.87448
1.87094
1.86738
1.8638
1.86021
1.8566
1.85298
1.84936
1.84574
1.84213
1.83851
1.83491
1.83132
1.82776
1.82421
1.82068
1.81719
1.81373
1.8103
1.80692
1.80358
1.80028
1.79704
1.79385
1.79072
1.78764
1.78464
1.7817
1.77883
1.77603
1.77331
1.77067
1.76811
1.76564
1.76326
1.76096
1.75876
1.75665
1.75464
1.75274
1.75093
1.74922
1.74762
1.74613
1.74474
1.74347
1.74231
1.74126
1.74032
1.7395
1.73879
1.7382
1.73773
1.73737
1.73713
1.73701
1.73701
1.73712
1.73736
1.73771
1.73818
1.73876
1.73947
1.74028
1.74122
1.74226
1.74342
1.74469
1.74607
1.74756
1.74915
1.75085
1.75266
1.75456
1.75657
1.75867
1.76087
1.76316
1.76554
1.76801
1.77056
1.7732
1.77591
1.7787
1.78157
1.7845
1.78751
1.79058
1.7937
1.79689
1.80013
1.80342
1.80676
1.81014
1.81356
1.81702
1.82051
1.82403
1.82758
1.83115
1.83473
1.83833
1.84194
1.84555
1.84917
1.85279
1.8564
1.86001
1.8636
1.86717
1.87073
1.87426
1.87777
1.88125
1.88469
1.8881
1.89147
1.89479
1.89807
1.9013
1.90447
1.90759
1.91065
1.91365
1.91658
1.91944
1.92224
1.92496
1.92761
1.93018
1.93267
1.93507
1.9374
1.93963
1.94178
1.94384
1.9458
1.94767
1.94944
1.95112
1.9527
1.95418
1.95555
1.95683
1.95799
1.95906
1.96002
1.96087
1.96161
1.96225
1.96278
1.9632
1.96351
1.96371
1.96379
1.96378
1.96473
1.96474
1.96466
1.96446
1.96414
1.96372
1.96319
1.96255
1.9618
1.96095
1.95998
1.95891
1.95774
1.95646
1.95507
1.95359
1.952
1.95031
1.94853
1.94665
1.94467
1.9426
1.94044
1.93819
1.93585
1.93343
1.93093
1.92834
1.92568
1.92294
1.92013
1.91724
1.91429
1.91127
1.90819
1.90505
1.90186
1.89861
1.89531
1.89196
1.88857
1.88514
1.88167
1.87817
1.87464
1.87108
1.86749
1.86389
1.86027
1.85664
1.853
1.84936
1.84571
1.84207
1.83843
1.8348
1.83119
1.8276
1.82402
1.82047
1.81695
1.81347
1.81002
1.80661
1.80324
1.79992
1.79665
1.79344
1.79028
1.78719
1.78416
1.7812
1.7783
1.77549
1.77275
1.77009
1.76751
1.76502
1.76261
1.7603
1.75808
1.75596
1.75393
1.75201
1.75018
1.74846
1.74685
1.74535
1.74395
1.74267
1.74149
1.74043
1.73949
1.73866
1.73795
1.73735
1.73687
1.73652
1.73628
1.73615
1.73615
1.73627
1.7365
1.73686
1.73733
1.73792
1.73863
1.73945
1.74039
1.74145
1.74262
1.7439
1.74529
1.74679
1.74839
1.75011
1.75193
1.75385
1.75587
1.75799
1.7602
1.76251
1.76491
1.7674
1.76997
1.77263
1.77537
1.77818
1.78107
1.78403
1.78705
1.79014
1.7933
1.79651
1.79977
1.80309
1.80645
1.80986
1.8133
1.81679
1.8203
1.82385
1.82742
1.83101
1.83462
1.83825
1.84188
1.84552
1.84916
1.85281
1.85644
1.86007
1.86369
1.86729
1.87087
1.87443
1.87796
1.88146
1.88492
1.88835
1.89174
1.89509
1.89838
1.90163
1.90482
1.90796
1.91104
1.91406
1.91701
1.91989
1.9227
1.92544
1.9281
1.93068
1.93319
1.93561
1.93795
1.94019
1.94235
1.94442
1.9464
1.94828
1.95006
1.95175
1.95333
1.95482
1.9562
1.95748
1.95866
1.95973
1.96069
1.96155
1.9623
1.96294
1.96347
1.96389
1.9642
1.9644
1.96449
1.96447
1.96553
1.96554
1.96546
1.96526
1.96494
1.96452
1.96398
1.96334
1.96259
1.96172
1.96075
1.95968
1.95849
1.9572
1.95581
1.95432
1.95272
1.95102
1.94923
1.94733
1.94534
1.94326
1.94109
1.93882
1.93647
1.93403
1.93151
1.92891
1.92623
1.92347
1.92064
1.91773
1.91476
1.91172
1.90862
1.90546
1.90224
1.89897
1.89565
1.89228
1.88886
1.8854
1.88191
1.87838
1.87482
1.87124
1.86763
1.864
1.86035
1.85669
1.85302
1.84935
1.84568
1.842
1.83834
1.83468
1.83104
1.82742
1.82381
1.82023
1.81669
1.81317
1.80969
1.80625
1.80286
1.79951
1.79621
1.79297
1.78979
1.78667
1.78361
1.78062
1.7777
1.77486
1.7721
1.76941
1.76681
1.7643
1.76187
1.75954
1.7573
1.75515
1.75311
1.75117
1.74933
1.74759
1.74596
1.74445
1.74304
1.74174
1.74056
1.73949
1.73853
1.7377
1.73698
1.73638
1.73589
1.73553
1.73529
1.73517
1.73516
1.73528
1.73552
1.73588
1.73635
1.73695
1.73767
1.7385
1.73945
1.74051
1.74169
1.74298
1.74439
1.7459
1.74752
1.74925
1.75109
1.75303
1.75507
1.75721
1.75944
1.76177
1.76419
1.7667
1.7693
1.77198
1.77474
1.77758
1.78049
1.78348
1.78653
1.78965
1.79283
1.79607
1.79936
1.8027
1.80609
1.80953
1.81301
1.81652
1.82006
1.82364
1.82724
1.83086
1.8345
1.83815
1.84181
1.84548
1.84916
1.85283
1.85649
1.86015
1.86379
1.86742
1.87103
1.87461
1.87817
1.88169
1.88519
1.88864
1.89205
1.89542
1.89874
1.90201
1.90523
1.90839
1.91149
1.91453
1.9175
1.9204
1.92323
1.92599
1.92867
1.93127
1.93379
1.93623
1.93858
1.94084
1.94301
1.94509
1.94708
1.94897
1.95077
1.95247
1.95406
1.95556
1.95695
1.95824
1.95942
1.9605
1.96147
1.96233
1.96309
1.96373
1.96426
1.96469
1.965
1.9652
1.96529
1.96527
1.96643
1.96645
1.96636
1.96616
1.96584
1.96542
1.96488
1.96423
1.96347
1.9626
1.96163
1.96054
1.95935
1.95805
1.95665
1.95514
1.95353
1.95182
1.95001
1.94811
1.94611
1.94401
1.94182
1.93954
1.93717
1.93471
1.93217
1.92955
1.92685
1.92407
1.92122
1.91829
1.91529
1.91223
1.90911
1.90592
1.90268
1.89938
1.89603
1.89263
1.88919
1.8857
1.88218
1.87862
1.87504
1.87142
1.86778
1.86412
1.86044
1.85675
1.85305
1.84934
1.84564
1.84193
1.83823
1.83454
1.83087
1.82721
1.82358
1.81997
1.81638
1.81283
1.80932
1.80585
1.80242
1.79904
1.79572
1.79244
1.78923
1.78608
1.78299
1.77997
1.77702
1.77415
1.77136
1.76865
1.76602
1.76348
1.76103
1.75867
1.75641
1.75425
1.75218
1.75022
1.74836
1.7466
1.74496
1.74342
1.742
1.74069
1.73949
1.73841
1.73745
1.7366
1.73588
1.73527
1.73478
1.73442
1.73417
1.73405
1.73404
1.73416
1.7344
1.73477
1.73525
1.73585
1.73657
1.73741
1.73837
1.73945
1.74064
1.74195
1.74336
1.74489
1.74653
1.74828
1.75014
1.7521
1.75416
1.75632
1.75858
1.76093
1.76338
1.76591
1.76854
1.77124
1.77403
1.7769
1.77984
1.78286
1.78594
1.78909
1.7923
1.79557
1.79889
1.80227
1.80569
1.80916
1.81267
1.81622
1.81979
1.8234
1.82703
1.83069
1.83436
1.83805
1.84174
1.84544
1.84915
1.85285
1.85655
1.86024
1.86391
1.86757
1.87121
1.87482
1.87841
1.88196
1.88549
1.88897
1.89241
1.89581
1.89915
1.90245
1.90569
1.90888
1.912
1.91506
1.91805
1.92098
1.92383
1.92661
1.92931
1.93193
1.93447
1.93692
1.93929
1.94157
1.94376
1.94586
1.94786
1.94976
1.95157
1.95328
1.95489
1.95639
1.9578
1.95909
1.96029
1.96137
1.96235
1.96322
1.96397
1.96462
1.96516
1.96559
1.9659
1.96611
1.96619
1.96618
1.96744
1.96746
1.96737
1.96717
1.96685
1.96642
1.96588
1.96522
1.96446
1.96358
1.9626
1.9615
1.9603
1.959
1.95758
1.95606
1.95444
1.95272
1.9509
1.94897
1.94696
1.94484
1.94263
1.94033
1.93795
1.93547
1.93291
1.93027
1.92754
1.92474
1.92186
1.91891
1.91589
1.9128
1.90965
1.90644
1.90317
1.89984
1.89646
1.89303
1.88956
1.88604
1.88249
1.8789
1.87527
1.87162
1.86795
1.86425
1.86054
1.85681
1.85308
1.84934
1.8456
1.84185
1.83812
1.83439
1.83068
1.82699
1.82331
1.81967
1.81605
1.81246
1.80891
1.8054
1.80194
1.79852
1.79516
1.79185
1.7886
1.78542
1.7823
1.77924
1.77627
1.77336
1.77054
1.7678
1.76514
1.76257
1.76009
1.75771
1.75542
1.75323
1.75114
1.74915
1.74727
1.7455
1.74384
1.74228
1.74084
1.73952
1.73831
1.73721
1.73624
1.73538
1.73465
1.73403
1.73354
1.73317
1.73292
1.73279
1.73279
1.73291
1.73316
1.73352
1.73401
1.73462
1.73535
1.7362
1.73717
1.73826
1.73946
1.74079
1.74222
1.74377
1.74543
1.7472
1.74907
1.75106
1.75314
1.75533
1.75761
1.75999
1.76246
1.76503
1.76768
1.77042
1.77324
1.77614
1.77911
1.78216
1.78528
1.78846
1.79171
1.79501
1.79837
1.80178
1.80525
1.80875
1.8123
1.81588
1.81949
1.82314
1.82681
1.8305
1.83421
1.83793
1.84166
1.8454
1.84914
1.85288
1.85661
1.86034
1.86405
1.86774
1.87141
1.87506
1.87868
1.88227
1.88582
1.88934
1.89281
1.89623
1.89961
1.90294
1.90621
1.90942
1.91257
1.91565
1.91867
1.92162
1.9245
1.9273
1.93002
1.93267
1.93523
1.9377
1.94009
1.94239
1.94459
1.94671
1.94872
1.95064
1.95247
1.95419
1.95581
1.95733
1.95874
1.96005
1.96125
1.96234
1.96333
1.9642
1.96497
1.96562
1.96616
1.96659
1.96691
1.96711
1.9672
1.96719
1.96856
1.96857
1.96848
1.96828
1.96796
1.96752
1.96698
1.96632
1.96555
1.96466
1.96367
1.96257
1.96136
1.96004
1.95861
1.95708
1.95545
1.95371
1.95187
1.94993
1.9479
1.94576
1.94354
1.94122
1.93881
1.93631
1.93373
1.93106
1.92831
1.92548
1.92258
1.9196
1.91655
1.91343
1.91025
1.90701
1.90371
1.90035
1.89693
1.89347
1.88996
1.88641
1.88282
1.8792
1.87554
1.87185
1.86814
1.86441
1.86065
1.85689
1.85311
1.84933
1.84555
1.84177
1.83799
1.83423
1.83047
1.82674
1.82302
1.81933
1.81568
1.81205
1.80846
1.80491
1.80141
1.79795
1.79455
1.7912
1.78791
1.78469
1.78153
1.77844
1.77543
1.77249
1.76963
1.76685
1.76416
1.76156
1.75905
1.75664
1.75432
1.7521
1.74999
1.74798
1.74607
1.74428
1.74259
1.74102
1.73956
1.73822
1.73699
1.73588
1.73489
1.73403
1.73328
1.73266
1.73216
1.73178
1.73153
1.73141
1.7314
1.73153
1.73177
1.73214
1.73264
1.73326
1.734
1.73486
1.73584
1.73694
1.73816
1.7395
1.74096
1.74252
1.74421
1.746
1.7479
1.7499
1.75201
1.75423
1.75654
1.75895
1.76146
1.76405
1.76674
1.76951
1.77236
1.7753
1.77831
1.78139
1.78455
1.78777
1.79105
1.7944
1.7978
1.80125
1.80475
1.8083
1.81188
1.81551
1.81916
1.82285
1.82656
1.83029
1.83404
1.8378
1.84158
1.84536
1.84914
1.85292
1.85669
1.86045
1.8642
1.86793
1.87164
1.87532
1.87898
1.88261
1.88619
1.88974
1.89325
1.89671
1.90012
1.90348
1.90678
1.91002
1.9132
1.91631
1.91936
1.92234
1.92524
1.92807
1.93081
1.93348
1.93606
1.93856
1.94097
1.94329
1.94551
1.94764
1.94968
1.95162
1.95346
1.95519
1.95683
1.95836
1.95978
1.9611
1.96231
1.96341
1.96441
1.96529
1.96606
1.96672
1.96727
1.9677
1.96802
1.96823
1.96832
1.9683
1.96978
1.9698
1.96971
1.9695
1.96917
1.96874
1.96818
1.96752
1.96674
1.96585
1.96485
1.96374
1.96251
1.96118
1.95974
1.9582
1.95655
1.95479
1.95294
1.95098
1.94893
1.94677
1.94452
1.94218
1.93975
1.93723
1.93462
1.93193
1.92915
1.92629
1.92336
1.92035
1.91728
1.91413
1.91091
1.90764
1.9043
1.9009
1.89746
1.89396
1.89041
1.88682
1.8832
1.87953
1.87583
1.8721
1.86835
1.86457
1.86078
1.85697
1.85315
1.84933
1.8455
1.84168
1.83786
1.83404
1.83025
1.82647
1.82271
1.81897
1.81527
1.8116
1.80796
1.80437
1.80082
1.79732
1.79388
1.79049
1.78715
1.78389
1.78069
1.77756
1.7745
1.77153
1.76863
1.76582
1.76309
1.76046
1.75791
1.75546
1.75312
1.75087
1.74872
1.74668
1.74475
1.74293
1.74122
1.73963
1.73815
1.73679
1.73554
1.73442
1.73342
1.73254
1.73178
1.73115
1.73065
1.73026
1.73001
1.72988
1.72988
1.73
1.73025
1.73063
1.73113
1.73176
1.73251
1.73338
1.73438
1.7355
1.73673
1.73809
1.73957
1.74116
1.74286
1.74468
1.7466
1.74864
1.75078
1.75302
1.75537
1.75781
1.76035
1.76298
1.7657
1.76851
1.7714
1.77438
1.77743
1.78055
1.78375
1.78701
1.79034
1.79373
1.79717
1.80066
1.80421
1.8078
1.81143
1.8151
1.8188
1.82253
1.82629
1.83006
1.83386
1.83767
1.84148
1.84531
1.84913
1.85295
1.85677
1.86057
1.86437
1.86814
1.87189
1.87562
1.87931
1.88298
1.8866
1.89019
1.89373
1.89723
1.90068
1.90407
1.9074
1.91068
1.91389
1.91704
1.92012
1.92312
1.92605
1.92891
1.93168
1.93437
1.93698
1.9395
1.94193
1.94428
1.94652
1.94867
1.95073
1.95269
1.95454
1.95629
1.95794
1.95949
1.96093
1.96226
1.96348
1.96459
1.96559
1.96648
1.96726
1.96793
1.96848
1.96891
1.96924
1.96945
1.96954
1.96952
1.97111
1.97112
1.97103
1.97082
1.9705
1.97005
1.9695
1.96882
1.96804
1.96714
1.96613
1.965
1.96377
1.96243
1.96097
1.95941
1.95775
1.95597
1.9541
1.95212
1.95005
1.94787
1.9456
1.94324
1.94078
1.93823
1.93559
1.93287
1.93007
1.92718
1.92422
1.92118
1.91806
1.91488
1.91163
1.90832
1.90494
1.90151
1.89803
1.89449
1.8909
1.88727
1.8836
1.87989
1.87615
1.87238
1.86858
1.86476
1.86092
1.85706
1.8532
1.84933
1.84545
1.84158
1.83771
1.83385
1.83
1.82617
1.82236
1.81858
1.81483
1.81111
1.80742
1.80378
1.80019
1.79664
1.79314
1.78971
1.78633
1.78302
1.77977
1.7766
1.7735
1.77048
1.76754
1.76469
1.76192
1.75925
1.75667
1.75418
1.7518
1.74952
1.74734
1.74527
1.74331
1.74146
1.73973
1.73811
1.73661
1.73523
1.73396
1.73282
1.73181
1.73091
1.73015
1.72951
1.72899
1.72861
1.72835
1.72822
1.72821
1.72834
1.72859
1.72897
1.72948
1.73012
1.73088
1.73177
1.73278
1.73392
1.73517
1.73655
1.73805
1.73966
1.74139
1.74324
1.74519
1.74726
1.74943
1.75171
1.75409
1.75656
1.75914
1.76181
1.76457
1.76742
1.77036
1.77337
1.77647
1.77964
1.78288
1.78619
1.78956
1.79299
1.79648
1.80003
1.80362
1.80726
1.81094
1.81466
1.81841
1.82219
1.82599
1.82982
1.83366
1.83752
1.84138
1.84525
1.84913
1.853
1.85686
1.86071
1.86455
1.86837
1.87216
1.87593
1.87967
1.88338
1.88705
1.89068
1.89426
1.8978
1.90128
1.90471
1.90809
1.9114
1.91465
1.91783
1.92094
1.92398
1.92694
1.92982
1.93263
1.93535
1.93798
1.94053
1.94299
1.94535
1.94762
1.94979
1.95187
1.95385
1.95572
1.95749
1.95916
1.96072
1.96217
1.96351
1.96475
1.96587
1.96688
1.96778
1.96857
1.96924
1.96979
1.97024
1.97056
1.97077
1.97086
1.97085
1.97255
1.97256
1.97247
1.97226
1.97193
1.97148
1.97092
1.97024
1.96944
1.96853
1.96751
1.96638
1.96513
1.96377
1.9623
1.96073
1.95904
1.95725
1.95536
1.95336
1.95126
1.94906
1.94677
1.94437
1.94189
1.93931
1.93665
1.9339
1.93106
1.92814
1.92514
1.92207
1.91892
1.9157
1.91241
1.90906
1.90565
1.90217
1.89864
1.89506
1.89143
1.88776
1.88404
1.88029
1.8765
1.87268
1.86883
1.86496
1.86107
1.85716
1.85325
1.84932
1.8454
1.84147
1.83755
1.83364
1.82974
1.82585
1.82199
1.81816
1.81435
1.81058
1.80684
1.80315
1.7995
1.7959
1.79235
1.78886
1.78544
1.78207
1.77878
1.77556
1.77241
1.76935
1.76636
1.76346
1.76066
1.75794
1.75532
1.7528
1.75037
1.74806
1.74585
1.74374
1.74175
1.73987
1.73811
1.73647
1.73494
1.73353
1.73225
1.73109
1.73006
1.72915
1.72837
1.72772
1.7272
1.7268
1.72654
1.72641
1.72641
1.72653
1.72679
1.72718
1.7277
1.72834
1.72912
1.73002
1.73105
1.7322
1.73348
1.73488
1.7364
1.73804
1.7398
1.74167
1.74366
1.74576
1.74797
1.75028
1.7527
1.75521
1.75783
1.76054
1.76335
1.76624
1.76922
1.77228
1.77542
1.77864
1.78193
1.78529
1.78871
1.7922
1.79574
1.79934
1.80298
1.80667
1.81041
1.81418
1.81798
1.82181
1.82567
1.82955
1.83345
1.83736
1.84128
1.8452
1.84912
1.85305
1.85696
1.86086
1.86475
1.86862
1.87246
1.87628
1.88007
1.88382
1.88753
1.89121
1.89483
1.89841
1.90194
1.90541
1.90883
1.91218
1.91546
1.91868
1.92183
1.9249
1.9279
1.93081
1.93365
1.9364
1.93907
1.94164
1.94412
1.94652
1.94881
1.95101
1.95311
1.9551
1.957
1.95879
1.96047
1.96205
1.96351
1.96487
1.96612
1.96725
1.96827
1.96918
1.96998
1.97066
1.97122
1.97166
1.97199
1.97221
1.9723
1.97228
1.97409
1.97411
1.97401
1.9738
1.97346
1.97301
1.97244
1.97176
1.97095
1.97004
1.969
1.96785
1.96659
1.96522
1.96373
1.96214
1.96044
1.95863
1.95671
1.95469
1.95257
1.95034
1.94802
1.9456
1.94309
1.94048
1.93778
1.935
1.93213
1.92917
1.92614
1.92303
1.91984
1.91658
1.91325
1.90986
1.9064
1.90288
1.89931
1.89568
1.89201
1.88828
1.88452
1.88071
1.87687
1.873
1.8691
1.86518
1.86123
1.85727
1.8533
1.84932
1.84534
1.84136
1.83738
1.83341
1.82945
1.82551
1.82159
1.8177
1.81383
1.81
1.80621
1.80246
1.79875
1.7951
1.7915
1.78795
1.78447
1.78106
1.77771
1.77444
1.77124
1.76812
1.76509
1.76214
1.75929
1.75653
1.75386
1.7513
1.74884
1.74648
1.74423
1.74209
1.74007
1.73816
1.73636
1.73469
1.73314
1.73171
1.7304
1.72922
1.72817
1.72725
1.72646
1.72579
1.72526
1.72486
1.72459
1.72446
1.72446
1.72459
1.72485
1.72524
1.72577
1.72643
1.72722
1.72813
1.72918
1.73035
1.73165
1.73308
1.73463
1.73629
1.73808
1.73999
1.74201
1.74414
1.74639
1.74874
1.7512
1.75376
1.75642
1.75918
1.76203
1.76497
1.768
1.77111
1.7743
1.77757
1.78091
1.78433
1.7878
1.79134
1.79494
1.79859
1.8023
1.80604
1.80983
1.81366
1.81752
1.82141
1.82533
1.82927
1.83322
1.83719
1.84116
1.84514
1.84912
1.8531
1.85707
1.86102
1.86497
1.86889
1.87278
1.87665
1.88049
1.88429
1.88806
1.89178
1.89545
1.89908
1.90265
1.90617
1.90962
1.91302
1.91634
1.9196
1.92279
1.9259
1.92893
1.93188
1.93475
1.93754
1.94023
1.94284
1.94535
1.94777
1.95009
1.95231
1.95443
1.95645
1.95837
1.96018
1.96188
1.96348
1.96496
1.96633
1.96759
1.96874
1.96977
1.97069
1.9715
1.97218
1.97275
1.9732
1.97354
1.97375
1.97384
1.97383
1.97575
1.97576
1.97567
1.97545
1.97511
1.97466
1.97408
1.97339
1.97257
1.97164
1.9706
1.96944
1.96816
1.96677
1.96527
1.96365
1.96193
1.9601
1.95816
1.95612
1.95397
1.95172
1.94937
1.94692
1.94437
1.94173
1.939
1.93618
1.93328
1.93028
1.92721
1.92406
1.92083
1.91753
1.91416
1.91072
1.90721
1.90365
1.90002
1.89635
1.89262
1.88885
1.88503
1.88117
1.87727
1.87335
1.86939
1.86541
1.86141
1.85739
1.85336
1.84932
1.84528
1.84124
1.8372
1.83317
1.82915
1.82515
1.82117
1.81721
1.81328
1.80939
1.80554
1.80172
1.79796
1.79424
1.79058
1.78698
1.78344
1.77996
1.77656
1.77323
1.76998
1.76681
1.76372
1.76073
1.75782
1.75501
1.7523
1.74969
1.74718
1.74478
1.74249
1.74032
1.73825
1.73631
1.73448
1.73278
1.7312
1.72974
1.72841
1.72721
1.72614
1.7252
1.72439
1.72372
1.72318
1.72277
1.7225
1.72236
1.72236
1.72249
1.72276
1.72316
1.72369
1.72437
1.72517
1.7261
1.72717
1.72836
1.72969
1.73114
1.73271
1.73441
1.73624
1.73818
1.74023
1.74241
1.74469
1.74708
1.74959
1.75219
1.7549
1.75771
1.76061
1.7636
1.76668
1.76985
1.7731
1.77642
1.77982
1.78329
1.78683
1.79043
1.79409
1.7978
1.80156
1.80537
1.80922
1.81311
1.81703
1.82098
1.82496
1.82896
1.83298
1.837
1.84104
1.84508
1.84912
1.85316
1.85719
1.8612
1.8652
1.86918
1.87313
1.87706
1.88095
1.8848
1.88862
1.89239
1.89612
1.89979
1.90341
1.90698
1.91048
1.91392
1.91729
1.92059
1.92382
1.92697
1.93004
1.93303
1.93593
1.93875
1.94148
1.94412
1.94666
1.94911
1.95146
1.95371
1.95586
1.9579
1.95984
1.96167
1.9634
1.96501
1.96651
1.9679
1.96918
1.97034
1.97138
1.97231
1.97312
1.97382
1.97439
1.97485
1.97519
1.97541
1.9755
1.97548
1.97752
1.97753
1.97743
1.97721
1.97687
1.97641
1.97583
1.97512
1.9743
1.97336
1.9723
1.97113
1.96983
1.96843
1.96691
1.96527
1.96353
1.96167
1.95971
1.95764
1.95546
1.95318
1.9508
1.94832
1.94574
1.94307
1.9403
1.93745
1.9345
1.93147
1.92835
1.92516
1.92189
1.91854
1.91512
1.91163
1.90808
1.90446
1.90079
1.89706
1.89328
1.88945
1.88558
1.88166
1.87771
1.87372
1.8697
1.86566
1.8616
1.85752
1.85343
1.84933
1.84522
1.84111
1.83701
1.83291
1.82882
1.82476
1.82071
1.81669
1.8127
1.80874
1.80482
1.80094
1.79711
1.79333
1.7896
1.78594
1.78233
1.7788
1.77533
1.77194
1.76863
1.7654
1.76226
1.75921
1.75625
1.75339
1.75062
1.74796
1.74541
1.74297
1.74063
1.73841
1.73631
1.73433
1.73247