/*--------------------------------*- C++ -*----------------------------------*\
| =========                 |                                                 |
| \\      /  F ield         | OpenFOAM: The Open Source CFD Toolbox           |
|  \\    /   O peration     | Version:  2412                                  |
|   \\  /    A nd           | Website:  www.openfoam.com                      |
|    \\/     M anipulation  |                                                 |
\*---------------------------------------------------------------------------*/
FoamFile
{
    version     2.0;
    format      ascii;
    arch        "LSB;label=32;scalar=64";
    class       surfaceScalarField;
    location    "1.17";
    object      phi;
}
// * * * * * * * * * * * * * * * * * * * * * * * * * * * * * * * * * * * * * //

dimensions      [0 3 -1 0 0 0 0];

oriented        oriented;

internalField   nonuniform List<scalar> 
79600
(
2.10586e-11
-2.1019e-11
5.38979e-11
-3.28393e-11
9.03502e-11
-3.64515e-11
1.28214e-10
-3.78632e-11
1.66663e-10
-3.84503e-11
2.05255e-10
-3.85935e-11
2.43752e-10
-3.84963e-11
2.8205e-10
-3.82976e-11
3.20102e-10
-3.80511e-11
3.57882e-10
-3.77803e-11
3.95372e-10
-3.74901e-11
4.3255e-10
-3.71784e-11
4.69395e-10
-3.68444e-11
5.05882e-10
-3.64873e-11
5.41989e-10
-3.6106e-11
5.77688e-10
-3.56993e-11
6.12954e-10
-3.52662e-11
6.47761e-10
-3.48062e-11
6.8208e-10
-3.4319e-11
7.15884e-10
-3.38041e-11
7.49146e-10
-3.32611e-11
7.81836e-10
-3.26898e-11
8.13927e-10
-3.20901e-11
8.45389e-10
-3.14619e-11
8.76193e-10
-3.08049e-11
9.06312e-10
-3.01192e-11
9.35717e-10
-2.94045e-11
9.64378e-10
-2.8661e-11
9.92267e-10
-2.78888e-11
1.01936e-09
-2.70881e-11
1.04561e-09
-2.62588e-11
1.07102e-09
-2.5401e-11
1.09553e-09
-2.45146e-11
1.11913e-09
-2.35999e-11
1.14179e-09
-2.2657e-11
1.16347e-09
-2.16863e-11
1.18416e-09
-2.0688e-11
1.20382e-09
-1.96624e-11
1.22243e-09
-1.86098e-11
1.23996e-09
-1.75305e-11
1.25639e-09
-1.64247e-11
1.27168e-09
-1.52931e-11
1.28582e-09
-1.4136e-11
1.29877e-09
-1.29543e-11
1.31052e-09
-1.17486e-11
1.32104e-09
-1.05199e-11
1.33031e-09
-9.2691e-12
1.33831e-09
-7.99708e-12
1.34501e-09
-6.70476e-12
1.3504e-09
-5.39299e-12
1.35447e-09
-4.06247e-12
1.35718e-09
-2.71352e-12
1.35853e-09
-1.34501e-12
1.3585e-09
3.06468e-14
1.35705e-09
1.44778e-12
1.35419e-09
2.85304e-12
1.34993e-09
4.26676e-12
1.34424e-09
5.68696e-12
1.33713e-09
7.11319e-12
1.32858e-09
8.54422e-12
1.31861e-09
9.97844e-12
1.30719e-09
1.14141e-11
1.29434e-09
1.28495e-11
1.28006e-09
1.42826e-11
1.26435e-09
1.57117e-11
1.24722e-09
1.71347e-11
1.22867e-09
1.85494e-11
1.20872e-09
1.99535e-11
1.18737e-09
2.13448e-11
1.16465e-09
2.27213e-11
1.14057e-09
2.4081e-11
1.11515e-09
2.54219e-11
1.08841e-09
2.67419e-11
1.06037e-09
2.80389e-11
1.03106e-09
2.93105e-11
1.0005e-09
3.05544e-11
9.68735e-10
3.17686e-11
9.35784e-10
3.29508e-11
9.01684e-10
3.40992e-11
8.66472e-10
3.52117e-11
8.30185e-10
3.62863e-11
7.92865e-10
3.73209e-11
7.54551e-10
3.83133e-11
7.1529e-10
3.92617e-11
6.75126e-10
4.01643e-11
6.34107e-10
4.10192e-11
5.92282e-10
4.18249e-11
5.49702e-10
4.25798e-11
5.0642e-10
4.32826e-11
4.62488e-10
4.39318e-11
4.17962e-10
4.45262e-11
3.72897e-10
4.50647e-11
3.27352e-10
4.5546e-11
2.81383e-10
4.59691e-11
2.3505e-10
4.63333e-11
1.88412e-10
4.66379e-11
1.4153e-10
4.68823e-11
9.44649e-11
4.70657e-11
4.72776e-11
4.71877e-11
3.10997e-14
4.7247e-11
-4.72152e-11
4.7247e-11
-9.44023e-11
4.71877e-11
-1.41468e-10
4.70658e-11
-1.8835e-10
4.68823e-11
-2.34987e-10
4.6638e-11
-2.81321e-10
4.63335e-11
-3.27289e-10
4.59695e-11
-3.72835e-10
4.55466e-11
-4.179e-10
4.50656e-11
-4.62427e-10
4.45274e-11
-5.0636e-10
4.39334e-11
-5.49644e-10
4.32846e-11
-5.92225e-10
4.25821e-11
-6.34052e-10
4.1827e-11
-6.75074e-10
4.10213e-11
-7.1524e-10
4.01666e-11
-7.54504e-10
3.92642e-11
-7.92821e-10
3.83161e-11
-8.30145e-10
3.73241e-11
-8.66434e-10
3.62899e-11
-9.01649e-10
3.52155e-11
-9.35752e-10
3.41033e-11
-9.68707e-10
3.2955e-11
-1.00048e-09
3.17725e-11
-1.03104e-09
3.05583e-11
-1.06035e-09
2.93147e-11
-1.0884e-09
2.80438e-11
-1.11515e-09
2.67476e-11
-1.14057e-09
2.54279e-11
-1.16466e-09
2.40867e-11
-1.18739e-09
2.27273e-11
-1.20874e-09
2.13513e-11
-1.2287e-09
1.99596e-11
-1.24725e-09
1.85555e-11
-1.2644e-09
1.71422e-11
-1.28012e-09
1.57208e-11
-1.29441e-09
1.42926e-11
-1.30727e-09
1.28602e-11
-1.3187e-09
1.14261e-11
-1.32868e-09
9.99118e-12
-1.33724e-09
8.55697e-12
-1.34436e-09
7.12531e-12
-1.35006e-09
5.69801e-12
-1.35434e-09
4.27684e-12
-1.3572e-09
2.86186e-12
-1.35866e-09
1.45492e-12
-1.35869e-09
3.76095e-14
-1.35735e-09
-1.33839e-12
-1.35464e-09
-2.70641e-12
-1.35059e-09
-4.05442e-12
-1.34521e-09
-5.38362e-12
-1.33851e-09
-6.69355e-12
-1.33053e-09
-7.9837e-12
-1.32128e-09
-9.25367e-12
-1.31077e-09
-1.05024e-11
-1.29904e-09
-1.17292e-11
-1.28611e-09
-1.29336e-11
-1.27199e-09
-1.41149e-11
-1.25672e-09
-1.52722e-11
-1.24031e-09
-1.64045e-11
-1.2228e-09
-1.75113e-11
-1.20421e-09
-1.85916e-11
-1.18457e-09
-1.96445e-11
-1.1639e-09
-2.06697e-11
-1.14223e-09
-2.16668e-11
-1.11959e-09
-2.26361e-11
-1.09601e-09
-2.35776e-11
-1.07152e-09
-2.44912e-11
-1.04615e-09
-2.53768e-11
-1.01991e-09
-2.62339e-11
-9.9285e-10
-2.70627e-11
-9.64986e-10
-2.7863e-11
-9.3635e-10
-2.86338e-11
-9.06975e-10
-2.93744e-11
-8.7689e-10
-3.00851e-11
-8.46125e-10
-3.07664e-11
-8.14709e-10
-3.14178e-11
-7.82666e-10
-3.20412e-11
-7.50029e-10
-3.26373e-11
-7.1682e-10
-3.32057e-11
-6.83075e-10
-3.37466e-11
-6.48815e-10
-3.42595e-11
-6.14076e-10
-3.47425e-11
-5.78881e-10
-3.5194e-11
-5.43265e-10
-3.56161e-11
-5.07255e-10
-3.6009e-11
-4.70879e-10
-3.6375e-11
-4.34167e-10
-3.67148e-11
-3.97137e-10
-3.70281e-11
-3.59824e-10
-3.73137e-11
-3.22252e-10
-3.75711e-11
-2.8445e-10
-3.78001e-11
-2.46451e-10
-3.7999e-11
-2.08284e-10
-3.81665e-11
-1.69981e-10
-3.82998e-11
-1.31598e-10
-3.83838e-11
-9.32486e-11
-3.8347e-11
-5.54863e-11
-3.77702e-11
-2.09778e-11
-3.45167e-11
-2.09859e-11
3.59844e-11
-5.70033e-11
9.12474e-11
-8.81037e-11
1.49686e-10
-9.48913e-11
2.08793e-10
-9.69684e-11
2.68231e-10
-9.7886e-11
3.27786e-10
-9.81481e-11
3.87292e-10
-9.80033e-11
4.46624e-10
-9.76302e-11
5.05694e-10
-9.71214e-11
5.64435e-10
-9.65206e-11
6.2279e-10
-9.58449e-11
6.80711e-10
-9.50993e-11
7.38152e-10
-9.42858e-11
7.9507e-10
-9.3405e-11
8.51421e-10
-9.24565e-11
9.07161e-10
-9.14394e-11
9.62248e-10
-9.0353e-11
1.01664e-09
-8.91964e-11
1.07029e-09
-8.79691e-11
1.12316e-09
-8.66703e-11
1.1752e-09
-8.52997e-11
1.22636e-09
-8.38566e-11
1.27661e-09
-8.23407e-11
1.3259e-09
-8.07516e-11
1.37419e-09
-7.90889e-11
1.42142e-09
-7.73523e-11
1.46756e-09
-7.55419e-11
1.51255e-09
-7.36577e-11
1.55637e-09
-7.16998e-11
1.59895e-09
-6.96683e-11
1.64025e-09
-6.75631e-11
1.68023e-09
-6.53843e-11
1.71885e-09
-6.3132e-11
1.75606e-09
-6.08066e-11
1.79181e-09
-5.84085e-11
1.82606e-09
-5.59385e-11
1.85877e-09
-5.3397e-11
1.88989e-09
-5.07845e-11
1.91938e-09
-4.81016e-11
1.9472e-09
-4.53492e-11
1.9733e-09
-4.25283e-11
1.99765e-09
-3.96401e-11
2.0202e-09
-3.66862e-11
2.04092e-09
-3.36681e-11
2.05976e-09
-3.05876e-11
2.07668e-09
-2.74467e-11
2.09166e-09
-2.42472e-11
2.10466e-09
-2.09914e-11
2.11563e-09
-1.76817e-11
2.12456e-09
-1.43207e-11
2.13141e-09
-1.0911e-11
2.13615e-09
-7.45521e-12
2.13876e-09
-3.95593e-12
2.13921e-09
-4.16846e-13
2.13749e-09
3.16537e-12
2.13357e-09
6.77374e-12
2.12743e-09
1.04076e-11
2.11905e-09
1.40641e-11
2.10843e-09
1.77399e-11
2.09554e-09
2.1431e-11
2.08039e-09
2.51333e-11
2.06296e-09
2.88424e-11
2.04326e-09
3.25535e-11
2.02128e-09
3.62618e-11
1.99703e-09
3.99621e-11
1.97052e-09
4.3649e-11
1.94175e-09
4.73167e-11
1.91075e-09
5.09599e-11
1.87752e-09
5.4573e-11
1.84209e-09
5.81507e-11
1.80448e-09
6.16875e-11
1.76473e-09
6.51779e-11
1.72285e-09
6.8616e-11
1.6789e-09
7.19959e-11
1.6329e-09
7.53117e-11
1.58489e-09
7.85575e-11
1.53493e-09
8.17277e-11
1.48307e-09
8.48169e-11
1.42935e-09
8.78195e-11
1.37383e-09
9.07299e-11
1.31657e-09
9.35425e-11
1.25764e-09
9.62516e-11
1.1971e-09
9.88517e-11
1.13503e-09
1.01338e-10
1.07149e-09
1.03705e-10
1.00656e-09
1.05948e-10
9.4032e-10
1.08064e-10
8.72852e-10
1.10047e-10
8.0424e-10
1.11894e-10
7.34571e-10
1.13602e-10
6.63933e-10
1.15165e-10
5.92416e-10
1.16582e-10
5.20114e-10
1.17848e-10
4.47122e-10
1.18962e-10
3.73534e-10
1.19922e-10
2.99448e-10
1.20724e-10
2.24962e-10
1.21368e-10
1.50176e-10
1.21852e-10
7.51903e-11
1.22174e-10
1.03852e-13
1.22334e-10
-7.49824e-11
1.22334e-10
-1.49969e-10
1.22174e-10
-2.24754e-10
1.21852e-10
-2.9924e-10
1.21368e-10
-3.73326e-10
1.20725e-10
-4.46914e-10
1.19923e-10
-5.19907e-10
1.18964e-10
-5.9221e-10
1.1785e-10
-6.63727e-10
1.16584e-10
-7.34367e-10
1.15168e-10
-8.04037e-10
1.13605e-10
-8.72651e-10
1.11899e-10
-9.4012e-10
1.10052e-10
-1.00636e-09
1.08069e-10
-1.07129e-09
1.05953e-10
-1.13484e-09
1.0371e-10
-1.19692e-09
1.01343e-10
-1.25746e-09
9.88576e-11
-1.31639e-09
9.6258e-11
-1.37365e-09
9.35499e-11
-1.42917e-09
9.0738e-11
-1.4829e-09
8.78278e-11
-1.53477e-09
8.48252e-11
-1.58473e-09
8.17359e-11
-1.63274e-09
7.85658e-11
-1.67874e-09
7.53208e-11
-1.72271e-09
7.20058e-11
-1.76459e-09
6.86268e-11
-1.80435e-09
6.51899e-11
-1.84196e-09
6.16998e-11
-1.8774e-09
5.81627e-11
-1.91063e-09
5.45851e-11
-1.94164e-09
5.09721e-11
-1.97042e-09
4.73293e-11
-1.99694e-09
4.36633e-11
-2.0212e-09
3.99793e-11
-2.04318e-09
3.62815e-11
-2.0629e-09
3.25748e-11
-2.08033e-09
2.8865e-11
-2.0955e-09
2.51567e-11
-2.10839e-09
2.14539e-11
-2.11903e-09
1.77616e-11
-2.12742e-09
1.40845e-11
-2.13357e-09
1.0427e-11
-2.1375e-09
6.79224e-12
-2.13922e-09
3.18228e-12
-2.13878e-09
-4.00942e-13
-2.13618e-09
-3.94051e-12
-2.13144e-09
-7.43973e-12
-2.1246e-09
-1.08945e-11
-2.11568e-09
-1.43018e-11
-2.10472e-09
-1.76594e-11
-2.09174e-09
-2.0965e-11
-2.07677e-09
-2.42168e-11
-2.05986e-09
-2.74128e-11
-2.04104e-09
-3.05512e-11
-2.02034e-09
-3.36306e-11
-1.9978e-09
-3.66484e-11
-1.97347e-09
-3.96025e-11
-1.94739e-09
-4.24913e-11
-1.91958e-09
-4.5313e-11
-1.89011e-09
-4.80659e-11
-1.859e-09
-5.07487e-11
-1.82631e-09
-5.33609e-11
-1.79208e-09
-5.59014e-11
-1.75634e-09
-5.83694e-11
-1.71915e-09
-6.07657e-11
-1.68056e-09
-6.30892e-11
-1.64059e-09
-6.53395e-11
-1.59931e-09
-6.75164e-11
-1.55675e-09
-6.96206e-11
-1.51296e-09
-7.16512e-11
-1.46799e-09
-7.36072e-11
-1.42187e-09
-7.54877e-11
-1.37467e-09
-7.72923e-11
-1.32641e-09
-7.90201e-11
-1.27716e-09
-8.06745e-11
-1.22694e-09
-8.22559e-11
-1.17581e-09
-8.37674e-11
-1.12381e-09
-8.52063e-11
-1.07098e-09
-8.65752e-11
-1.01737e-09
-8.78692e-11
-9.63027e-10
-8.90891e-11
-9.07985e-10
-9.02336e-11
-8.52295e-10
-9.13051e-11
-7.96e-10
-9.23046e-11
-7.39141e-10
-9.32341e-11
-6.81764e-10
-9.4095e-11
-6.23903e-10
-9.48851e-11
-5.65609e-10
-9.56069e-11
-5.0692e-10
-9.62588e-11
-4.4788e-10
-9.68388e-11
-3.88532e-10
-9.73467e-11
-3.28918e-10
-9.77821e-11
-2.69075e-10
-9.81403e-11
-2.09056e-10
-9.84066e-11
-1.48954e-10
-9.84389e-11
-8.9422e-11
-9.72893e-11
-3.41965e-11
-8.97249e-11
-5.51885e-11
3.8631e-11
-9.56335e-11
9.92447e-11
-1.48717e-10
1.63193e-10
-1.58841e-10
2.27221e-10
-1.60998e-10
2.91116e-10
-1.6178e-10
3.54912e-10
-1.61943e-10
4.18593e-10
-1.61684e-10
4.82091e-10
-1.61128e-10
5.45333e-10
-1.60364e-10
6.08251e-10
-1.59439e-10
6.70784e-10
-1.58377e-10
7.32874e-10
-1.5719e-10
7.94471e-10
-1.55882e-10
8.55522e-10
-1.54456e-10
9.15979e-10
-1.52913e-10
9.75794e-10
-1.51254e-10
1.03492e-09
-1.49478e-10
1.09331e-09
-1.47584e-10
1.15091e-09
-1.45572e-10
1.20768e-09
-1.43441e-10
1.26357e-09
-1.4119e-10
1.31853e-09
-1.3882e-10
1.37252e-09
-1.36329e-10
1.42549e-09
-1.33717e-10
1.47738e-09
-1.30983e-10
1.52816e-09
-1.28127e-10
1.57776e-09
-1.25148e-10
1.62615e-09
-1.22048e-10
1.67328e-09
-1.18825e-10
1.71909e-09
-1.15479e-10
1.76354e-09
-1.12012e-10
1.80658e-09
-1.08422e-10
1.84816e-09
-1.0471e-10
1.88823e-09
-1.00877e-10
1.92674e-09
-9.69231e-11
1.96365e-09
-9.28494e-11
1.99891e-09
-8.86566e-11
2.03247e-09
-8.43455e-11
2.06428e-09
-7.99174e-11
2.09431e-09
-7.53735e-11
2.1225e-09
-7.07158e-11
2.1488e-09
-6.59463e-11
2.17318e-09
-6.10673e-11
2.1956e-09
-5.60814e-11
2.216e-09
-5.09911e-11
2.23436e-09
-4.57996e-11
2.25062e-09
-4.05099e-11
2.26475e-09
-3.51259e-11
2.27672e-09
-2.96515e-11
2.28649e-09
-2.4091e-11
2.29403e-09
-1.84489e-11
2.2993e-09
-1.273e-11
2.30229e-09
-6.93949e-12
2.30295e-09
-1.08375e-12
2.30129e-09
4.83392e-12
2.29725e-09
1.08068e-11
2.29083e-09
1.68285e-11
2.282e-09
2.28921e-11
2.27075e-09
2.89907e-11
2.25707e-09
3.51174e-11
2.24094e-09
4.12649e-11
2.22236e-09
4.74257e-11
2.20132e-09
5.35918e-11
2.17783e-09
5.9755e-11
2.15188e-09
6.59065e-11
2.1235e-09
7.20376e-11
2.09267e-09
7.81391e-11
2.05943e-09
8.4202e-11
2.02379e-09
9.02173e-11
1.98576e-09
9.61759e-11
1.94538e-09
1.02068e-10
1.90267e-09
1.07885e-10
1.85767e-09
1.13616e-10
1.81042e-09
1.19252e-10
1.76095e-09
1.24782e-10
1.70931e-09
1.30197e-10
1.65555e-09
1.35488e-10
1.59972e-09
1.40645e-10
1.54188e-09
1.45659e-10
1.48209e-09
1.5052e-10
1.42041e-09
1.55218e-10
1.35692e-09
1.59744e-10
1.29169e-09
1.64089e-10
1.22478e-09
1.68245e-10
1.15628e-09
1.72203e-10
1.08627e-09
1.75956e-10
1.01484e-09
1.79496e-10
9.42074e-10
1.82814e-10
8.68063e-10
1.85906e-10
7.92901e-10
1.88764e-10
7.16686e-10
1.91381e-10
6.39515e-10
1.93753e-10
5.61489e-10
1.95875e-10
4.8271e-10
1.97741e-10
4.03284e-10
1.99348e-10
3.23315e-10
2.00693e-10
2.42911e-10
2.01772e-10
1.62179e-10
2.02583e-10
8.12289e-11
2.03124e-10
1.68267e-13
2.03395e-10
-8.08924e-11
2.03395e-10
-1.61842e-10
2.03125e-10
-2.42574e-10
2.02584e-10
-3.22978e-10
2.01773e-10
-4.02947e-10
2.00694e-10
-4.82374e-10
1.99351e-10
-5.61152e-10
1.97744e-10
-6.39179e-10
1.95878e-10
-7.16352e-10
1.93757e-10
-7.92568e-10
1.91386e-10
-8.6773e-10
1.88769e-10
-9.41743e-10
1.85912e-10
-1.01451e-09
1.82821e-10
-1.08594e-09
1.79502e-10
-1.15595e-09
1.75963e-10
-1.22445e-09
1.72211e-10
-1.29136e-09
1.68254e-10
-1.3566e-09
1.64098e-10
-1.4201e-09
1.59753e-10
-1.48178e-09
1.55227e-10
-1.54157e-09
1.5053e-10
-1.59941e-09
1.4567e-10
-1.65524e-09
1.40656e-10
-1.70901e-09
1.355e-10
-1.76065e-09
1.3021e-10
-1.81012e-09
1.24795e-10
-1.85738e-09
1.19266e-10
-1.90239e-09
1.1363e-10
-1.9451e-09
1.079e-10
-1.98548e-09
1.02085e-10
-2.02351e-09
9.6192e-11
-2.05916e-09
9.02335e-11
-2.09241e-09
8.4219e-11
-2.12324e-09
7.81572e-11
-2.15163e-09
7.20571e-11
-2.17758e-09
6.59281e-11
-2.20108e-09
5.97789e-11
-2.22212e-09
5.36175e-11
-2.2407e-09
4.74526e-11
-2.25684e-09
4.12925e-11
-2.27053e-09
3.51448e-11
-2.28179e-09
2.90177e-11
-2.29062e-09
2.29184e-11
-2.29704e-09
1.68537e-11
-2.30108e-09
1.08314e-11
-2.30276e-09
4.85771e-12
-2.3021e-09
-1.06091e-12
-2.29912e-09
-6.91698e-12
-2.29385e-09
-1.27074e-11
-2.28632e-09
-1.84252e-11
-2.27656e-09
-2.40648e-11
-2.26459e-09
-2.9622e-11
-2.25047e-09
-3.50925e-11
-2.23421e-09
-4.04724e-11
-2.21586e-09
-4.57586e-11
-2.19547e-09
-5.09477e-11
-2.17306e-09
-5.60368e-11
-2.14868e-09
-6.10223e-11
-2.12238e-09
-6.59012e-11
-2.0942e-09
-7.06709e-11
-2.06419e-09
-7.53287e-11
-2.03238e-09
-7.98726e-11
-1.99883e-09
-8.43006e-11
-1.96358e-09
-8.86112e-11
-1.92668e-09
-9.28033e-11
-1.88817e-09
-9.68753e-11
-1.84811e-09
-1.00827e-10
-1.80654e-09
-1.04658e-10
-1.76351e-09
-1.08368e-10
-1.71907e-09
-1.11956e-10
-1.67326e-09
-1.15423e-10
-1.62615e-09
-1.18766e-10
-1.57777e-09
-1.21987e-10
-1.52817e-09
-1.25085e-10
-1.4774e-09
-1.28057e-10
-1.42552e-09
-1.30905e-10
-1.37256e-09
-1.33633e-10
-1.31858e-09
-1.36238e-10
-1.26362e-09
-1.38725e-10
-1.20773e-09
-1.41092e-10
-1.15097e-09
-1.43341e-10
-1.09337e-09
-1.45467e-10
-1.03498e-09
-1.47473e-10
-9.75858e-10
-1.49358e-10
-9.16038e-10
-1.51124e-10
-8.55572e-10
-1.52772e-10
-7.94503e-10
-1.54303e-10
-7.32879e-10
-1.55719e-10
-6.70743e-10
-1.57019e-10
-6.08145e-10
-1.58205e-10
-5.45127e-10
-1.59275e-10
-4.81735e-10
-1.6023e-10
-4.18012e-10
-1.61068e-10
-3.54e-10
-1.61792e-10
-2.89744e-10
-1.62397e-10
-2.25295e-10
-1.62863e-10
-1.60767e-10
-1.62972e-10
-9.68383e-11
-1.61223e-10
-3.73693e-11
-1.49185e-10
-9.2559e-11
3.84148e-11
-1.34048e-10
9.96004e-11
-2.099e-10
1.64866e-10
-2.24107e-10
2.30213e-10
-2.26347e-10
2.95224e-10
-2.26791e-10
3.59981e-10
-2.26699e-10
4.24516e-10
-2.26219e-10
4.88813e-10
-2.25424e-10
5.52827e-10
-2.24377e-10
6.16504e-10
-2.23117e-10
6.79791e-10
-2.21664e-10
7.42634e-10
-2.20032e-10
8.04981e-10
-2.18228e-10
8.66781e-10
-2.16256e-10
9.27985e-10
-2.14117e-10
9.88544e-10
-2.11812e-10
1.04841e-09
-2.09342e-10
1.10753e-09
-2.06707e-10
1.16586e-09
-2.03905e-10
1.22336e-09
-2.00936e-10
1.27997e-09
-1.97799e-10
1.33564e-09
-1.94494e-10
1.39033e-09
-1.9102e-10
1.44399e-09
-1.87376e-10
1.49657e-09
-1.83562e-10
1.54802e-09
-1.79576e-10
1.59829e-09
-1.7542e-10
1.64734e-09
-1.71092e-10
1.69511e-09
-1.66592e-10
1.74155e-09
-1.6192e-10
1.78661e-09
-1.57077e-10
1.83025e-09
-1.52062e-10
1.87242e-09
-1.46877e-10
1.91306e-09
-1.41521e-10
1.95214e-09
-1.35995e-10
1.98959e-09
-1.30301e-10
2.02537e-09
-1.24439e-10
2.05943e-09
-1.18411e-10
2.09173e-09
-1.12218e-10
2.12222e-09
-1.05863e-10
2.15086e-09
-9.93483e-11
2.17759e-09
-9.26762e-11
2.20237e-09
-8.58501e-11
2.22516e-09
-7.88732e-11
2.24592e-09
-7.17493e-11
2.2646e-09
-6.44825e-11
2.28117e-09
-5.70775e-11
2.29558e-09
-4.95394e-11
2.30781e-09
-4.18736e-11
2.3178e-09
-3.40859e-11
2.32553e-09
-2.61826e-11
2.33097e-09
-1.81703e-11
2.33409e-09
-1.00564e-11
2.33485e-09
-1.84939e-12
2.33324e-09
6.44442e-12
2.32923e-09
1.48176e-11
2.3228e-09
2.32615e-11
2.31393e-09
3.17664e-11
2.3026e-09
4.03227e-11
2.28879e-09
4.89202e-11
2.27251e-09
5.75486e-11
2.25374e-09
6.6197e-11
2.23248e-09
7.48542e-11
2.20873e-09
8.35084e-11
2.18249e-09
9.21477e-11
2.15376e-09
1.0076e-10
2.12257e-09
1.09333e-10
2.08892e-09
1.17853e-10
2.05283e-09
1.26308e-10
2.01432e-09
1.34685e-10
1.97342e-09
1.4297e-10
1.93015e-09
1.5115e-10
1.88456e-09
1.59211e-10
1.83667e-09
1.67139e-10
1.78653e-09
1.7492e-10
1.73419e-09
1.8254e-10
1.67969e-09
1.89987e-10
1.62309e-09
1.97246e-10
1.56444e-09
2.04304e-10
1.50381e-09
2.11148e-10
1.44127e-09
2.17763e-10
1.37688e-09
2.24137e-10
1.31071e-09
2.30257e-10
1.24284e-09
2.36112e-10
1.17336e-09
2.41689e-10
1.10234e-09
2.46977e-10
1.02987e-09
2.51965e-10
9.5604e-10
2.56642e-10
8.80947e-10
2.61e-10
8.04683e-10
2.65028e-10
7.27346e-10
2.68718e-10
6.49036e-10
2.72063e-10
5.69857e-10
2.75054e-10
4.89912e-10
2.77686e-10
4.09307e-10
2.79953e-10
3.2815e-10
2.81849e-10
2.4655e-10
2.83371e-10
1.64616e-10
2.84516e-10
8.24605e-11
2.8528e-10
1.93056e-13
2.85662e-10
-8.20744e-11
2.85662e-10
-1.6423e-10
2.85281e-10
-2.46164e-10
2.84517e-10
-3.27764e-10
2.83374e-10
-4.08921e-10
2.81852e-10
-4.89526e-10
2.79957e-10
-5.69471e-10
2.77691e-10
-6.48652e-10
2.75059e-10
-7.26962e-10
2.72068e-10
-8.04299e-10
2.68725e-10
-8.80564e-10
2.65035e-10
-9.55659e-10
2.61007e-10
-1.02949e-09
2.5665e-10
-1.10196e-09
2.51973e-10
-1.17298e-09
2.46986e-10
-1.24247e-09
2.41699e-10
-1.31033e-09
2.36122e-10
-1.37651e-09
2.30268e-10
-1.4409e-09
2.24148e-10
-1.50345e-09
2.17774e-10
-1.56408e-09
2.1116e-10
-1.62273e-09
2.04317e-10
-1.67933e-09
1.9726e-10
-1.73383e-09
1.90002e-10
-1.78618e-09
1.82556e-10
-1.83632e-09
1.74936e-10
-1.88421e-09
1.67156e-10
-1.92981e-09
1.59228e-10
-1.97308e-09
1.51168e-10
-2.01398e-09
1.42989e-10
-2.0525e-09
1.34705e-10
-2.08859e-09
1.26328e-10
-2.12225e-09
1.17874e-10
-2.15344e-09
1.09355e-10
-2.18217e-09
1.00784e-10
-2.20841e-09
9.21722e-11
-2.23217e-09
8.35343e-11
-2.25343e-09
7.48817e-11
-2.27221e-09
6.62259e-11
-2.28849e-09
5.75784e-11
-2.3023e-09
4.89505e-11
-2.31363e-09
4.03532e-11
-2.32251e-09
3.17968e-11
-2.32894e-09
2.32909e-11
-2.33296e-09
1.48463e-11
-2.33457e-09
6.47302e-12
-2.33381e-09
-1.82104e-12
-2.3307e-09
-1.00279e-11
-2.32527e-09
-1.81412e-11
-2.31754e-09
-2.61522e-11
-2.30755e-09
-3.40535e-11
-2.29534e-09
-4.18387e-11
-2.28093e-09
-4.95015e-11
-2.26436e-09
-5.70361e-11
-2.24568e-09
-6.4438e-11
-2.22493e-09
-7.17024e-11
-2.20214e-09
-7.88247e-11
-2.17736e-09
-8.5801e-11
-2.15063e-09
-9.2627e-11
-2.122e-09
-9.92991e-11
-2.09152e-09
-1.05814e-10
-2.05922e-09
-1.12168e-10
-2.02516e-09
-1.18361e-10
-1.98938e-09
-1.24388e-10
-1.95194e-09
-1.30249e-10
-1.91287e-09
-1.35942e-10
-1.87223e-09
-1.41467e-10
-1.83006e-09
-1.46821e-10
-1.78643e-09
-1.52005e-10
-1.74136e-09
-1.57018e-10
-1.69492e-09
-1.6186e-10
-1.64716e-09
-1.6653e-10
-1.59812e-09
-1.71029e-10
-1.54785e-09
-1.75354e-10
-1.4964e-09
-1.79506e-10
-1.44382e-09
-1.83486e-10
-1.39016e-09
-1.87295e-10
-1.33546e-09
-1.90934e-10
-1.27978e-09
-1.94406e-10
-1.22316e-09
-1.97709e-10
-1.16566e-09
-2.00844e-10
-1.10731e-09
-2.03811e-10
-1.04818e-09
-2.0661e-10
-9.88292e-10
-2.09242e-10
-9.27708e-10
-2.11709e-10
-8.66471e-10
-2.14011e-10
-8.04626e-10
-2.16148e-10
-7.4222e-10
-2.18123e-10
-6.793e-10
-2.19937e-10
-6.15912e-10
-2.21592e-10
-5.52102e-10
-2.23087e-10
-4.87914e-10
-2.24419e-10
-4.23391e-10
-2.25591e-10
-3.58576e-10
-2.26604e-10
-2.93517e-10
-2.27454e-10
-2.28259e-10
-2.28115e-10
-1.62938e-10
-2.28298e-10
-9.82357e-11
-2.25934e-10
-3.80407e-11
-2.09379e-10
-1.30595e-10
3.81572e-11
-1.72207e-10
9.91053e-11
-2.70847e-10
1.6462e-10
-2.8962e-10
2.30462e-10
-2.92188e-10
2.95978e-10
-2.92308e-10
3.61173e-10
-2.91893e-10
4.26079e-10
-2.91125e-10
4.90699e-10
-2.90044e-10
5.55005e-10
-2.88682e-10
6.18954e-10
-2.87066e-10
6.82501e-10
-2.85211e-10
7.45598e-10
-2.83128e-10
8.08194e-10
-2.80824e-10
8.70243e-10
-2.78303e-10
9.31693e-10
-2.75567e-10
9.92498e-10
-2.72617e-10
1.05261e-09
-2.69454e-10
1.11198e-09
-2.66076e-10
1.17056e-09
-2.62484e-10
1.2283e-09
-2.58677e-10
1.28516e-09
-2.54654e-10
1.34108e-09
-2.50414e-10
1.39601e-09
-2.45957e-10
1.44992e-09
-2.41281e-10
1.50274e-09
-2.36386e-10
1.55444e-09
-2.31271e-10
1.60495e-09
-2.25935e-10
1.65424e-09
-2.20378e-10
1.70225e-09
-2.146e-10
1.74893e-09
-2.08601e-10
1.79423e-09
-2.0238e-10
1.83811e-09
-1.95939e-10
1.88051e-09
-1.89277e-10
1.92138e-09
-1.82395e-10
1.96068e-09
-1.75295e-10
1.99836e-09
-1.67977e-10
2.03436e-09
-1.60442e-10
2.06864e-09
-1.52693e-10
2.10116e-09
-1.44732e-10
2.13185e-09
-1.36561e-10
2.16069e-09
-1.28184e-10
2.18762e-09
-1.19604e-10
2.21259e-09
-1.10824e-10
2.23557e-09
-1.0185e-10
2.25651e-09
-9.26857e-11
2.27536e-09
-8.33365e-11
2.29209e-09
-7.38086e-11
2.30666e-09
-6.41083e-11
2.31903e-09
-5.42424e-11
2.32916e-09
-4.42181e-11
2.33702e-09
-3.40434e-11
2.34257e-09
-2.37267e-11
2.34579e-09
-1.32776e-11
2.34665e-09
-2.70633e-12
2.34512e-09
7.97834e-12
2.34117e-09
1.87661e-11
2.33478e-09
2.96459e-11
2.32595e-09
4.0606e-11
2.31464e-09
5.16338e-11
2.30084e-09
6.27163e-11
2.28455e-09
7.384e-11
2.26576e-09
8.49906e-11
2.24446e-09
9.61537e-11
2.22065e-09
1.07314e-10
2.19434e-09
1.18458e-10
2.16553e-09
1.29567e-10
2.13424e-09
1.40628e-10
2.10047e-09
1.51622e-10
2.06424e-09
1.62534e-10
2.02558e-09
1.73346e-10
1.98451e-09
1.84041e-10
1.94106e-09
1.94601e-10
1.89526e-09
2.05008e-10
1.84715e-09
2.15245e-10
1.79678e-09
2.25294e-10
1.74418e-09
2.35137e-10
1.68941e-09
2.44756e-10
1.63253e-09
2.54134e-10
1.57358e-09
2.63252e-10
1.51263e-09
2.72094e-10
1.44975e-09
2.80641e-10
1.38501e-09
2.88878e-10
1.31848e-09
2.96789e-10
1.25023e-09
3.04356e-10
1.18036e-09
3.11565e-10
1.10893e-09
3.18401e-10
1.03605e-09
3.2485e-10
9.61792e-10
3.30898e-10
8.8626e-10
3.36533e-10
8.09547e-10
3.41742e-10
7.31752e-10
3.46514e-10
6.52975e-10
3.5084e-10
5.73321e-10
3.54709e-10
4.92895e-10
3.58113e-10
4.11803e-10
3.61045e-10
3.30154e-10
3.63498e-10
2.48058e-10
3.65467e-10
1.65625e-10
3.66947e-10
8.29685e-11
3.67936e-10
1.99537e-13
3.68431e-10
-8.25696e-11
3.68431e-10
-1.65226e-10
3.67937e-10
-2.47659e-10
3.6695e-10
-3.29755e-10
3.6547e-10
-4.11404e-10
3.63502e-10
-4.92496e-10
3.6105e-10
-5.72923e-10
3.58118e-10
-6.52578e-10
3.54715e-10
-7.31355e-10
3.50847e-10
-8.09151e-10
3.46522e-10
-8.85866e-10
3.4175e-10
-9.61399e-10
3.36542e-10
-1.03566e-09
3.30908e-10
-1.10854e-09
3.2486e-10
-1.17997e-09
3.18413e-10
-1.24985e-09
3.11577e-10
-1.31809e-09
3.04368e-10
-1.38463e-09
2.96801e-10
-1.44937e-09
2.88892e-10
-1.51225e-09
2.80655e-10
-1.5732e-09
2.72108e-10
-1.63215e-09
2.63267e-10
-1.68904e-09
2.5415e-10
-1.74381e-09
2.44774e-10
-1.79641e-09
2.35155e-10
-1.84679e-09
2.25313e-10
-1.8949e-09
2.15265e-10
-1.9407e-09
2.05029e-10
-1.98416e-09
1.94622e-10
-2.02523e-09
1.84063e-10
-2.0639e-09
1.73369e-10
-2.10012e-09
1.62558e-10
-2.1339e-09
1.51647e-10
-2.1652e-09
1.40654e-10
-2.19401e-09
1.29594e-10
-2.22032e-09
1.18485e-10
-2.24413e-09
1.07343e-10
-2.26543e-09
9.61836e-11
-2.28423e-09
8.50215e-11
-2.30052e-09
7.38718e-11
-2.31432e-09
6.2749e-11
-2.32563e-09
5.1667e-11
-2.33447e-09
4.06393e-11
-2.34086e-09
2.9679e-11
-2.34481e-09
1.87989e-11
-2.34635e-09
8.01152e-12
-2.3455e-09
-2.67279e-12
-2.34228e-09
-1.32437e-11
-2.33673e-09
-2.36918e-11
-2.32888e-09
-3.40071e-11
-2.31875e-09
-4.41801e-11
-2.30638e-09
-5.42024e-11
-2.29182e-09
-6.40659e-11
-2.27509e-09
-7.37634e-11
-2.25624e-09
-8.32887e-11
-2.23531e-09
-9.26356e-11
-2.21233e-09
-1.01798e-10
-2.18736e-09
-1.10772e-10
-2.16043e-09
-1.19551e-10
-2.1316e-09
-1.28131e-10
-2.10091e-09
-1.36508e-10
-2.0684e-09
-1.44678e-10
-2.03412e-09
-1.52639e-10
-1.99812e-09
-1.60387e-10
-1.96045e-09
-1.67921e-10
-1.92115e-09
-1.75239e-10
-1.88028e-09
-1.82339e-10
-1.83788e-09
-1.89219e-10
-1.794e-09
-1.9588e-10
-1.7487e-09
-2.0232e-10
-1.70202e-09
-2.08539e-10
-1.65402e-09
-2.14538e-10
-1.60473e-09
-2.20314e-10
-1.55422e-09
-2.25869e-10
-1.50252e-09
-2.31202e-10
-1.44969e-09
-2.36314e-10
-1.39578e-09
-2.41205e-10
-1.34084e-09
-2.45879e-10
-1.28491e-09
-2.50335e-10
-1.22804e-09
-2.54575e-10
-1.17029e-09
-2.58598e-10
-1.11169e-09
-2.62406e-10
-1.0523e-09
-2.65999e-10
-9.9217e-10
-2.69377e-10
-9.31336e-10
-2.72543e-10
-8.69848e-10
-2.75498e-10
-8.07755e-10
-2.78241e-10
-7.45098e-10
-2.80778e-10
-6.8193e-10
-2.83107e-10
-6.18292e-10
-2.85229e-10
-5.54231e-10
-2.87147e-10
-4.89792e-10
-2.88858e-10
-4.2502e-10
-2.90363e-10
-3.59954e-10
-2.91666e-10
-2.94651e-10
-2.92762e-10
-2.29148e-10
-2.93611e-10
-1.63586e-10
-2.93857e-10
-9.8656e-11
-2.90869e-10
-3.82564e-11
-2.69781e-10
-1.68851e-10
3.81153e-11
-2.10323e-10
9.89516e-11
-3.31684e-10
1.64548e-10
-3.55216e-10
2.30648e-10
-3.58287e-10
2.96496e-10
-3.58157e-10
3.62025e-10
-3.57422e-10
4.27245e-10
-3.56345e-10
4.92152e-10
-3.54951e-10
5.56723e-10
-3.53253e-10
6.20922e-10
-3.51265e-10
6.84708e-10
-3.48996e-10
7.48036e-10
-3.46456e-10
8.1086e-10
-3.43648e-10
8.73133e-10
-3.40576e-10
9.34807e-10
-3.37241e-10
9.95835e-10
-3.33645e-10
1.05617e-09
-3.29788e-10
1.11576e-09
-3.25669e-10
1.17457e-09
-3.21288e-10
1.23253e-09
-3.16643e-10
1.28961e-09
-3.11735e-10
1.34576e-09
-3.06561e-10
1.40092e-09
-3.01121e-10
1.45506e-09
-2.95414e-10
1.50811e-09
-2.89439e-10
1.56003e-09
-2.83194e-10
1.61078e-09
-2.76679e-10
1.66029e-09
-2.69894e-10
1.70853e-09
-2.62837e-10
1.75544e-09
-2.5551e-10
1.80097e-09
-2.47912e-10
1.84508e-09
-2.40043e-10
1.8877e-09
-2.31904e-10
1.9288e-09
-2.23496e-10
1.96833e-09
-2.14819e-10
2.00622e-09
-2.05875e-10
2.04245e-09
-1.96665e-10
2.07695e-09
-1.87193e-10
2.10968e-09
-1.77461e-10
2.14059e-09
-1.67471e-10
2.16963e-09
-1.57228e-10
2.19676e-09
-1.46735e-10
2.22194e-09
-1.35998e-10
2.24511e-09
-1.25021e-10
2.26624e-09
-1.13811e-10
2.28527e-09
-1.02373e-10
2.30218e-09
-9.07161e-11
2.31692e-09
-7.88464e-11
2.32944e-09
-6.67724e-11
2.33973e-09
-5.45029e-11
2.34773e-09
-4.20476e-11
2.35342e-09
-2.94171e-11
2.35677e-09
-1.66226e-11
2.35774e-09
-3.6765e-12
2.35631e-09
9.41027e-12
2.35245e-09
2.26246e-11
2.34614e-09
3.59531e-11
2.33737e-09
4.93814e-11
2.32611e-09
6.28941e-11
2.31235e-09
7.64753e-11
2.29608e-09
9.01082e-11
2.2773e-09
1.03776e-10
2.25599e-09
1.1746e-10
2.23216e-09
1.31143e-10
2.20581e-09
1.44807e-10
2.17694e-09
1.58431e-10
2.14557e-09
1.71996e-10
2.11171e-09
1.85482e-10
2.07538e-09
1.98868e-10
2.0366e-09
2.12132e-10
1.99538e-09
2.25255e-10
1.95177e-09
2.38213e-10
1.90579e-09
2.50985e-10
1.85749e-09
2.6355e-10
1.8069e-09
2.75885e-10
1.75407e-09
2.87968e-10
1.69905e-09
2.99777e-10
1.64189e-09
3.1129e-10
1.58266e-09
3.22486e-10
1.52141e-09
3.33343e-10
1.45821e-09
3.4384e-10
1.39313e-09
3.53957e-10
1.32624e-09
3.63673e-10
1.25763e-09
3.72969e-10
1.18737e-09
3.81825e-10
1.11554e-09
3.90224e-10
1.04225e-09
3.98147e-10
9.67567e-10
4.05578e-10
8.91598e-10
4.12502e-10
8.14437e-10
4.18903e-10
7.36183e-10
4.24769e-10
6.56939e-10
4.30085e-10
5.76809e-10
4.3484e-10
4.95899e-10
4.39024e-10
4.14316e-10
4.42627e-10
3.32171e-10
4.45643e-10
2.49575e-10
4.48063e-10
1.66639e-10
4.49882e-10
8.3477e-11
4.51098e-10
2.01222e-13
4.51706e-10
-8.30747e-11
4.51707e-10
-1.66237e-10
4.511e-10
-2.49173e-10
4.49885e-10
-3.31769e-10
4.48067e-10
-4.13914e-10
4.45647e-10
-4.95497e-10
4.42633e-10
-5.76408e-10
4.3903e-10
-6.56539e-10
4.34846e-10
-7.35784e-10
4.30092e-10
-8.14038e-10
4.24777e-10
-8.91201e-10
4.18913e-10
-9.67171e-10
4.12513e-10
-1.04185e-09
4.0559e-10
-1.11515e-09
3.98159e-10
-1.18697e-09
3.90237e-10
-1.25724e-09
3.81839e-10
-1.32585e-09
3.72983e-10
-1.39274e-09
3.63688e-10
-1.45782e-09
3.53973e-10
-1.52102e-09
3.43857e-10
-1.58228e-09
3.3336e-10
-1.64151e-09
3.22504e-10
-1.69867e-09
3.11309e-10
-1.7537e-09
2.99796e-10
-1.80653e-09
2.87988e-10
-1.85712e-09
2.75905e-10
-1.90543e-09
2.63572e-10
-1.95141e-09
2.51009e-10
-1.99502e-09
2.38237e-10
-2.03624e-09
2.2528e-10
-2.07503e-09
2.12159e-10
-2.11137e-09
1.98895e-10
-2.14523e-09
1.8551e-10
-2.1766e-09
1.72025e-10
-2.20547e-09
1.58461e-10
-2.23182e-09
1.44838e-10
-2.25565e-09
1.31175e-10
-2.27696e-09
1.17493e-10
-2.29575e-09
1.03809e-10
-2.31202e-09
9.01422e-11
-2.32578e-09
7.65101e-11
-2.33705e-09
6.29297e-11
-2.34582e-09
4.94177e-11
-2.35213e-09
3.59903e-11
-2.356e-09
2.26623e-11
-2.35743e-09
9.44837e-12
-2.35647e-09
-3.63802e-12
-2.35313e-09
-1.6584e-11
-2.34744e-09
-2.93773e-11
-2.33944e-09
-4.20063e-11
-2.32916e-09
-5.44597e-11
-2.31664e-09
-6.6727e-11
-2.3019e-09
-7.87988e-11
-2.285e-09
-9.06666e-11
-2.26596e-09
-1.02322e-10
-2.24484e-09
-1.13758e-10
-2.22167e-09
-1.24967e-10
-2.1965e-09
-1.35943e-10
-2.16937e-09
-1.4668e-10
-2.14033e-09
-1.57172e-10
-2.10942e-09
-1.67415e-10
-2.0767e-09
-1.77404e-10
-2.0422e-09
-1.87136e-10
-2.00598e-09
-1.96609e-10
-1.96809e-09
-2.05817e-10
-1.92856e-09
-2.14761e-10
-1.88747e-09
-2.23437e-10
-1.84484e-09
-2.31845e-10
-1.80074e-09
-2.39984e-10
-1.75521e-09
-2.47852e-10
-1.7083e-09
-2.55449e-10
-1.66006e-09
-2.62776e-10
-1.61055e-09
-2.6983e-10
-1.5598e-09
-2.76614e-10
-1.50788e-09
-2.83127e-10