/*--------------------------------*- C++ -*----------------------------------*\
| =========                 |                                                 |
| \\      /  F ield         | OpenFOAM: The Open Source CFD Toolbox           |
|  \\    /   O peration     | Version:  2412                                  |
|   \\  /    A nd           | Website:  www.openfoam.com                      |
|    \\/     M anipulation  |                                                 |
\*---------------------------------------------------------------------------*/
FoamFile
{
    version     2.0;
    format      ascii;
    arch        "LSB;label=32;scalar=64";
    class       surfaceScalarField;
    location    "1.15";
    object      alphaPhi0.water;
}
// * * * * * * * * * * * * * * * * * * * * * * * * * * * * * * * * * * * * * //

dimensions      [0 3 -1 0 0 0 0];

oriented        oriented;

internalField   nonuniform List<scalar> 
79600
(
1.87428e-200
-7.25887e-197
5.84865e-191
-9.40952e-188
6.28727e-190
-6.24791e-187
1.07758e-189
-7.60647e-187
1.39472e-189
-7.59075e-187
1.61861e-189
-7.16373e-187
1.75115e-189
-6.53505e-187
1.79855e-189
-5.80742e-187
1.77011e-189
-5.04163e-187
1.67858e-189
-4.28047e-187
1.53808e-189
-3.55359e-187
1.36368e-189
-2.88241e-187
1.17071e-189
-2.2823e-187
9.73302e-190
-1.76211e-187
7.83424e-190
-1.32502e-187
6.10189e-190
-9.69121e-188
4.5953e-190
-6.88497e-188
3.34354e-190
-4.7451e-188
2.34855e-190
-3.16881e-188
1.59099e-190
-2.04779e-188
1.03842e-190
-1.27897e-188
6.52305e-191
-7.70994e-189
3.93822e-191
-4.47898e-189
2.28027e-191
-2.50164e-189
1.26175e-191
-1.33831e-189
6.63553e-192
-6.81848e-190
3.29409e-192
-3.28525e-190
1.52978e-192
-1.48311e-190
6.58791e-193
-6.21785e-191
2.61346e-193
-2.40467e-191
9.52017e-194
-8.55147e-192
3.18718e-194
-2.79902e-192
9.85678e-195
-8.47808e-193
2.82855e-195
-2.38735e-193
7.48156e-196
-6.20569e-194
1.7806e-196
-1.45214e-194
3.71033e-197
-2.97409e-195
6.67802e-198
-5.25913e-196
1.0429e-198
-8.07096e-197
1.42826e-199
-1.08701e-197
1.70432e-200
-1.27511e-198
1.73713e-201
-1.27457e-199
1.49205e-202
-1.06992e-200
1.07661e-203
-7.51588e-202
6.52689e-205
-4.41426e-203
3.32577e-206
-2.16487e-204
1.42578e-207
-8.85568e-206
5.15218e-209
-3.01886e-207
1.57268e-210
-8.56008e-209
4.05997e-212
-2.00771e-210
8.84959e-214
-3.83688e-212
1.61567e-215
-5.73879e-214
2.41501e-217
-5.89071e-216
2.77251e-219
-1.36397e-218
2.9735e-221
2.58486e-224
3.14578e-223
6.00564e-226
3.28096e-225
9.71735e-228
3.37144e-227
1.35879e-229
3.411e-229
1.74586e-231
3.39538e-231
2.11494e-233
3.32281e-233
2.4472e-235
3.19436e-235
2.72455e-237
3.01408e-237
2.93126e-239
2.78887e-239
3.05555e-241
2.52811e-241
3.09088e-243
2.24297e-243
3.03673e-245
1.94562e-245
2.89879e-247
1.64821e-247
2.68852e-249
1.362e-249
2.42197e-251
1.0965e-251
2.11817e-253
8.58874e-254
1.79714e-255
6.53623e-256
1.47792e-257
4.82555e-258
1.17683e-259
3.45055e-260
9.06249e-262
2.38561e-262
6.74003e-264
1.59176e-264
4.83392e-266
1.02294e-266
3.33763e-268
6.31804e-269
2.21452e-270
3.74158e-271
1.40912e-272
2.11914e-273
8.57988e-275
1.14468e-275
4.98672e-277
5.87892e-278
2.75915e-279
2.86104e-280
1.44898e-281
1.3144e-282
7.19835e-284
5.67635e-285
3.37034e-286
2.29339e-287
1.48106e-288
8.6217e-290
6.07971e-291
2.99704e-292
2.31878e-293
9.56326e-295
8.16579e-296
2.77704e-297
2.63598e-298
7.26287e-300
7.73309e-301
1.68902e-302
2.04045e-303
3.43693e-305
4.78103e-306
5.99242e-308
9.78935e-309
8.70024e-311
1.71521e-311
1.0094e-313
2.49934e-314
8.76986e-317
2.90658e-317
5.06961e-320
2.52813e-320
1.4822e-323
1.4822e-323
0
0
-1.97626e-323
0
-7.35466e-320
1.97626e-323
-1.25922e-316
3.663e-320
-1.43533e-313
4.16986e-317
-1.22568e-310
3.55164e-314
-8.3665e-308
2.41507e-311
-4.75698e-305
1.36615e-308
-2.31805e-302
6.61467e-306
-9.88603e-300
2.79937e-303
-3.74988e-297
1.05229e-300
-1.28131e-294
3.5585e-298
-3.98511e-292
1.09383e-295
-1.13796e-289
3.08264e-293
-3.0053e-287
8.0231e-291
-7.38646e-285
1.94049e-288
-1.69878e-282
4.38502e-286
-3.67337e-280
9.30206e-284
-7.49984e-278
1.86015e-281
-1.45124e-275
3.51953e-279
-2.67057e-273
6.32167e-277
-4.68786e-271
1.08118e-274
-7.87167e-269
1.76542e-272
-1.26762e-266
2.75895e-270
-1.96227e-264
4.13579e-268
-2.92628e-262
5.95895e-266
-4.21236e-260
8.26747e-264
-5.86401e-258
1.10635e-261
-7.90809e-256
1.43014e-259
-1.0348e-253
1.7882e-257
-1.31582e-251
2.16538e-255
-1.62819e-249
2.54207e-253
-1.96316e-247
2.89563e-251
-2.30934e-245
3.20268e-249
-2.65341e-243
3.44141e-247
-2.98115e-241
3.59357e-245
-3.2785e-239
3.64632e-243
-3.53269e-237
3.59394e-241
-3.73316e-235
3.43805e-239
-3.8723e-233
3.18699e-237
-3.94592e-231
2.85514e-235
-3.95329e-229
2.46129e-233
-3.89699e-227
2.02674e-231
-3.78243e-225
1.57374e-229
-3.61723e-223
1.12306e-227
-3.41049e-221
6.92806e-226
-3.17207e-219
2.98262e-224
-2.75983e-217
-1.52121e-218
-1.84067e-215
-6.72914e-216
-1.0037e-213
-6.54513e-214
-4.57834e-212
-4.3586e-212
-1.76108e-210
-2.26807e-210
-5.72288e-209
-9.60174e-209
-1.56962e-207
-3.35825e-207
-3.62661e-206
-9.7612e-206
-7.04825e-205
-2.36291e-204
-1.15151e-203
-4.76983e-203
-1.58132e-202
-8.04151e-202
-1.82531e-201
-1.1341e-200
-1.77688e-200
-1.33923e-199
-1.47931e-199
-1.32913e-198
-1.07427e-198
-1.12552e-197
-6.84384e-198
-8.31099e-197
-3.78359e-197
-5.38791e-196
-1.80783e-196
-3.03167e-195
-7.56982e-196
-1.4737e-194
-2.85425e-195
-6.27584e-194
-9.92617e-195
-2.40778e-193
-3.20386e-194
-8.53326e-193
-9.55424e-194
-2.81213e-192
-2.61896e-193
-8.57708e-192
-6.59341e-193
-2.4082e-191
-1.5294e-192
-6.21874e-191
-3.29021e-192
-1.48164e-190
-6.62215e-192
-3.27876e-190
-1.25818e-191
-6.79902e-190
-2.27228e-191
-1.33332e-189
-3.92262e-191
-2.49039e-189
-6.49571e-191
-4.45631e-189
-1.03405e-190
-7.66805e-189
-1.58454e-190
-1.27181e-188
-2.33959e-190
-2.0363e-188
-3.33157e-190
-3.15126e-188
-4.57982e-190
-4.71888e-188
-6.08236e-190
-6.84668e-188
-7.81111e-190
-9.63615e-188
-9.70884e-190
-1.31736e-187
-1.16865e-189
-1.75201e-187
-1.36273e-189
-2.2696e-187
-1.53934e-189
-2.86743e-187
-1.68352e-189
-3.53725e-187
-1.78071e-189
-4.26472e-187
-1.81813e-189
-5.03031e-187
-1.78618e-189
-5.80951e-187
-1.67949e-189
-6.57483e-187
-1.49545e-189
-7.29693e-187
-1.21947e-189
-7.93324e-187
-7.4878e-190
-8.30705e-187
-6.47462e-191
-7.10068e-187
-1.2662e-200
-9.92937e-188
-4.98437e-197
1.1857e-196
-2.76465e-193
2.61137e-187
-2.48993e-184
2.53096e-186
-1.53141e-183
4.08822e-186
-1.79459e-183
5.12578e-186
-1.75942e-183
5.86998e-186
-1.65324e-183
6.33242e-186
-1.51231e-183
6.51625e-186
-1.35147e-183
6.44213e-186
-1.18146e-183
6.14506e-186
-1.01076e-183
5.66964e-186
-8.45984e-184
5.06633e-186
-6.92254e-184
4.38759e-186
-5.53335e-184
3.68297e-186
-4.31586e-184
2.99582e-186
-3.28105e-184
2.36028e-186
-2.42825e-184
1.79981e-186
-1.7472e-184
1.32737e-186
-1.22078e-184
9.46099e-187
-8.27355e-185
6.51129e-187
-5.43211e-185
4.32291e-187
-3.45099e-185
2.76588e-187
-2.11879e-185
1.70323e-187
-1.25531e-185
1.00736e-187
-7.1604e-186
5.70215e-188
-3.91756e-186
3.07213e-188
-2.04402e-186
1.56468e-188
-1.00993e-186
7.46553e-189
-4.68152e-187
3.30803e-189
-2.01807e-187
1.35248e-189
-8.03683e-188
5.08688e-190
-2.94815e-188
1.76215e-190
-9.97434e-189
5.65397e-191
-3.13092e-189
1.68847e-191
-9.16399e-190
4.66137e-192
-2.48259e-190
1.16047e-192
-6.06329e-191
2.53389e-193
-1.29709e-191
4.78893e-194
-2.39858e-192
7.87818e-195
-3.85957e-193
1.1414e-195
-5.4722e-194
1.44638e-196
-6.77525e-195
1.56964e-197
-7.1492e-196
1.43915e-198
-6.3332e-197
1.11232e-199
-4.69719e-198
7.2529e-201
-2.91424e-199
3.9938e-202
-1.50967e-200
1.86096e-203
-6.51985e-202
7.36475e-205
-2.34532e-203
2.48806e-206
-7.0174e-205
7.21802e-208
-1.73876e-206
1.80917e-209
-3.52273e-208
3.93991e-211
-5.63584e-210
7.48772e-213
-6.36251e-212
1.24446e-214
-2.32115e-214
1.97314e-216
2.50685e-219
3.07614e-218
9.20998e-221
4.71368e-220
2.23526e-222
7.09641e-222
4.62604e-224
1.04913e-223
8.738e-226
1.52231e-225
1.54915e-227
2.16671e-227
2.61436e-229
3.02298e-229
4.23308e-231
4.13145e-231
6.60721e-233
5.52672e-233
9.97033e-235
7.23051e-235
1.45714e-236
9.24316e-237
2.06459e-238
1.15346e-238
2.83741e-240
1.40369e-240
3.78281e-242
1.66397e-242
4.89135e-244
1.91917e-244
6.13165e-246
2.1509e-246
7.44706e-248
2.33927e-248
8.75575e-250
2.46523e-250
9.95572e-252
2.51347e-252
1.09351e-253
2.47513e-254
1.15871e-255
2.34985e-256
1.18275e-257
2.14659e-258
1.16111e-259
1.88279e-260
1.09429e-261
1.58196e-262
9.88128e-264
1.27008e-264
8.53021e-266
9.71656e-267
7.023e-268
7.06184e-269
5.49972e-270
4.85944e-271
4.08439e-272
3.15419e-273
2.86715e-274
1.92309e-275
1.89544e-276
1.09612e-277
1.17519e-278
5.80907e-280
6.80138e-281
2.84473e-282
3.65466e-283
1.27789e-284
1.81201e-285
5.22069e-287
8.22983e-288
1.9197e-289
3.39473e-290
6.27301e-292
1.25866e-292
1.79254e-294
4.14168e-295
4.38643e-297
1.19022e-297
8.93348e-300
2.92531e-300
1.45318e-302
5.97625e-303
1.76944e-305
9.73925e-306
1.43308e-308
1.18655e-308
5.78876e-312
9.60333e-312
8.65391e-319
3.87157e-315
-7.77973e-312
5.23063e-315
-1.91738e-308
1.29157e-311
-2.35611e-305
1.5881e-308
-1.92566e-302
1.29713e-305
-1.17808e-299
7.9206e-303
-5.75673e-297
3.85819e-300
-2.34132e-294
1.56222e-297
-8.15491e-292
5.41018e-295
-2.484e-289
1.63641e-292
-6.72431e-287
4.39298e-290
-1.63849e-284
1.06009e-287
-3.63117e-282
2.3235e-285
-7.38244e-280
4.66537e-283
-1.38697e-277
8.64415e-281
-2.42304e-275
1.48714e-278
-3.95761e-273
2.38839e-276
-6.07224e-271
3.59771e-274
-8.7889e-269
5.10411e-272
-1.20453e-266
6.84524e-270
-1.56842e-264
8.70686e-268
-1.94622e-262
1.05349e-265
-2.30783e-260
1.21577e-263
-2.62177e-258
1.34146e-261
-2.86002e-256
1.41828e-259
-3.00228e-254
1.43969e-257
-3.03874e-252
1.40565e-255
-2.97087e-250
1.32218e-253
-2.81031e-248
1.19993e-251
-2.57622e-246
1.05204e-249
-2.29195e-244
8.92108e-248
-1.98156e-242
7.32402e-246
-1.66701e-240
5.82614e-244
-1.36619e-238
4.49349e-242
-1.09195e-236
3.36163e-240
-8.52035e-235
2.43985e-238
-6.49664e-233
1.71778e-236
-4.84487e-231
1.17259e-234
-3.53667e-229
7.75283e-233
-2.52903e-227
4.95608e-231
-1.77284e-225
3.05431e-229
-1.21903e-223
1.80607e-227
-8.22718e-222
1.01664e-225
-5.45265e-220
5.37161e-224
-3.55053e-218
2.59083e-222
-2.27244e-216
1.066e-220
-1.43009e-214
2.90363e-219
-8.58752e-213
-2.64507e-214
-4.50417e-211
-7.3282e-212
-2.05908e-209
-6.47749e-210
-8.16828e-208
-4.03113e-208
-2.79601e-206
-1.97789e-206
-8.20885e-205
-7.92341e-205
-2.05533e-203
-2.62493e-203
-4.36775e-202
-7.22556e-202
-7.85226e-201
-1.65553e-200
-1.19231e-199
-3.16159e-199
-1.5281e-198
-5.04256e-198
-1.65187e-197
-6.73181e-197
-1.50983e-196
-7.52918e-196
-1.1834e-195
-7.07536e-195
-8.12236e-195
-5.67473e-194
-4.91182e-194
-3.97972e-193
-2.58585e-193
-2.46035e-192
-1.17907e-192
-1.32371e-191
-4.71985e-192
-6.16008e-191
-1.70512e-191
-2.51346e-190
-5.69826e-191
-9.25296e-190
-1.77277e-190
-3.15495e-189
-5.10897e-190
-1.00328e-188
-1.35628e-189
-2.96043e-188
-3.31297e-189
-8.0578e-188
-7.46856e-189
-2.02062e-187
-1.56394e-188
-4.68222e-187
-3.06845e-188
-1.00917e-186
-5.69169e-188
-2.04095e-186
-1.00498e-187
-3.90905e-186
-1.69857e-187
-7.14065e-186
-2.75776e-187
-1.25134e-185
-4.3101e-187
-2.11152e-185
-6.49258e-187
-3.43889e-185
-9.43558e-187
-5.41316e-185
-1.32413e-186
-8.2456e-185
-1.79595e-186
-1.21684e-184
-2.35603e-186
-1.74189e-184
-2.99182e-186
-2.42144e-184
-3.68052e-186
-3.27292e-184
-4.38872e-186
-4.30738e-184
-5.07395e-186
-5.52648e-184
-5.68771e-186
-6.92089e-184
-6.17863e-186
-8.46958e-184
-6.4976e-186
-1.01385e-183
-6.60252e-186
-1.18829e-183
-6.46257e-186
-1.36486e-183
-6.06165e-186
-1.53752e-183
-5.39296e-186
-1.70004e-183
-4.40651e-186
-1.84354e-183
-2.73296e-186
-1.92957e-183
-2.50006e-187
-1.6601e-183
-7.62221e-197
-2.44325e-184
-1.92606e-193
1.79039e-193
-3.90338e-190
2.80352e-184
-2.40892e-181
2.63119e-183
-1.42769e-180
4.16741e-183
-1.64321e-180
5.15408e-183
-1.59372e-180
5.86721e-183
-1.49237e-180
6.3251e-183
-1.36684e-180
6.52468e-183
-1.22619e-180
6.4788e-183
-1.07777e-180
6.21541e-183
-9.28051e-181
5.77346e-183
-7.82504e-181
5.1991e-183
-6.45586e-181
4.54162e-183
-5.20714e-181
3.84878e-183
-4.10172e-181
3.16357e-183
-3.15194e-181
2.52098e-183
-2.36003e-181
1.94626e-183
-1.71964e-181
1.4547e-183
-1.21796e-181
1.05196e-183
-8.37636e-182
7.35359e-184
-5.58703e-182
4.9648e-184
-3.61007e-182
3.23448e-184
-2.25716e-182
2.03085e-184
-1.36366e-182
1.22638e-184
-7.94265e-183
7.09775e-185
-4.44341e-183
3.91521e-185
-2.37381e-183
2.04436e-185
-1.20253e-183
1.00133e-185
-5.72293e-184
4.56104e-186
-2.53634e-184
1.91976e-186
-1.04009e-184
7.44626e-187
-3.93564e-185
2.66552e-187
-1.37632e-185
8.86066e-188
-4.47704e-186
2.7496e-188
-1.36197e-186
7.90853e-189
-3.84471e-187
2.05423e-189
-9.79775e-188
4.6834e-190
-2.18851e-188
9.25254e-191
-4.23053e-189
1.59527e-191
-7.13559e-190
2.43194e-192
-1.06487e-190
3.2509e-193
-1.39104e-191
3.72188e-194
-1.54805e-192
3.59856e-195
-1.44523e-193
2.93404e-196
-1.1299e-194
2.01889e-197
-7.38977e-196
1.1728e-198
-4.03152e-197
5.7604e-200
-1.83021e-198
2.4006e-201
-6.90446e-200
8.53374e-203
-2.16113e-201
2.60472e-204
-5.58861e-203
6.87591e-206
-1.17969e-204
1.58155e-207
-1.96662e-206
3.19303e-209
-2.33016e-208
5.69767e-211
-9.96897e-211
9.68239e-213
1.77621e-215
1.61554e-214
7.24897e-217
2.64599e-216
1.89961e-218
4.25258e-218
4.21721e-220
6.70412e-220
8.51827e-222
1.03623e-221
1.6117e-223
1.56954e-223
2.89836e-225
2.32828e-225
4.99462e-227
3.38036e-227
8.28823e-229
4.80007e-229
1.32845e-230
6.66116e-231
2.06043e-232
9.02614e-233
3.09584e-234
1.19318e-234
4.50867e-236
1.5372e-236
6.36559e-238
1.92803e-238
8.71139e-240
2.35155e-240
1.15511e-241
2.78558e-242
1.48315e-243
3.2005e-244
1.8426e-245
3.56157e-246
2.21278e-247
3.83279e-248
2.56578e-249
3.98214e-250
2.86893e-251
3.9872e-252
3.08895e-253
3.83993e-254
3.1974e-255
3.5495e-256
3.17619e-257
3.14199e-258
3.0219e-259
2.65672e-260
2.74775e-261
2.13993e-262
2.38205e-263
1.637e-264
1.96358e-265
1.18532e-266
1.53458e-267
8.09358e-269
1.13331e-269
5.18969e-271
7.88009e-272
3.11015e-273
5.13734e-274
1.73265e-275
3.1256e-276
8.91711e-278
1.76517e-278
4.20885e-280
9.19616e-281
1.8063e-282
4.3878e-283
6.9759e-285
1.901e-285
2.39366e-287
7.40155e-288
7.18122e-290
2.55707e-290
1.84463e-292
7.71381e-293
3.94293e-295
1.98981e-295
6.73069e-298
4.26581e-298
8.59944e-301
7.29406e-301
7.30787e-304
9.32306e-304
3.09821e-307
7.9161e-307
1.6321e-313
3.34902e-310
-4.11277e-307
4.46631e-310
-9.68066e-304
1.05345e-306
-1.13541e-300
1.23654e-303
-8.85417e-298
9.63842e-301
-5.16707e-295
5.61507e-298
-2.4079e-292
2.60886e-295
-9.33728e-290
1.00735e-292
-3.10009e-287
3.32599e-290
-8.99921e-285
9.58898e-288
-2.32111e-282
2.45308e-285
-5.38746e-280
5.63985e-283
-1.13704e-277
1.17742e-280
-2.20094e-275
2.25131e-278
-3.9359e-273
3.97122e-276
-6.54322e-271
6.50265e-274
-1.01672e-268
9.93725e-272
-1.48364e-266
1.42393e-269
-2.04173e-264
1.92114e-267
-2.6597e-262
2.44948e-265
-3.29072e-260
2.96114e-263
-3.87872e-258
3.40404e-261
-4.36736e-256
3.73111e-259
-4.70947e-254
3.90869e-257
-4.87466e-252
3.92212e-255
-4.85347e-250
3.77714e-253
-4.65737e-248
3.49728e-251
-4.31508e-246
3.11833e-249
-3.86652e-244
2.68144e-247
-3.35586e-242
2.22649e-245
-2.82528e-240
1.78718e-243
-2.31031e-238
1.38813e-241
-1.83724e-236
1.04412e-239
-1.42248e-234
7.61008e-238
-1.07344e-232
5.37669e-236
-7.90286e-231
3.68295e-234
-5.68151e-229
2.44544e-232
-3.99192e-227
1.57309e-230
-2.7433e-225
9.79283e-229
-1.8452e-223
5.88855e-227
-1.21555e-221
3.40985e-225
-7.84706e-220
1.8922e-223
-4.96677e-218
9.98058e-222
-3.08367e-216
4.93143e-220
-1.8787e-214
2.21728e-218
-1.12353e-212
8.44934e-217
-6.59723e-211
2.07188e-215
-3.68919e-209
-1.15128e-210
-1.82113e-207
-2.70888e-208
-7.88009e-206
-2.2803e-206
-2.9669e-204
-1.36124e-204
-9.64762e-203
-6.40647e-203
-2.69018e-201
-2.45731e-201
-6.39197e-200
-7.77595e-200
-1.28772e-198
-2.03929e-198
-2.19286e-197
-4.44112e-197
-3.15334e-196
-8.0467e-196
-3.82909e-195
-1.2166e-194
-3.92346e-194
-1.53992e-193
-3.39782e-193
-1.63349e-192
-2.52391e-192
-1.45482e-191
-1.64611e-191
-1.10559e-190
-9.4973e-191
-7.36542e-190
-4.78269e-190
-4.34371e-189
-2.08844e-189
-2.23539e-188
-8.01232e-189
-9.96224e-188
-2.77823e-188
-3.89551e-187
-8.935e-188
-1.37622e-186
-2.68309e-187
-4.51488e-186
-7.48265e-187
-1.38548e-185
-1.92615e-186
-3.95515e-185
-4.57012e-186
-1.04362e-184
-1.00223e-185
-2.54153e-184
-2.04444e-185
-5.7283e-184
-3.91272e-185
-1.20262e-183
-7.08924e-185
-2.37235e-183
-1.22434e-184
-4.43814e-183
-2.02683e-184
-7.92944e-183
-3.2275e-184
-1.36095e-182
-4.95381e-184
-2.25226e-182
-7.33768e-184
-3.60201e-182
-1.04983e-183
-5.57475e-182
-1.4521e-183
-8.35903e-182
-1.9434e-183
-1.21571e-181
-2.51831e-183
-1.71699e-181
-3.16191e-183
-2.35734e-181
-3.84949e-183
-3.15002e-181
-4.54663e-183
-4.10215e-181
-5.21106e-183
-5.21252e-181
-5.79568e-183
-6.47044e-181
-6.25193e-183
-7.8553e-181
-6.53424e-183
-9.33618e-181
-6.60441e-183
-1.08734e-180
-6.43537e-183
-1.24202e-180
-6.01416e-183
-1.39254e-180
-5.33627e-183
-1.53369e-180
-4.35518e-183
-1.65804e-180
-2.71313e-183
-1.73244e-180
-2.59887e-184
-1.49562e-180
-1.25075e-193
-2.29917e-181
-2.8665e-190
1.50923e-190
-3.24929e-187
1.61448e-181
-1.33567e-178
1.48807e-180
-7.70881e-178
2.34699e-180
-8.80611e-178
2.89078e-180
-8.4967e-178
3.28671e-180
-7.94464e-178
3.54779e-180
-7.28668e-178
3.6717e-180
-6.55973e-178
3.6631e-180
-5.7944e-178
3.53481e-180
-5.01994e-178
3.30603e-180
-4.26268e-178
3.0004e-180
-3.54504e-178
2.64386e-180
-2.88488e-178
2.26215e-180
-2.29481e-178
1.87908e-180
-1.78242e-178
1.51465e-180
-1.35024e-178
1.18398e-180
-9.96351e-179
8.96933e-181
-7.15372e-179
6.58104e-181
-4.99277e-179
4.67299e-181
-3.38328e-179
3.20855e-181
-2.22358e-179
2.12848e-181
-1.41585e-179
1.36262e-181
-8.72251e-180
8.40137e-182
-5.18768e-180
4.9713e-182
-2.96751e-180
2.80747e-182
-1.62324e-180
1.50286e-182
-8.43135e-181
7.55643e-183
-4.11994e-181
3.53828e-183
-1.87764e-181
1.53335e-183
-7.93114e-182
6.13423e-184
-3.09698e-182
2.26945e-184
-1.11995e-182
7.81683e-185
-3.77681e-183
2.52079e-185
-1.19454e-183
7.55398e-186
-3.51476e-184
2.04703e-186
-9.34869e-185
4.87216e-187
-2.18139e-185
1.00602e-187
-4.41092e-186
1.81778e-188
-7.80518e-187
2.91612e-189
-1.22726e-187
4.11171e-190
-1.69312e-188
4.96327e-191
-1.98901e-189
5.05557e-192
-1.95894e-190
4.34328e-193
-1.61666e-191
3.14886e-194
-1.11639e-192
1.92523e-195
-6.42436e-194
9.93244e-197
-3.07026e-195
4.33664e-198
-1.21618e-196
1.61051e-199
-3.98571e-198
5.12028e-201
-1.07602e-199
1.40385e-202
-2.36497e-201
3.34484e-204
-4.09824e-203
6.97934e-206
-5.05975e-205
1.28505e-207
-2.38928e-207
2.24437e-209
5.43788e-212
3.84497e-211
2.33712e-213
6.46003e-213
6.32352e-215
1.06415e-214
1.4432e-216
1.71813e-216
2.9907e-218
2.71781e-218
5.79765e-220
4.21006e-220
1.06715e-221
6.38303e-222
1.88069e-223
9.46617e-224
3.18935e-225
1.37226e-225
5.22069e-227
1.94307e-227
8.26473e-229
2.68522e-229
1.26678e-230
3.61846e-231
1.8811e-232
4.75006e-233
2.7067e-234
6.06812e-235
3.77346e-236
7.5353e-237
5.09509e-238
9.08465e-239
6.65924e-240
1.06196e-240
8.41827e-242
1.20196e-242
1.02834e-243
1.31518e-244
1.21252e-245
1.38893e-246
1.37825e-247
1.41321e-248
1.50812e-249
1.38268e-250
1.58606e-251
1.29812e-252
1.60034e-253
1.16681e-254
1.5462e-255
1.00159e-256
1.42737e-257
8.1883e-259
1.256e-259
6.35631e-261
1.05069e-261
4.66949e-263
8.33139e-264
3.23422e-265
6.24156e-266
2.10323e-267
4.40161e-268
1.2781e-269
2.9099e-270
7.21877e-272
1.79498e-272
3.76596e-274
1.0276e-274
1.80155e-276
5.42615e-277
7.83501e-279
2.6237e-279
3.06589e-281
1.15178e-281
1.06578e-283
4.54327e-284
3.23887e-286
1.58997e-286
8.4264e-289
4.85803e-289
1.82406e-291
1.2691e-291
3.15297e-294
2.75501e-294
4.07876e-297
4.76964e-297
3.50926e-300
6.17201e-300
1.5063e-303
5.30519e-303
9.80888e-310
2.27216e-306
-2.01296e-303
3.05027e-306
-4.68278e-300
7.11128e-303
-5.42673e-297
8.24852e-300
-4.18072e-294
6.35237e-297
-2.40992e-291
3.65583e-294
-1.10916e-288
1.67774e-291
-4.24728e-286
6.39785e-289
-1.39233e-283
2.08592e-286
-3.99012e-281
5.93761e-284
-1.01585e-278
1.49952e-281
-2.32703e-276
3.40285e-279
-4.84631e-274
7.01095e-277
-9.25536e-272
1.32276e-274
-1.6327e-269
2.30197e-272
-2.67703e-267
3.71812e-270
-4.10188e-265
5.60376e-268
-5.90135e-263
7.91779e-266
-8.00527e-261
1.05315e-263
-1.02772e-258
1.32353e-261
-1.25287e-256
1.57674e-259
-1.45472e-254
1.78582e-257
-1.61317e-252
1.92808e-255
-1.71277e-250
1.9891e-253
-1.74511e-248
1.96506e-251
-1.70987e-246
1.86265e-249
-1.61421e-244
1.69705e-247
-1.47092e-242
1.48851e-245
-1.29587e-240
1.25871e-243
-1.10545e-238
1.02747e-241
-9.14409e-237
8.10499e-240
-7.34397e-235
6.18431e-238
-5.73376e-233
4.56794e-236
-4.35665e-231
3.26807e-234
-3.22496e-229
2.26549e-232
-2.32794e-227
1.52188e-230
-1.64012e-225
9.90515e-229
-1.12874e-223
6.24222e-227
-7.59343e-222
3.80464e-225
-4.99694e-220
2.23845e-223
-3.21848e-218
1.26733e-221
-2.03006e-216
6.87026e-220
-1.25453e-214
3.53651e-218
-7.59862e-213
1.70307e-216
-4.51251e-211
7.44774e-215
-2.6281e-209
2.74833e-213
-1.50136e-207
6.39754e-212
-8.13483e-206
-2.79332e-207
-3.88411e-204
-5.94049e-205
-1.62174e-202
-4.79623e-203
-5.87532e-201
-2.75277e-201
-1.83284e-199
-1.24336e-199
-4.88815e-198
-4.56431e-198
-1.10762e-196
-1.37821e-196
-2.12253e-195
-3.43899e-195
-3.43139e-194
-7.10753e-194
-4.67985e-193
-1.21977e-192
-5.39028e-192
-1.7453e-191
-5.24031e-191
-2.0916e-190
-4.30254e-190
-2.1022e-189
-3.02911e-189
-1.77287e-188
-1.87717e-188
-1.27536e-187
-1.03337e-187
-8.06312e-187
-4.97857e-187
-4.53236e-186
-2.08224e-186
-2.22961e-185
-7.65687e-186
-9.51126e-185
-2.5482e-185
-3.56311e-184
-7.88608e-185
-1.20766e-183
-2.28548e-184
-3.81069e-183
-6.16715e-184
-1.12801e-182
-1.53918e-183
-3.11402e-182
-3.54697e-183
-7.96236e-182
-7.56663e-183
-1.8825e-181
-1.50361e-182
-4.12602e-181
-2.80705e-182
-8.43655e-181
-4.96793e-182
-1.62319e-180
-8.39212e-182
-2.96584e-180
-1.36073e-181
-5.18259e-180
-2.12519e-181
-8.71149e-180
-3.20338e-181
-1.41384e-179
-4.6656e-181
-2.22028e-179
-6.57148e-181
-3.37839e-179
-8.95833e-181
-4.98624e-179
-1.18292e-180
-7.14609e-179
-1.51395e-180
-9.95639e-179
-1.87923e-180
-1.34989e-178
-2.26394e-180
-1.783e-178
-2.6483e-180
-2.29731e-178
-3.0088e-180
-2.8908e-178
-3.31992e-180
-3.55666e-178
-3.55588e-180
-4.28331e-178
-3.69309e-180
-5.05422e-178
-3.71225e-180
-5.84887e-178
-3.60015e-180
-6.64364e-178
-3.35119e-180
-7.41306e-178
-2.96407e-180
-8.13145e-178
-2.41451e-180
-8.76233e-178
-1.50849e-180
-9.1367e-178
-1.50685e-181
-7.90785e-178
-1.1443e-190
-1.2663e-178
-2.5078e-187
8.97602e-188
-1.88662e-184
6.32579e-179
-5.03705e-176
5.70298e-178
-2.83288e-175
8.99477e-178
-3.22739e-175
1.10786e-177
-3.10906e-175
1.26088e-177
-2.90774e-175
1.36438e-177
-2.67255e-175
1.41743e-177
-2.41482e-175
1.42114e-177
-2.14366e-175
1.37959e-177
-1.86839e-175
1.29928e-177
-1.59773e-175
1.18847e-177
-1.33939e-175
1.05647e-177
-1.09972e-175
9.12738e-178
-8.83438e-176
7.66267e-178
-6.93621e-176
6.24848e-178
-5.31648e-176
4.94604e-178
-3.97336e-176
3.79811e-178
-2.89237e-176
2.82791e-178
-2.04882e-176
2.03992e-178
-1.41066e-176
1.42457e-178
-9.43102e-177
9.62362e-179
-6.11601e-177
6.28207e-179
-3.84236e-177
3.95483e-179
-2.33354e-177
2.39272e-179
-1.36494e-177
1.38348e-179
-7.64508e-178
7.59307e-180
-4.07197e-178
3.91978e-180
-2.04341e-178
1.88732e-180
-9.57994e-179
8.42414e-181
-4.17019e-179
3.47755e-181
-1.68141e-179
1.33033e-181
-6.29142e-180
4.75e-182
-2.20066e-180
1.59246e-182
-7.2394e-181
4.97357e-183
-2.22097e-181
1.40659e-183
-6.1684e-182
3.4969e-184
-1.50456e-182
7.55213e-185
-3.18539e-183
1.43143e-185
-5.91993e-184
2.41914e-186
-9.81952e-185
3.6018e-187
-1.43243e-185
4.58867e-188
-1.77849e-186
4.92977e-189
-1.85056e-187
4.46946e-190
-1.61527e-188
3.42027e-191
-1.18043e-189
2.20494e-192
-7.18235e-191
1.19693e-193
-3.62227e-192
5.48378e-195
-1.51035e-193
2.1304e-196
-5.19548e-195
7.06198e-198
-1.4679e-196
2.01188e-199
-3.36694e-198
4.96381e-201
-6.07624e-200
1.06891e-202
-7.82164e-202
2.0245e-204
-4.0173e-204
3.62178e-206
1.08019e-208
6.34948e-208
4.85919e-210
1.09072e-209
1.35175e-211
1.83554e-211
3.15969e-213
3.0253e-213
6.6938e-215
4.88174e-215
1.32497e-216
7.70904e-217
2.48785e-218
1.19078e-218
4.46912e-220
1.79812e-220
7.71992e-222
2.65269e-222
1.2864e-223
3.82057e-224
2.07192e-225
5.36786e-226
3.22938e-227
7.35077e-228
4.8741e-229
9.80203e-230
7.12522e-231
1.27147e-231
1.00877e-232
1.60261e-233
1.38272e-234
1.96047e-235
1.8339e-236
2.32456e-237
2.35176e-238
2.66787e-239
2.91333e-240
2.95921e-241
3.4825e-242
3.16714e-243
4.01195e-244
3.26491e-245
4.44806e-246
3.2356e-247
4.7386e-248
3.07621e-249
4.84209e-250
2.79941e-251
4.73666e-252
2.43236e-253
4.42625e-254
2.01241e-255
3.94176e-256
1.58061e-257
3.33649e-258
1.17464e-259
2.67647e-260
8.22887e-262
2.0281e-262
5.41152e-264
1.44639e-264
3.32498e-266
9.66837e-267
1.89848e-268
6.02929e-269
1.00109e-270
3.48898e-271
4.83987e-273
1.86194e-273
2.12694e-275
9.0976e-276
8.40898e-278
4.03515e-278
2.95301e-280
1.60797e-280
9.0646e-283
5.68411e-283
2.38177e-285
1.75405e-285
5.20654e-288
4.62735e-288
9.08722e-291
1.0143e-290
1.18684e-293
1.7729e-293
1.03084e-296
2.31598e-296
4.46644e-300
2.00944e-299
3.04125e-306
8.68651e-303
-6.04208e-300
1.18048e-302
-1.39257e-296
2.72692e-299
-1.59865e-293
3.13362e-296
-1.21988e-290
2.39057e-293
-6.96419e-288
1.36269e-290
-3.17403e-285
6.19341e-288
-1.20344e-282
2.33875e-285
-3.90569e-280
7.54983e-283
-1.10797e-277
2.12758e-280
-2.7919e-275
5.31868e-278
-6.32911e-273
1.19458e-275
-1.30424e-270
2.4356e-273
-2.46423e-268
4.54681e-271
-4.29999e-266
7.82809e-269
-6.97299e-264
1.25066e-266
-1.05653e-261
1.86418e-264
-1.50281e-259
2.60453e-262
-2.01513e-257
3.42497e-260
-2.55679e-255
4.2546e-258
-3.07985e-253
5.00905e-256
-3.53275e-251
5.60557e-254
-3.86928e-249
5.97858e-252
-4.05661e-247
6.09151e-250
-4.08033e-245
5.94205e-248
-3.9458e-243
5.56002e-246
-3.67546e-241
4.99927e-244
-3.30366e-239
4.32627e-242
-2.87007e-237
3.60835e-240
-2.41357e-235
2.90425e-238
-1.96744e-233
2.25821e-236
-1.55661e-231
1.69785e-234
-1.19677e-229
1.23527e-232
-8.95111e-228
8.70161e-231
-6.51954e-226
5.93682e-229
-4.62846e-224
3.92337e-227
-3.20559e-222
2.51083e-225
-2.16755e-220
1.55506e-223
-1.43194e-218
9.30951e-222
-9.24804e-217
5.37648e-220
-5.84234e-215
2.98595e-218
-3.612e-213
1.58658e-216
-2.18631e-211
7.99738e-215
-1.29607e-209
3.76671e-213
-7.52692e-208
1.60807e-211
-4.28311e-206
5.77026e-210
-2.3884e-204
1.2828e-208
-1.25771e-202
-4.75405e-204
-5.81639e-201
-9.27927e-202
-2.3439e-199
-7.18097e-200
-8.16643e-198
-3.95482e-198
-2.44132e-196
-1.71026e-196
-6.21824e-195
-5.99332e-195
-1.34146e-193
-1.72231e-193
-2.44076e-192
-4.07842e-192
-3.73894e-191
-7.97926e-191
-4.82743e-190
-1.29389e-189
-5.26593e-189
-1.74802e-188
-4.85175e-188
-1.97953e-187
-3.77286e-187
-1.88237e-186
-2.51483e-186
-1.50143e-185
-1.4792e-185
-1.02121e-184
-7.76233e-185
-6.11954e-184
-3.57519e-184
-3.27506e-183
-1.43143e-183
-1.53861e-182
-5.04332e-183
-6.27842e-182
-1.61036e-182
-2.2524e-181
-4.79387e-182
-7.32149e-181
-1.34025e-181
-2.2212e-180
-3.49758e-181
-6.33904e-180
-8.45947e-181
-1.69131e-179
-1.89268e-180
-4.18823e-179
-3.92654e-180
-9.60836e-179
-7.59969e-180
-2.0472e-178
-1.38381e-179
-4.07603e-178
-2.39206e-179
-7.64786e-178
-3.95216e-179
-1.36473e-177
-6.27612e-179
-2.33226e-177
-9.61295e-179
-3.83923e-177
-1.42289e-178
-6.11008e-177
-2.03754e-178
-9.42124e-177
-2.82494e-178
-1.40923e-176
-3.79495e-178
-2.04702e-176
-4.94353e-178
-2.89052e-176
-6.24794e-178
-3.97221e-176
-7.66606e-178
-5.31735e-176
-9.13757e-178
-6.9413e-176
-1.05852e-177
-8.8473e-176
-1.19199e-177
-1.10233e-175
-1.30473e-177
-1.34408e-175
-1.38744e-177
-1.60555e-175
-1.4318e-177
-1.88073e-175
-1.43118e-177
-2.16237e-175
-1.38128e-177
-2.44228e-175
-1.28054e-177
-2.71184e-175
-1.12892e-177
-2.96242e-175
-9.17675e-178
-3.1817e-175
-5.74685e-178
-3.31038e-175
-5.97554e-179
-2.87121e-175
-7.19079e-188
-4.78188e-176
-1.51458e-184
4.07703e-185
-8.26769e-182
1.85018e-176
-1.40423e-173
1.62425e-175
-7.68481e-173
2.56231e-175
-8.74703e-173
3.16015e-175
-8.42987e-173
3.60414e-175
-7.89596e-173
3.9122e-175
-7.2777e-173
4.08132e-175
-6.60239e-173
4.11322e-175
-5.89117e-173
4.01747e-175
-5.16637e-173
3.81034e-175
-4.44955e-173
3.51323e-175
-3.76034e-173
3.15087e-175
-3.11547e-173
2.74903e-175
-2.52784e-173
2.33282e-175
-2.00653e-173
1.9247e-175
-1.5564e-173
1.54299e-175
-1.17832e-173
1.20126e-175
-8.69785e-174
9.07744e-176
-6.25429e-174
6.65304e-176
-4.37606e-174
4.72608e-176
-2.97641e-174
3.25153e-176
-1.96602e-174
2.16443e-176
-1.25963e-174
1.39137e-176
-7.81194e-175
8.60739e-177
-4.67246e-175
5.09587e-177
-2.67988e-175
2.86784e-177
-1.46386e-175
1.52034e-177
-7.54605e-176
7.52994e-178
-3.64086e-176
3.46357e-178
-1.63434e-176
1.47628e-178
-6.80922e-177
5.84317e-179
-2.63815e-177
2.16391e-179
-9.57709e-178
7.54508e-180
-3.27815e-178
2.45688e-180
-1.04895e-178
7.25488e-181
-3.04341e-179
1.88524e-181
-7.76611e-180
4.2626e-182
-1.72346e-180
8.48469e-183
-3.36816e-181
1.51252e-183
-5.90109e-182
2.38088e-184
-9.11336e-183
3.20531e-185
-1.19743e-183
3.6375e-186
-1.31848e-184
3.48728e-187
-1.2198e-185
2.82344e-188
-9.4568e-187
1.92393e-189
-6.0994e-188
1.10167e-190
-3.25472e-189
5.31014e-192
-1.43245e-190
2.16376e-193
-5.18699e-192
7.49833e-195
-1.53822e-193
2.22551e-196
-3.69293e-195
5.70025e-198
-6.96075e-197
1.2698e-199
-9.36687e-199
2.47914e-201
-5.22208e-201
4.55139e-203
1.58864e-205
8.18004e-205
7.5013e-207
1.43919e-206
2.1494e-208
2.4784e-208
5.15436e-210
4.17666e-210
1.11811e-211
6.88589e-212
2.26332e-213
1.11021e-213
4.34178e-215
1.74973e-215
7.96174e-217
2.6942e-217
1.40291e-218
4.05063e-219
2.3831e-220
5.94232e-221
3.91052e-222
8.49973e-223
6.20645e-224
1.18443e-224
9.53374e-226
1.60648e-226
1.41779e-227
2.11871e-228
2.04109e-229
2.71411e-230
2.8437e-231
3.37316e-232
3.83214e-233
4.06205e-234
4.99142e-235
4.73322e-236
6.27825e-237
5.32871e-238
7.61769e-239
5.78684e-240
8.90516e-241
6.05139e-242
1.00159e-242
6.08186e-244
1.08215e-244
5.86255e-246
1.12118e-246
5.40785e-248
1.11178e-248
4.76187e-250
1.05291e-250
3.99176e-252
9.50074e-253
3.17602e-254
8.14669e-255
2.39051e-256
6.61901e-257
1.69579e-258
5.079e-259
1.12907e-260
3.66734e-261
7.02238e-263
2.48156e-263
4.05814e-265
1.56628e-265
2.16545e-267