/*--------------------------------*- C++ -*----------------------------------*\
| =========                 |                                                 |
| \\      /  F ield         | OpenFOAM: The Open Source CFD Toolbox           |
|  \\    /   O peration     | Version:  2412                                  |
|   \\  /    A nd           | Website:  www.openfoam.com                      |
|    \\/     M anipulation  |                                                 |
\*---------------------------------------------------------------------------*/
FoamFile
{
    version     2.0;
    format      ascii;
    arch        "LSB;label=32;scalar=64";
    class       volScalarField;
    location    "1.14";
    object      alpha.water;
}
// * * * * * * * * * * * * * * * * * * * * * * * * * * * * * * * * * * * * * //

dimensions      [0 0 0 0 0 0 0];

internalField   nonuniform List<scalar> 
40000
(
9.70867e-191
1.22154e-181
7.61834e-181
9.22259e-181
9.23125e-181
8.72195e-181
7.9546e-181
7.06221e-181
6.12217e-181
5.18898e-181
4.29941e-181
3.47962e-181
2.74832e-181
2.11601e-181
1.58618e-181
1.15608e-181
8.18089e-182
5.6132e-182
3.72948e-182
2.3961e-182
1.48652e-182
8.89259e-183
5.12084e-183
2.83189e-183
1.49848e-183
7.54554e-184
3.59121e-184
1.60102e-184
6.62715e-185
2.52968e-185
8.87333e-186
2.86123e-186
8.51833e-187
2.35004e-187
5.9659e-188
1.36089e-188
2.71516e-189
4.67576e-190
6.98241e-191
9.13201e-192
1.03755e-192
1.00272e-193
8.1364e-195
5.53098e-196
3.15085e-197
1.50483e-198
6.03324e-200
2.03559e-201
5.79684e-203
1.39644e-204
2.84467e-206
4.87062e-208
6.87727e-210
7.58852e-212
7.69246e-214
7.70773e-216
7.62897e-218
7.4542e-220
7.18521e-222
6.82775e-224
6.39146e-226
5.88945e-228
5.33766e-230
4.75398e-232
4.15721e-234
3.5659e-236
2.99722e-238
2.46596e-240
1.9837e-242
1.55837e-244
1.19402e-246
8.91074e-249
6.4677e-251
4.55884e-253
3.11541e-255
2.06049e-257
1.31645e-259
8.10839e-262
4.80411e-264
2.73155e-266
1.48663e-268
7.72278e-271
3.81745e-273
1.78945e-275
7.92429e-278
3.30104e-280
1.28738e-282
4.67475e-285
1.57062e-287
4.84692e-290
1.36201e-292
3.44896e-295
7.77024e-298
1.53256e-300
2.59127e-303
3.65022e-306
4.11083e-309
3.46839e-312
1.93604e-315
0
0
3.14113e-315
5.48392e-312
6.41742e-309
5.62938e-306
3.94966e-303
2.30957e-300
1.15815e-297
5.0859e-295
1.98761e-292
7.00173e-290
2.2465e-287
6.622e-285
1.80648e-282
4.58946e-280
1.09181e-277
2.44384e-275
5.16869e-273
1.03686e-270
1.97961e-268
3.60827e-266
6.29656e-264
1.05467e-261
1.69968e-259
2.64123e-257
3.96569e-255
5.76398e-253
8.12423e-251
1.11228e-248
1.48144e-246
1.92229e-244
2.43338e-242
3.00894e-240
3.63871e-238
4.3083e-236
4.99981e-234
5.69278e-232
6.36549e-230
6.99619e-228
7.56445e-226
8.05231e-224
8.44525e-222
8.73285e-220
8.9092e-218
8.97301e-216
8.92738e-214
8.77932e-212
7.94169e-210
5.60316e-208
3.25528e-206
1.58747e-204
6.53829e-203
2.2755e-201
6.6783e-200
1.64845e-198
3.41508e-197
5.93279e-196
8.64204e-195
1.0553e-193
1.08285e-192
9.46407e-192
7.19427e-191
4.79184e-190
2.76819e-189
1.3812e-188
6.03336e-188
2.36994e-187
8.57165e-187
2.87357e-186
8.89586e-186
2.53219e-185
6.62514e-185
1.59877e-184
3.5825e-184
7.51991e-184
1.49198e-183
2.8173e-183
5.09144e-183
8.83852e-183
1.4773e-182
2.38122e-182
3.70653e-182
5.57872e-182
8.12997e-182
1.14871e-181
1.57586e-181
2.10221e-181
2.7308e-181
3.45866e-181
4.27604e-181
5.16567e-181
6.1036e-181
7.05991e-181
8.00074e-181
8.88996e-181
9.67806e-181
1.01694e-180
8.84866e-181
1.32986e-181
6.35947e-191
3.96254e-187
3.65086e-178
2.0891e-177
2.42191e-177
2.37675e-177
2.23519e-177
2.04465e-177
1.82595e-177
1.5944e-177
1.36194e-177
1.1378e-177
9.29016e-178
7.40731e-178
5.76116e-178
4.36587e-178
3.21955e-178
2.30725e-178
1.60478e-178
1.08199e-178
7.06224e-179
4.45665e-179
2.71543e-179
1.59493e-179
9.00957e-180
4.87698e-180
2.51586e-180
1.22839e-180
5.62554e-181
2.39516e-181
9.4176e-182
3.40857e-182
1.13652e-182
3.50839e-183
1.00684e-183
2.66693e-184
6.36079e-185
1.32882e-185
2.40053e-186
3.77237e-187
5.21487e-188
6.28575e-189
6.45929e-190
5.5856e-191
4.05945e-192
2.48178e-193
1.2774e-194
5.5477e-196
2.04138e-197
6.40113e-199
1.72186e-200
4.00058e-202
8.08018e-204
1.4262e-205
2.20688e-207
3.24568e-209
4.70425e-211
6.71691e-213
9.44406e-215
1.30692e-216
1.77912e-218
2.38108e-220
3.13094e-222
4.04209e-224
5.11961e-226
6.35644e-228
7.72958e-230
9.1972e-232
1.06974e-233
1.21494e-235
1.34584e-237
1.45232e-239
1.52474e-241
1.55521e-243
1.53884e-245
1.47475e-247
1.36653e-249
1.22206e-251
1.05263e-253
8.71439e-256
6.91764e-258
5.25212e-260
3.80326e-262
2.61873e-264
1.70871e-266
1.05257e-268
6.09541e-271
3.30259e-273
1.66511e-275
7.76333e-278
3.32277e-280
1.29434e-282
4.54126e-285
1.41691e-287
3.86858e-290
9.05104e-293
1.76357e-295
2.7463e-298
3.2032e-301
2.48656e-304
9.63274e-308
1.38785e-307
3.56121e-304
4.55889e-301
3.884e-298
2.47849e-295
1.26408e-292
5.36947e-290
1.95457e-287
6.22645e-285
1.76399e-282
4.50154e-280
1.04556e-277
2.22955e-275
4.39673e-273
8.06882e-271
1.38554e-268
2.23683e-266
3.40944e-264
4.92504e-262
6.76527e-260
8.86424e-258
1.11094e-255
1.33518e-253
1.54243e-251
1.71642e-249
1.84356e-247
1.91476e-245
1.92636e-243
1.88028e-241
1.78328e-239
1.64563e-237
1.47955e-235
1.2976e-233
1.11139e-231
9.30615e-230
7.62585e-228
6.12109e-226
4.81692e-224
3.71932e-222
2.81993e-220
2.10084e-218
1.53887e-216
1.10896e-214
7.86604e-213
5.49445e-211
3.78091e-209
2.56404e-207
1.65289e-205
9.32915e-204
4.59536e-202
1.96508e-200
7.24854e-199
2.29086e-197
6.16352e-196
1.40406e-194
2.69809e-193
4.36602e-192
5.94653e-191
6.81155e-190
6.57134e-189
5.4125e-188
3.89213e-187
2.46331e-186
1.35646e-185
6.46357e-185
2.70038e-184
1.01664e-183
3.53501e-183
1.14298e-182
3.42196e-182
9.43982e-182
2.39761e-181
5.62503e-181
1.22715e-180
2.51135e-180
4.86484e-180
8.98183e-180
1.58937e-179
2.70536e-179
4.43978e-179
7.0358e-179
1.07807e-178
1.59926e-178
2.2998e-178
3.20999e-178
4.35447e-178
5.74926e-178
7.39786e-178
9.28848e-178
1.13933e-177
1.36665e-177
1.6047e-177
1.84609e-177
2.08254e-177
2.30544e-177
2.50324e-177
2.62855e-177
2.30032e-177
3.6271e-178
2.63667e-187
6.09598e-184
4.0324e-175
2.2226e-174
2.52359e-174
2.44603e-174
2.2909e-174
2.09754e-174
1.88009e-174
1.65041e-174
1.41881e-174
1.19392e-174
9.82718e-175
7.90515e-175
6.20805e-175
4.7542e-175
3.54606e-175
2.57275e-175
1.81343e-175
1.24039e-175
8.22281e-176
5.27666e-176
3.27364e-176
1.96054e-176
1.13086e-176
6.25955e-177
3.30642e-177
1.65522e-177
7.78116e-178
3.40483e-178
1.37769e-178
5.13957e-179
1.76996e-179
5.6586e-180
1.6872e-180
4.65619e-181
1.15863e-181
2.52654e-182
4.76881e-183
7.8511e-184
1.14179e-184
1.45146e-185
1.57271e-186
1.43321e-187
1.09812e-188
7.07921e-190
3.83994e-191
1.75532e-192
6.78894e-194
2.2348e-195
6.30674e-197
1.53789e-198
3.26664e-200
6.09196e-202
1.00491e-203
1.57462e-205
2.42837e-207
3.6849e-209
5.50003e-211
8.07164e-213
1.16417e-214
1.64931e-216
2.29385e-218
3.12986e-220
4.18674e-222
5.48632e-224
7.03687e-226
8.82631e-228
1.08158e-229
1.29351e-231
1.50809e-233
1.71203e-235
1.89003e-237
2.02631e-239
2.1066e-241
2.12039e-243
2.06285e-245
1.9362e-247
1.74985e-249
1.51947e-251
1.26479e-253
1.00666e-255
7.63961e-258
5.51145e-260
3.76701e-262
2.43014e-264
1.47347e-266
8.35714e-269
4.40984e-271
2.15141e-273
9.63361e-276
3.92532e-278
1.44036e-280
4.69932e-283
1.34147e-285
3.28097e-288
6.68219e-291
1.08756e-293
1.32569e-296
1.07553e-299
4.35596e-303
6.16369e-303
1.51686e-299
1.86114e-296
1.51928e-293
9.28705e-291
4.53634e-288
1.84508e-285
6.42986e-283
1.96053e-280
5.31525e-278
1.29777e-275
2.8834e-273
5.88026e-271
1.10877e-268
1.94516e-266
3.19225e-264
4.9242e-262
7.16974e-260
9.89083e-258
1.29715e-255
1.62221e-253
1.93992e-251
2.22396e-249
2.44986e-247
2.59871e-245
2.65973e-243
2.63131e-241
2.52058e-239
2.34158e-237
2.11269e-235
1.85387e-233
1.58413e-231
1.31976e-229
1.07318e-227
8.52665e-226
6.6257e-224
5.03992e-222
3.75592e-220
2.74438e-218
1.96749e-216
1.38484e-214
9.57537e-213
6.50729e-211
4.34836e-209
2.85823e-207
1.84862e-205
1.17675e-203
7.1149e-202
3.80008e-200
1.77942e-198
7.24735e-197
2.54685e-195
7.66261e-194
1.96004e-192
4.23885e-191
7.7236e-190
1.18447e-188
1.52944e-187
1.66169e-186
1.51974e-185
1.18656e-184
8.10958e-184
4.89876e-183
2.5816e-182
1.17841e-181
4.71872e-181
1.70513e-180
5.70675e-180
1.78169e-179
5.16461e-179
1.38222e-178
3.41139e-178
7.78749e-178
1.65511e-177
3.30396e-177
6.25127e-177
1.12883e-176
1.95642e-176
3.2662e-176
5.26443e-176
8.20428e-176
1.23779e-175
1.81011e-175
2.56893e-175
3.54236e-175
4.75199e-175
6.21002e-175
7.91583e-175
9.85378e-175
1.19928e-174
1.42853e-174
1.667e-174
1.90741e-174
2.14178e-174
2.36191e-174
2.55681e-174
2.68011e-174
2.35261e-174
3.86619e-175
4.31525e-184
5.61071e-181
2.57306e-172
1.38345e-171
1.55687e-171
1.49967e-171
1.40171e-171
1.28474e-171
1.15528e-171
1.01897e-171
8.81143e-172
7.46573e-172
6.19289e-172
5.02483e-172
3.98375e-172
3.08267e-172
2.32547e-172
1.70803e-172
1.22003e-172
8.4659e-173
5.70011e-173
3.71965e-173
2.34976e-173
1.43491e-173
8.45144e-174
4.78365e-174
2.58735e-174
1.328e-174
6.40844e-175
2.88199e-175
1.20012e-175
4.61511e-176
1.64174e-176
5.43676e-177
1.68459e-177
4.84449e-178
1.25776e-178
2.86269e-179
5.64498e-180
9.7371e-181
1.49022e-181
1.99822e-182
2.28221e-183
2.19034e-184
1.76803e-185
1.20067e-186
6.85155e-188
3.28745e-189
1.33081e-190
4.57108e-192
1.34174e-193
3.39247e-195
7.44993e-197
1.43272e-198
2.43232e-200
3.90806e-202
6.17431e-204
9.58994e-206
1.46395e-207
2.1957e-209
3.23431e-211
4.67676e-213
6.6348e-215
9.22928e-217
1.25798e-218
1.67889e-220
2.19214e-222
2.79788e-224
3.48737e-226
4.24066e-228
5.02529e-230
5.79657e-232
6.50006e-234
7.0764e-236
7.46838e-238
7.62923e-240
7.53088e-242
7.17023e-244
6.57191e-246
5.78625e-248
4.88255e-250
3.93863e-252
3.02893e-254
2.21391e-256
1.53283e-258
1.00151e-260
6.14932e-263
3.53132e-265
1.8864e-267
9.31545e-270
4.22165e-272
1.7407e-274
6.46282e-277
2.13323e-279
6.16003e-282
1.52391e-284
3.13896e-287
5.16644e-290
6.36816e-293
5.22399e-296
2.1394e-299
3.04419e-299
7.41347e-296
8.99907e-293
7.26663e-290
4.39335e-287
2.12224e-284
8.53538e-282
2.94087e-279
8.86465e-277
2.37559e-274
5.73255e-272
1.25864e-269
2.53618e-267
4.72443e-265
8.18698e-263
1.32696e-260
2.02125e-258
2.90562e-256
3.95677e-254
5.12145e-252
6.32e-250
7.45618e-248
8.43116e-246
9.15871e-244
9.57817e-242
9.66239e-240
9.41953e-238
8.8889e-236
8.13243e-234
7.22401e-232
6.23893e-230
5.24522e-228
4.29783e-226
3.43591e-224
2.68277e-222
2.04778e-220
1.5294e-218
1.11852e-216
8.01629e-215
5.63378e-213
3.88494e-211
2.63001e-209
1.74872e-207
1.14247e-205
7.33611e-204
4.63121e-202
2.87478e-200
1.68853e-198
8.74255e-197
3.95788e-195
1.55372e-193
5.24555e-192
1.51123e-190
3.68989e-189
7.59564e-188
1.31443e-186
1.91216e-185
2.34239e-184
2.41541e-183
2.09489e-182
1.55019e-181
1.00667e-180
5.80372e-180
2.92728e-179
1.28009e-178
4.91265e-178
1.70353e-177
5.48647e-177
1.65368e-176
4.6406e-176
1.20483e-175
2.88936e-175
6.41768e-175
1.32878e-174
2.58721e-174
4.78088e-174
8.44308e-174
1.43309e-173
2.34646e-173
3.7143e-173
5.69229e-173
8.45576e-173
1.21891e-172
1.70713e-172
2.32542e-172
3.08459e-172
3.98959e-172
5.03758e-172
6.21704e-172
7.50774e-172
8.88046e-172
1.02987e-171
1.17199e-171
1.30985e-171
1.43879e-171
1.55258e-171
1.62413e-171
1.42897e-171
2.44241e-172
4.20647e-181
3.64296e-178
1.1252e-169
5.90599e-169
6.6244e-169
6.36684e-169
5.94976e-169
5.46297e-169
4.92928e-169
4.36812e-169
3.79917e-169
3.24076e-169
2.70896e-169
2.21696e-169
1.77439e-169
1.3874e-169
1.05856e-169
7.87147e-170
5.69819e-170
4.01165e-170
2.7436e-170
1.82081e-170
1.17133e-170
7.29422e-171
4.38739e-171
2.53964e-171
1.40668e-171
7.40343e-172
3.66792e-172
1.69568e-172
7.26901e-173
2.88251e-173
1.05964e-173
3.63646e-174
1.17148e-174
3.51221e-175
9.51813e-176
2.26223e-176
4.66347e-177
8.43555e-178
1.36024e-178
1.92619e-179
2.32129e-180
2.34913e-181
2.00101e-182
1.43426e-183
8.62728e-185
4.35319e-186
1.84779e-187
6.63312e-189
2.02776e-190
5.32057e-192
1.20818e-193
2.39414e-195
4.17397e-197
6.85838e-199
1.10708e-200
1.75538e-202
2.7334e-204
4.17885e-206
6.27016e-208
9.2296e-210
1.33215e-211
1.88428e-213
2.61026e-215
3.53883e-217
4.69178e-219
6.07789e-221
7.6861e-223
9.4791e-225
1.13886e-226
1.33143e-228
1.51276e-230
1.66819e-232
1.78287e-234
1.84385e-236
1.8422e-238
1.77488e-240
1.64581e-242
1.4657e-244
1.25074e-246
1.02014e-248
7.9308e-251
5.85904e-253
4.09945e-255
2.70637e-257
1.67876e-259
9.73796e-262
5.25378e-264
2.61993e-266
1.19884e-268
4.99044e-271
1.87034e-273
6.23117e-276
1.81593e-278
4.53328e-281
9.42172e-284
1.56453e-286
1.94541e-289
1.60977e-292
6.64947e-296
9.57586e-296
2.31212e-292
2.78238e-289
2.22709e-286
1.33458e-283
6.38909e-281
2.54636e-278
8.69316e-276
2.59609e-273
6.89187e-271
1.64729e-268
3.582e-266
7.14743e-264
1.31828e-261
2.26158e-259
3.62838e-257
5.46985e-255
7.78081e-253
1.04831e-250
1.34223e-248
1.63817e-246
1.91109e-244
2.13644e-242
2.29396e-240
2.37074e-238
2.36284e-236
2.27521e-234
2.12016e-232
1.91491e-230
1.67876e-228
1.43043e-226
1.1861e-224
9.58208e-223
7.54991e-221
5.80764e-219
4.36549e-217
3.20928e-215
2.30919e-213
1.6274e-211
1.12405e-209
7.61341e-208
5.05926e-206
3.29981e-204
2.11317e-202
1.32903e-200
8.21053e-199
4.98297e-197
2.84932e-195
1.43114e-193
6.26212e-192
2.3671e-190
7.66661e-189
2.11132e-187
4.91143e-186
9.60423e-185
1.57527e-183
2.1695e-182
2.51702e-181
2.46045e-180
2.02155e-179
1.41613e-178
8.72742e-178
4.79793e-177
2.31468e-176
9.69216e-176
3.56328e-175
1.18517e-174
3.67136e-174
1.06785e-173
2.89981e-173
7.30096e-173
1.7008e-172
3.67488e-172
7.41115e-172
1.40726e-171
2.53942e-171
4.38532e-171
7.28892e-171
1.17033e-170
1.81917e-170
2.74128e-170
4.00891e-170
5.69586e-170
7.87133e-170
1.05907e-169
1.38896e-169
1.77782e-169
2.22349e-169
2.72032e-169
3.25935e-169
3.82817e-169
4.41179e-169
4.99315e-169
5.55408e-169
6.07643e-169
6.53583e-169
6.82234e-169
6.01437e-169
1.06795e-169
2.85665e-178
1.80199e-175
3.66575e-167
1.87518e-166
2.10081e-166
2.01915e-166
1.88909e-166
1.73889e-166
1.57491e-166
1.4024e-166
1.22689e-166
1.05371e-166
8.87626e-167
7.32716e-167
5.92074e-167
4.67828e-167
3.61055e-167
2.71844e-167
1.99462e-167
1.42491e-167
9.89995e-168
6.68279e-168
4.37849e-168
2.78082e-168
1.70832e-168
1.01139e-168
5.73746e-169
3.09684e-169
1.57552e-169
7.4896e-170
3.30643e-170
1.3527e-170
5.14133e-171
1.82942e-171
6.13047e-172
1.9171e-172
5.42567e-173
1.34745e-173
2.90619e-174
5.51858e-175
9.38826e-176
1.4058e-176
1.78981e-177
1.91272e-178
1.72288e-179
1.30653e-180
8.30481e-182
4.41814e-183
1.97163e-184
7.4171e-186
2.36795e-187
6.46522e-189
1.52205e-190
3.11551e-192
5.59043e-194
9.4118e-196
1.55508e-197
2.52155e-199
4.01197e-201
6.26223e-203
9.58637e-205
1.4387e-206
2.11585e-208
3.04767e-210
4.29696e-212
5.92621e-214
7.98899e-216
1.05185e-217
1.35137e-219
1.69253e-221
2.06437e-223
2.44926e-225
2.82324e-227
3.15758e-229
3.42169e-231
3.58708e-233
3.63193e-235
3.54529e-237
3.33e-239
3.00332e-241
2.59494e-243
2.14257e-245
1.68589e-247
1.26037e-249
8.92245e-252
5.95884e-254
3.73862e-256
2.19317e-258
1.19646e-260
6.0322e-263
2.79028e-265
1.17401e-267
4.4468e-270
1.49705e-272
4.40814e-275
1.11176e-277
2.3341e-280
3.91488e-283
4.9164e-286
4.10825e-289
1.71353e-292
2.50444e-292
5.98804e-289
7.13496e-286
5.65419e-283
3.3542e-280
1.58947e-277
6.26984e-275
2.1183e-272
6.25975e-270
1.64418e-267
3.8878e-265
8.36235e-263
1.65031e-260
3.01007e-258
5.1059e-256
8.09846e-254
1.20678e-251
1.69656e-249
2.25867e-247
2.85715e-245
3.44452e-243
3.96855e-241
4.38057e-239
4.64324e-237
4.73607e-235
4.6576e-233
4.42417e-231
4.06579e-229
3.62049e-227
3.12836e-225
2.62642e-223
2.14508e-221
1.70625e-219
1.32317e-217
1.00135e-215
7.40182e-214
5.34842e-212
3.78066e-210
2.61611e-208
1.77316e-206
1.17779e-204
7.67021e-203
4.89919e-201
3.07002e-199
1.88775e-197
1.13916e-195
6.74631e-194
3.74688e-192
1.82104e-190
7.68054e-189
2.78769e-187
8.63681e-186
2.26715e-184
5.01079e-183
9.28364e-182
1.43954e-180
1.87234e-179
2.05306e-178
1.89969e-177
1.4768e-176
9.78069e-176
5.71297e-175
2.99172e-174
1.37939e-173
5.52714e-173
1.94567e-172
6.2041e-172
1.84759e-171
5.18296e-171
1.3613e-170
3.32214e-170
7.51479e-170
1.57904e-169
3.10109e-169
5.74176e-169
1.01165e-168
1.70811e-168
2.77977e-168
4.37622e-168
6.67895e-168
9.8946e-168
1.42434e-167
1.99433e-167
2.71905e-167
3.61306e-167
4.68428e-167
5.93272e-167
7.34861e-167
8.91196e-167
1.05933e-166
1.23536e-166
1.41471e-166
1.59226e-166
1.76266e-166
1.92065e-166
2.05909e-166
2.14459e-166
1.89384e-166
3.49014e-167
1.46223e-175
7.09088e-173
9.32043e-165
4.63973e-164
5.19611e-164
5.00022e-164
4.68786e-164
4.32843e-164
3.93632e-164
3.52296e-164
3.10065e-164
2.68147e-164
2.27661e-164
1.89582e-164
1.54684e-164
1.2353e-164
9.64498e-165
7.35402e-165
5.47014e-165
3.9659e-165
2.79966e-165
1.92255e-165
1.28308e-165
8.31194e-166
5.21571e-166
3.15857e-166
1.83533e-166
1.01611e-166
5.30966e-167
2.59637e-167
1.18101e-167
4.98768e-168
1.96124e-168
7.24001e-169
2.52504e-169
8.23998e-170
2.43663e-170
6.32744e-171
1.42916e-171
2.85226e-172
5.12613e-173
8.12729e-174
1.09452e-174
1.23714e-175
1.18096e-176
9.49883e-178
6.39667e-179
3.59747e-180
1.69255e-181
6.69225e-183
2.23799e-184
6.37763e-186
1.56131e-187
3.31097e-189
6.1325e-191
1.06041e-192
1.79758e-194
2.98745e-196
4.86728e-198
7.77292e-200
1.21645e-201
1.86501e-203
2.8001e-205
4.11496e-207
5.91583e-209
8.31484e-211
1.14176e-212
1.53051e-214
2.00112e-216
2.5496e-218
3.16222e-220
3.81377e-222
4.46722e-224
5.07549e-226
5.58559e-228
5.945e-230
6.10965e-232
6.05189e-234
5.76688e-236
5.27543e-238
4.62223e-240
3.86936e-242
3.08625e-244
2.33839e-246
1.67742e-248
1.13498e-250
7.21329e-253
4.28573e-255
2.36764e-257
1.20864e-259
5.65996e-262
2.4106e-264
9.24125e-267
3.14845e-269
9.38084e-272
2.3937e-274
5.08401e-277
8.62545e-280
1.09557e-282
9.25832e-286
3.90484e-289
5.80633e-289
1.37269e-285
1.61709e-282
1.26684e-279
7.42858e-277
3.47928e-274
1.35632e-271
4.52812e-269
1.32208e-266
3.4306e-264
8.01291e-262
1.70226e-259
3.31752e-257
5.97471e-255
1.00055e-252
1.56651e-250
2.30384e-248
3.19607e-246
4.19804e-244
5.23838e-242
6.22841e-240
7.07585e-238
7.69987e-236
8.04419e-234
8.08509e-232
7.83296e-230
7.32785e-228
6.63054e-226
5.81166e-224
4.94128e-222
4.08065e-220
3.27712e-218
2.56217e-216
1.95218e-214
1.45089e-212
1.05275e-210
7.46327e-209
5.17312e-207
3.50806e-205
2.32868e-203
1.51386e-201
9.64186e-200
6.01825e-198
3.6822e-196
2.20864e-194
1.29879e-192
7.48718e-191
4.02713e-189
1.88813e-187
7.65208e-186
2.65836e-184
7.85368e-183
1.95904e-181
4.10176e-180
7.18038e-179
1.04985e-177
1.28629e-176
1.33012e-175
1.16319e-174
8.54497e-174
5.34347e-173
2.95422e-172
1.47195e-171
6.48008e-171
2.48302e-170
8.36506e-170
2.55597e-169
7.31371e-169
1.97764e-168
5.02074e-168
1.18693e-167
2.60577e-167
5.32282e-167
1.01774e-166
1.83713e-166
3.16011e-166
5.21624e-166
8.31066e-166
1.28268e-165
1.9218e-165
2.7986e-165
3.96485e-165
5.46991e-165
7.35617e-165
9.65189e-165
1.23683e-164
1.54977e-164
1.90089e-164
2.28482e-164
2.69406e-164
3.11912e-164
3.54909e-164
3.97208e-164
4.37581e-164
4.74853e-164
5.07394e-164
5.2726e-164
4.66283e-164
8.90934e-165
5.90701e-173
2.28017e-170
1.90215e-162
9.20766e-162
1.03117e-161
9.9415e-162
9.34511e-162
8.65883e-162
7.90912e-162
7.11617e-162
6.30208e-162
5.48895e-162
4.69769e-162
3.94706e-162
3.25244e-162
2.62568e-162
2.07444e-162
1.60211e-162
1.20835e-162
8.89293e-163
6.37986e-163
4.45763e-163
3.03072e-163
2.00282e-163
1.28381e-163
7.95304e-164
4.73391e-164
2.68869e-164
1.44347e-164
7.26395e-165
3.40658e-165
1.48625e-165
6.05072e-166
2.31881e-166
8.42089e-167
2.86883e-167
8.86839e-168
2.40997e-168
5.70668e-169
1.19851e-169
2.27861e-170
3.82995e-171
5.46288e-172
6.54163e-173
6.63306e-174
5.67314e-175
4.05788e-176
2.41908e-177
1.20341e-178
5.01641e-180
1.76279e-181
5.25994e-183
1.34332e-184
2.96061e-186
5.67765e-188
1.01093e-189
1.7625e-191
3.00921e-193
5.03168e-195
8.23915e-197
1.32097e-198
2.07318e-200
3.18396e-202
4.78307e-204
7.0248e-206
1.00808e-207
1.41256e-209
1.93128e-211
2.57425e-213
3.34221e-215
4.22242e-217
5.1852e-219
6.18209e-221
7.14692e-223
8.00048e-225
8.6592e-227
9.04689e-229
9.1079e-231
8.81871e-233
8.19514e-235
7.2927e-237
6.199e-239
5.01964e-241
3.86042e-243
2.81033e-245
1.92941e-247
1.244e-249
7.49709e-252
4.20046e-254
2.17435e-256
1.03237e-258
4.45734e-261
1.73202e-263
5.98048e-266
1.8057e-268
4.66857e-271
1.00457e-273
1.7265e-276
2.22119e-279
1.90104e-282
8.11945e-286
1.2315e-285
2.87446e-282
3.34292e-279
2.58511e-276
1.49616e-273
6.9156e-271
2.66025e-268
8.76286e-266
2.52407e-263
6.46065e-261
1.48835e-258
3.11808e-256
5.9919e-254
1.06388e-251
1.75622e-249
2.70998e-247
3.92743e-245
5.36811e-243
6.9458e-241
8.53613e-239
9.99412e-237
1.11778e-234
1.19723e-232
1.23081e-230
1.21703e-228
1.15967e-226
1.06674e-224
9.48795e-223
8.17201e-221
6.82539e-219
5.53504e-217
4.36334e-215
3.34728e-213
2.50132e-211
1.82241e-209
1.29561e-207
8.99462e-206
6.10175e-204
4.04707e-202
2.62579e-200
1.66721e-198
1.03628e-196
6.30695e-195
3.75908e-193
2.19423e-191
1.25428e-189
7.02017e-188
3.6453e-186
1.6434e-184
6.37854e-183
2.11388e-181
5.93537e-180
1.40237e-178
2.77319e-177
4.57414e-176
6.28958e-175
7.24034e-174
7.04437e-173
5.81252e-172
4.02986e-171
2.37638e-170
1.24187e-169
5.87995e-169
2.46895e-168
9.03956e-168
2.91299e-167
8.52546e-167
2.34283e-166
6.10246e-166
1.4964e-165
3.42433e-165
7.29162e-165
1.44731e-164
2.69348e-164
4.73933e-164
7.95813e-164
1.28412e-163
2.00276e-163
3.03011e-163
4.45628e-163
6.37783e-163
8.89086e-163
1.2083e-162
1.60251e-162
2.07572e-162
2.62849e-162
3.25774e-162
3.95611e-162
4.7121e-162
5.51068e-162
6.33338e-162
7.15953e-162
7.96701e-162
8.73349e-162
9.43799e-162
1.00508e-161
1.04198e-161
9.22556e-162
1.82556e-162
1.93913e-170
6.09843e-168
3.17079e-160
1.49224e-159
1.67152e-159
1.61512e-159
1.52281e-159
1.41638e-159
1.2998e-159
1.17598e-159
1.04815e-159
9.19619e-160
7.9356e-160
6.72901e-160
5.6012e-160
4.57226e-160
3.65627e-160
2.86102e-160
2.18859e-160
1.63544e-160
1.19261e-160
8.47992e-161
5.87429e-161
3.96032e-161
2.59332e-161
1.64347e-161
1.00217e-161
5.84022e-162
3.22243e-162
1.66981e-162
8.08031e-163
3.64541e-163
1.53793e-163
6.12283e-164
2.31635e-164
8.24129e-165
2.66465e-165
7.58502e-166
1.88547e-166
4.17283e-167
8.40353e-168
1.4993e-168
2.26809e-169
2.88248e-170
3.11203e-171
2.83761e-172
2.16142e-173
1.3696e-174
7.22565e-176
3.18558e-177
1.18019e-178
3.6997e-180
9.88996e-182
2.27286e-183
4.52772e-185
8.32344e-187
1.49625e-188
2.63086e-190
4.52525e-192
7.61474e-194
1.25344e-195
2.01796e-197
3.17662e-199
4.88773e-201
7.34759e-203
1.07857e-204
1.54506e-206
2.15842e-208
2.93819e-210
3.89401e-212
5.01962e-214
6.28704e-216
7.64228e-218
9.00449e-220
1.02699e-221
1.13214e-223
1.20439e-225
1.23428e-227
1.21622e-229
1.14992e-231
1.04089e-233
8.99807e-236
7.40831e-238
5.79179e-240
4.28535e-242
2.98968e-244
1.95848e-246
1.199e-248
6.82306e-251
3.58676e-253
1.72916e-255
7.57957e-258
2.98972e-260
1.04777e-262
3.21047e-265
8.42265e-268
1.8388e-270
3.20595e-273
4.18373e-276
3.63167e-279
1.573e-282
2.44065e-282
5.61613e-279
6.43837e-276
4.90738e-273
2.79913e-270
1.27496e-267
4.8324e-265
1.56822e-262
4.44968e-260
1.12179e-257
2.54503e-255
5.25012e-253
9.93294e-251
1.73609e-248
2.82071e-246
4.28325e-244
6.10761e-242
8.21226e-240
1.04511e-237
1.26302e-235
1.45384e-233
1.5983e-231
1.68231e-229
1.69918e-227
1.65028e-225
1.54411e-223
1.39432e-221
1.21703e-219
1.02834e-217
8.42289e-216
6.69596e-214
5.17241e-212
3.88647e-210
2.84328e-208
2.02703e-206
1.40935e-204
9.56316e-203
6.33682e-201
4.10261e-199
2.59632e-197
1.60665e-195
9.72436e-194
5.75769e-192
3.3351e-190
1.88982e-188
1.0474e-186
5.67627e-185
2.83599e-183
1.22516e-181
4.53814e-180
1.42964e-178
3.80178e-177
8.47986e-176
1.57883e-174
2.44671e-173
3.15562e-172
3.40407e-171
3.10861e-170
2.41595e-169
1.57865e-168
8.76769e-168
4.32522e-167
1.94337e-166
7.77279e-166
2.71663e-165
8.36945e-165
2.34537e-164
6.18695e-164
1.55128e-163
3.67078e-163
8.12351e-163
1.67639e-162
3.23139e-162
5.8513e-162
1.00342e-161
1.64466e-161
2.59414e-161
3.96043e-161
5.87332e-161
8.47745e-161
1.19221e-160
1.63498e-160
2.18832e-160
2.86137e-160
3.65786e-160
4.576e-160
5.60844e-160
6.74142e-160
7.95529e-160
9.22566e-160
1.05235e-159
1.1817e-159
1.30729e-159
1.42584e-159
1.53432e-159
1.62831e-159
1.68397e-159
1.4923e-159
3.05446e-160
5.27388e-168
1.37254e-165
4.36171e-158
1.99625e-157
2.23693e-157
2.16685e-157
2.04974e-157
1.91428e-157
1.76539e-157
1.60649e-157
1.44146e-157
1.27433e-157
1.10905e-157
9.49369e-158
7.98544e-158
6.59342e-158
5.33846e-158
4.23387e-158
3.28603e-158
2.49396e-158
1.84912e-158
1.33826e-158
9.44663e-159
6.4976e-159
4.34656e-159
2.81785e-159
1.76041e-159
1.05282e-159
5.97283e-160
3.18947e-160
1.59428e-160
7.44667e-161
3.25921e-161
1.34903e-161
5.31865e-162
1.97678e-162
6.68896e-163
1.9969e-163
5.21937e-164
1.21912e-164
2.60397e-165
4.93734e-166
7.93354e-167
1.07216e-167
1.23561e-168
1.20428e-169
9.79387e-171
6.61512e-172
3.71272e-173
1.73693e-174
6.80768e-176
2.24997e-177
6.31777e-179
1.51929e-180
3.15473e-182
6.00443e-184
1.11589e-185
2.02573e-187
3.59307e-189
6.22774e-191
1.05484e-192
1.74581e-194
2.82279e-196
4.45761e-198
6.87231e-200
1.03389e-201
1.51695e-203
2.16924e-205
3.02109e-207
4.09426e-209
5.3944e-211
6.90277e-213
8.569e-215
1.0307e-216
1.19964e-218
1.34913e-220
1.46372e-222
1.52936e-224
1.53602e-226
1.4799e-228
1.36471e-230
1.20158e-232
1.00739e-234
8.0182e-237
6.03879e-239
4.28754e-241
2.85787e-243
1.77995e-245
1.03031e-247
5.50832e-250
2.70032e-252
1.20344e-254
4.82556e-257
1.71894e-259
5.35287e-262
1.42704e-264
3.16543e-267
5.6068e-270
7.43239e-273
6.55279e-276
2.88236e-279
4.58979e-279
1.03969e-275
1.17322e-272
8.80114e-270
4.94024e-267
2.21415e-264
8.25667e-262
2.63587e-259
7.35644e-257
1.82396e-254
4.06909e-252
8.25307e-250
1.53497e-247
2.63698e-245
4.21048e-243
6.28224e-241
8.80039e-239
1.16226e-236
1.45254e-234
1.72351e-232
1.94744e-230
2.1011e-228
2.16987e-226
2.14978e-224
2.04747e-222
1.87811e-220
1.66207e-218
1.42132e-216
1.17619e-214
9.43153e-213
7.33738e-211
5.54418e-209
4.07299e-207
2.91186e-205
2.02753e-203
1.37604e-201
9.10832e-200
5.88352e-198
3.7105e-196
2.28553e-194
1.3754e-192
8.08784e-191
4.64767e-189
2.60989e-187
1.43194e-185
7.67397e-184
4.01541e-182
1.9235e-180
7.93367e-179
2.79417e-177
8.33629e-176
2.09186e-174
4.38925e-173
7.66912e-172
1.11338e-170
1.34334e-169
1.3543e-168
1.15789e-167
8.4595e-167
5.20184e-166
2.71774e-165
1.26397e-164
5.38103e-164
2.04674e-163
6.82043e-163
2.00774e-162
5.38562e-162
1.36324e-161
3.28771e-161
7.49905e-161
1.60293e-160
3.20228e-160
5.98987e-160
1.05488e-159
1.76271e-159
2.82e-159
4.348e-159
6.49775e-159
9.44483e-159
1.33781e-158
1.84837e-158
2.493e-158
3.28515e-158
4.2336e-158
5.33953e-158
6.59683e-158
7.9927e-158
9.50664e-158
1.11114e-157
1.27747e-157
1.44593e-157
1.61253e-157
1.77319e-157
1.92397e-157
2.06132e-157
2.17984e-157
2.24864e-157
1.99385e-157
4.21594e-158
1.20365e-165
2.61865e-163
4.97487e-156
2.21543e-155
2.48401e-155
2.41268e-155
2.29034e-155
2.14826e-155
1.99149e-155
1.82328e-155
1.64744e-155
1.46798e-155
1.28897e-155
1.1143e-155
9.47489e-156
7.91647e-156
6.49266e-156
5.22119e-156
4.11309e-156
3.17172e-156
2.39172e-156
1.76221e-156
1.26768e-156
8.89596e-157
6.07901e-157
4.03136e-157
2.58036e-157
1.58406e-157
9.24524e-158
5.0929e-158
2.63344e-158
1.27552e-158
5.79957e-159
2.49787e-159
1.02662e-159
3.98671e-160
1.41274e-160
4.4303e-161
1.22008e-161
3.01289e-162
6.83364e-163
1.37869e-163
2.3573e-164
3.39512e-165
4.18751e-166
4.37427e-167
3.80825e-168
2.74989e-169
1.64725e-170
8.2062e-172
3.41496e-173
1.19433e-174
3.53577e-176
8.93027e-178
1.93992e-179
3.83412e-181
7.38724e-183
1.38825e-184
2.5456e-186
4.55577e-188
7.95863e-190
1.35713e-191
2.25873e-193
3.66838e-195
5.81187e-197
8.97859e-199
1.35185e-200
1.98253e-202
2.82994e-204
3.92877e-206
5.29997e-208
6.94067e-210
8.8139e-212
1.08407e-213
1.28972e-215
1.48207e-217
1.64246e-219
1.75242e-221
1.79677e-223
1.76674e-225
1.66232e-227
1.49299e-229
1.27654e-231
1.03597e-233
7.9537e-236
5.75559e-238
3.90937e-240
2.48072e-242
1.46274e-244
7.9649e-247
3.97621e-249
1.80429e-251
7.36538e-254
2.67062e-256
8.46415e-259
2.29624e-261
5.18259e-264
9.33911e-267
1.25933e-269
1.12929e-272
5.05172e-276
8.28536e-276
1.84493e-272
2.04627e-269
1.50862e-266
8.32135e-264
3.66441e-261
1.34244e-258
4.20972e-256
1.15392e-253
2.80959e-251
6.15438e-249
1.22545e-246
2.23721e-244
3.77197e-242
5.90985e-240
8.65099e-238
1.18872e-235
1.53966e-233
1.8867e-231
2.19458e-229
2.43032e-227
2.56924e-225
2.59919e-223
2.5219e-221
2.35155e-219
2.11119e-217
1.82803e-215
1.52896e-213
1.23706e-211
9.69459e-210
7.3677e-208
5.43587e-206
3.89733e-204
2.71775e-202
1.84475e-200
1.2197e-198
7.85993e-197
4.93913e-195
3.0278e-193
1.81127e-191
1.05757e-189
6.02762e-188
3.35342e-186
1.82085e-184
9.64688e-183
4.98474e-181
2.51072e-179
1.14879e-177
4.50647e-176
1.50315e-174
4.23049e-173
9.97872e-172
1.96236e-170
3.20664e-169
4.34789e-168
4.89426e-167
4.5988e-166
3.67139e-165
2.51598e-164
1.45334e-163
7.13422e-163
3.12431e-162
1.25809e-161
4.54143e-161
1.44064e-160
4.04944e-160
1.03957e-159
2.5242e-159
5.85033e-159
1.28451e-158
2.64778e-158
5.11351e-158
9.27189e-158
1.58721e-157
2.58375e-157
4.03439e-157
6.08082e-157
8.89567e-157
1.26735e-156
1.76144e-156
2.39045e-156
3.17001e-156
4.11123e-156
5.21969e-156
6.4922e-156
7.91796e-156
9.4797e-156
1.11528e-155
1.29065e-155
1.47058e-155
1.65117e-155
1.82833e-155
1.99797e-155
2.15623e-155
2.29974e-155
2.42305e-155
2.49284e-155
2.21094e-155
4.82341e-156
2.32402e-163
4.25143e-161
4.70422e-154
2.03975e-153
2.28917e-153
2.2299e-153
2.12478e-153
2.00214e-153
1.86623e-153
1.71956e-153
1.56516e-153
1.40629e-153
1.24633e-153
1.08861e-153
9.36197e-154
7.91947e-154
6.58268e-154
5.37032e-154
4.29615e-154
3.36745e-154
2.58348e-154
1.9383e-154
1.42112e-154
1.01744e-154
7.10163e-155
4.8171e-155
3.15911e-155
1.99133e-155
1.19659e-155
6.80944e-156
3.64927e-156
1.83667e-156
8.69025e-157
3.89838e-157
1.67061e-157
6.77917e-158
2.51792e-158
8.31203e-159
2.41828e-159
6.32574e-160
1.52521e-160
3.27841e-161
5.97786e-162
9.19894e-163
1.21762e-163
1.36701e-164
1.27758e-165
9.89332e-167
6.34721e-168
3.37951e-169
1.4989e-170
5.56871e-172
1.74494e-173
4.64688e-175
1.06013e-176
2.18267e-178
4.37283e-180