/*--------------------------------*- C++ -*----------------------------------*\
| =========                 |                                                 |
| \\      /  F ield         | OpenFOAM: The Open Source CFD Toolbox           |
|  \\    /   O peration     | Version:  2412                                  |
|   \\  /    A nd           | Website:  www.openfoam.com                      |
|    \\/     M anipulation  |                                                 |
\*---------------------------------------------------------------------------*/
FoamFile
{
    version     2.0;
    format      ascii;
    arch        "LSB;label=32;scalar=64";
    class       surfaceScalarField;
    location    "1.14";
    object      alphaPhi0.water;
}
// * * * * * * * * * * * * * * * * * * * * * * * * * * * * * * * * * * * * * //

dimensions      [0 3 -1 0 0 0 0];

oriented        oriented;

internalField   nonuniform List<scalar> 
79600
(
2.16904e-201
-8.83871e-198
6.4733e-192
-1.11903e-188
6.61539e-191
-7.06976e-188
1.12687e-190
-8.5614e-188
1.46039e-190
-8.56002e-188
1.69528e-190
-8.08431e-188
1.83296e-190
-7.37264e-188
1.88053e-190
-6.54637e-188
1.84819e-190
-5.67642e-188
1.74984e-190
-4.81266e-188
1.60058e-190
-3.98897e-188
1.41636e-190
-3.22962e-188
1.21337e-190
-2.55193e-188
1.00641e-190
-1.96572e-188
8.07976e-191
-1.47428e-188
6.27496e-191
-1.07515e-188
4.71038e-191
-7.61323e-189
3.41482e-191
-5.22767e-189
2.38868e-191
-3.47643e-189
1.61053e-191
-2.23585e-189
1.04549e-191
-1.38883e-189
6.52673e-192
-8.3204e-190
3.91256e-192
-4.79962e-190
2.24729e-192
-2.65949e-190
1.23248e-192
-1.41029e-190
6.41955e-193
-7.11721e-191
3.15455e-193
-3.39465e-191
1.44951e-193
-1.51629e-191
6.17392e-194
-6.28639e-192
2.42121e-194
-2.40263e-192
8.71249e-195
-8.43659e-193
2.87794e-195
-2.72347e-193
8.76524e-196
-8.12141e-194
2.47058e-196
-2.24597e-194
6.39981e-197
-5.71766e-195
1.48783e-197
-1.30681e-195
3.02169e-198
-2.60769e-196
5.29097e-199
-4.4835e-197
8.02473e-200
-6.6786e-198
1.06478e-200
-8.71144e-199
1.22603e-201
-9.85636e-200
1.19955e-202
-9.45047e-201
9.84381e-204
-7.57209e-202
6.76056e-205
-5.05721e-203
3.88703e-206
-2.81328e-204
1.87176e-207
-1.30178e-205
7.5588e-209
-5.00629e-207
2.56626e-210
-1.59967e-208
7.34648e-212
-4.24268e-210
1.77728e-213
-9.29852e-212
3.6323e-215
-1.66179e-213
6.23327e-217
-2.33468e-215
8.81236e-219
-2.29149e-217
9.72606e-221
-6.7473e-220
9.85147e-223
7.80915e-226
9.85296e-225
1.8047e-227
9.72425e-227
2.80408e-229
9.46408e-229
3.74006e-231
9.07682e-231
4.57444e-233
8.57253e-233
5.27209e-235
7.96671e-235
5.80427e-237
7.27946e-237
6.15101e-239
6.5344e-239
6.30297e-241
5.75723e-241
6.26224e-243
4.9741e-243
6.04231e-245
4.20993e-245
5.66693e-247
3.48687e-247
5.1681e-249
2.82298e-249
4.58306e-251
2.2314e-251
3.95095e-253
1.71986e-253
3.30938e-255
1.29084e-255
2.69139e-257
9.42094e-258
2.12327e-259
6.6757e-260
1.6232e-261
4.58535e-262
1.20102e-263
3.04763e-264
8.58903e-266
1.95639e-266
5.92782e-268
1.21052e-268
3.94158e-270
7.20388e-271
2.52037e-272
4.11353e-273
1.54665e-274
2.24802e-275
9.08819e-277
1.17246e-277
5.10097e-279
5.818e-280
2.72732e-281
2.73741e-282
1.38491e-283
1.21661e-284
6.65662e-286
5.08585e-287
3.01729e-288
1.99019e-289
1.28437e-290
7.25064e-292
5.10988e-293
2.44387e-294
1.88985e-295
7.56522e-297
6.45697e-298
2.13229e-299
2.02325e-300
5.41539e-302
5.7643e-303
1.22354e-304
1.47777e-305
2.41996e-307
3.36579e-308
4.10283e-310
6.70178e-311
5.79479e-313
1.14236e-313
6.54289e-316
1.62004e-316
5.53433e-319
1.83427e-319
3.11261e-322
1.5316e-322
0
0
0
0
0
0
-4.94066e-322
0
-8.64798e-319
2.47033e-322
-1.00979e-315
2.86346e-319
-8.83775e-313
2.4984e-316
-6.18607e-310
1.74117e-313
-3.6085e-307
1.00995e-310
-1.80494e-304
5.01669e-308
-7.90549e-302
2.17917e-305
-3.08119e-299
8.41216e-303
-1.08238e-296
2.9228e-300
-3.46276e-294
9.23566e-298
-1.01767e-291
2.67707e-295
-2.76763e-289
7.17028e-293
-7.00887e-287
1.78568e-290
-1.66187e-284
4.15731e-288
-3.70712e-282
9.09124e-286
-7.81282e-280
1.87523e-283
-1.56156e-277
3.66201e-281
-2.9701e-275
6.79311e-279
-5.39245e-273
1.20063e-276
-9.37188e-271
2.02734e-274
-1.56319e-268
3.27862e-272
-2.50823e-266
5.08962e-270
-3.88009e-264
7.59964e-268
-5.79851e-262
1.0935e-265
-8.38698e-260
1.51882e-263
-1.17617e-257
2.03943e-261
-1.60184e-255
2.65103e-259
-2.12187e-253
3.34016e-257
-2.73772e-251
4.0834e-255
-3.4452e-249
4.84803e-253
-4.23393e-247
5.59406e-251
-5.08738e-245
6.27675e-249
-5.98342e-243
6.85023e-247
-6.89552e-241
7.27174e-245
-7.79426e-239
7.50533e-243
-8.64922e-237
7.52494e-241
-9.43085e-235
7.31665e-239
-1.01123e-232
6.88031e-237
-1.06711e-230
6.2288e-235
-1.10902e-228
5.38756e-233
-1.1359e-226
4.3923e-231
-1.14734e-224
3.28447e-229
-1.14361e-222
2.10952e-227
-1.12554e-220
9.13767e-226
-1.01791e-218
-7.65473e-220
-7.17278e-217
-2.64526e-217
-4.1578e-215
-2.68955e-215
-2.02101e-213
-1.90548e-213
-8.28867e-212
-1.05938e-211
-2.86962e-210
-4.79565e-210
-8.36974e-209
-1.79175e-208
-2.05111e-207
-5.55096e-207
-4.21454e-206
-1.42799e-205
-7.25451e-205
-3.0524e-204
-1.04599e-203
-5.42869e-203
-1.26299e-202
-8.04716e-202
-1.28015e-201
-9.94985e-201
-1.10403e-200
-1.02891e-199
-8.27246e-200
-9.02947e-199
-5.42526e-199
-6.88212e-198
-3.08246e-198
-4.59541e-197
-1.51094e-197
-2.6589e-196
-6.47624e-197
-1.32642e-195
-2.49316e-196
-5.78275e-195
-8.82632e-196
-2.26518e-194
-2.8925e-195
-8.17318e-194
-8.74157e-195
-2.7356e-193
-2.42567e-194
-8.45931e-193
-6.17763e-194
-2.40535e-192
-1.44886e-193
-6.28538e-192
-3.15015e-193
-1.51438e-191
-6.40483e-193
-3.38692e-191
-1.2286e-192
-7.09421e-191
-2.23862e-192
-1.40442e-190
-3.89564e-192
-2.64628e-190
-6.49724e-192
-4.77295e-190
-1.0408e-191
-8.27132e-190
-1.6036e-191
-1.38048e-189
-2.37903e-191
-2.22236e-189
-3.40187e-191
-3.4557e-189
-4.69345e-191
-5.19658e-189
-6.25352e-191
-7.56727e-189
-8.05435e-191
-1.06852e-188
-1.00373e-190
-1.46501e-188
-1.21107e-190
-1.95339e-188
-1.4153e-190
-2.53635e-188
-1.60196e-190
-3.211e-188
-1.75532e-190
-3.96832e-188
-1.86001e-190
-4.79225e-188
-1.90238e-190
-5.66073e-188
-1.87221e-190
-6.54593e-188
-1.76371e-190
-7.41634e-188
-1.5742e-190
-8.23862e-188
-1.28983e-190
-8.96676e-188
-8.05344e-191
-9.41617e-188
-7.38399e-192
-8.16336e-188
-1.41478e-201
-1.20702e-188
-5.86577e-198
1.41932e-197
-3.54322e-194
3.12075e-188
-3.2385e-185
2.84989e-187
-1.88427e-184
4.54768e-187
-2.18803e-184
5.69203e-187
-2.1459e-184
6.51288e-187
-2.01733e-184
7.01902e-187
-1.8451e-184
7.21394e-187
-1.64778e-184
7.12169e-187
-1.43901e-184
6.78233e-187
-1.22947e-184
6.24634e-187
-1.0274e-184
5.57047e-187
-8.39133e-185
4.81346e-187
-6.69304e-185
4.03047e-187
-5.20773e-185
3.26949e-187
-3.94828e-185
2.56801e-187
-2.9131e-185
1.95153e-187
-2.08886e-185
1.43374e-187
-1.45385e-185
1.01748e-187
-9.81012e-186
6.9681e-188
-6.40921e-186
4.60035e-188
-4.04909e-186
2.92471e-188
-2.47041e-186
1.78808e-188
-1.45329e-186
1.04899e-188
-8.22409e-187
5.88482e-189
-4.46033e-187
3.14001e-189
-2.30533e-187
1.58288e-189
-1.12758e-187
7.47116e-190
-5.17119e-188
3.27313e-190
-2.20383e-188
1.32221e-190
-8.66972e-189
4.90933e-191
-3.13852e-189
1.67689e-191
-1.04667e-189
5.29575e-192
-3.23326e-190
1.55277e-192
-9.2924e-191
4.19702e-193
-2.46531e-191
1.02023e-193
-5.8803e-192
2.16971e-194
-1.22518e-192
3.98558e-195
-2.20162e-193
6.36159e-196
-3.437e-194
8.92255e-197
-4.71827e-195
1.09002e-197
-5.63261e-196
1.13406e-198
-5.69747e-197
9.91853e-200
-4.81369e-198
7.28331e-201
-3.39173e-199
4.49439e-202
-1.99125e-200
2.33263e-203
-9.72008e-202
1.0205e-204
-3.93951e-203
3.77897e-206
-1.32523e-204
1.19132e-207
-3.69787e-206
3.21854e-209
-8.52951e-208
7.5032e-211
-1.60797e-209
1.51906e-212
-2.39863e-211
2.6849e-214
-2.55144e-213
4.15611e-216
-9.9936e-216
6.10846e-218
7.25872e-221
8.83868e-220
2.58603e-222
1.25859e-221
5.9009e-224
1.76291e-223
1.14244e-225
2.42775e-225
2.01646e-227
3.28525e-227
3.34091e-229
4.36571e-229
5.27194e-231
5.69342e-231
7.9879e-233
7.28124e-233
1.16774e-234
9.12449e-235
1.65191e-236
1.11947e-236
2.26535e-238
1.34344e-238
3.01466e-240
1.57543e-240
3.89501e-242
1.80341e-242
4.88643e-244
2.01289e-244
5.95116e-246
2.18801e-246
7.03303e-248
2.31326e-248
8.05991e-250
2.37544e-250
8.94955e-252
2.36575e-252
9.61877e-254
2.28145e-254
9.99492e-256
2.1268e-256
1.00279e-257
1.91304e-258
9.69977e-260
1.65708e-260
9.03079e-262
1.37928e-262
8.07814e-264
1.10063e-264
6.92865e-266
8.39858e-267
5.68564e-268
6.11142e-269
4.45296e-270
4.22787e-271
3.31963e-272
2.77125e-273
2.3486e-274
1.71462e-275
1.57169e-276
9.97171e-278
9.91195e-279
5.42513e-280
5.86643e-281
2.74619e-282
3.24313e-283
1.28533e-284
1.66568e-285
5.52194e-287
7.89868e-288
2.15882e-289
3.4332e-290
7.60105e-292
1.3561e-292
2.3797e-294
4.81757e-295
6.51887e-297
1.51976e-297
1.53009e-299
4.18934e-300
2.99067e-302
9.88193e-303
4.67138e-305
1.93857e-305
5.46469e-308
3.0352e-308
4.25435e-311
3.55452e-311
1.65276e-314
2.76672e-314
2.77171e-321
1.07323e-317
-2.36501e-314
1.54627e-317
-6.05232e-311
3.96243e-314
-7.72635e-308
5.05887e-311
-6.56371e-305
4.29255e-308
-4.17612e-302
2.7244e-305
-2.12343e-299
1.3801e-302
-8.99148e-297
5.81458e-300
-3.26245e-294
2.09642e-297
-1.03582e-291
6.6053e-295
-2.92445e-289
1.84818e-292
-7.43645e-287
4.65121e-290
-1.72093e-284
1.06381e-287
-3.6558e-282
2.23033e-285
-7.18119e-280
4.31761e-283
-1.31256e-277
7.76578e-281
-2.24448e-275
1.30478e-278
-3.60787e-273
2.05752e-276
-5.47471e-271
3.05787e-274
-7.87191e-269
4.29898e-272
-1.07616e-266
5.73618e-270
-1.40309e-264
7.28596e-268
-1.74947e-262
8.83341e-266
-2.09146e-260
1.02472e-263
-2.40283e-258
1.13992e-261
-2.65865e-256
1.21847e-259
-2.83874e-254
1.25375e-257
-2.93032e-252
1.24387e-255
-2.92934e-250
1.19166e-253
-2.8404e-248
1.10386e-251
-2.6754e-246
9.89857e-250
-2.45129e-244
8.60148e-248
-2.18757e-242
7.249e-246
-1.90377e-240
5.92891e-244
-1.61748e-238
4.70828e-242
-1.34306e-236
3.63103e-240
-1.09096e-234
2.71913e-238
-8.67719e-233
1.97627e-236
-6.76354e-231
1.39261e-234
-5.17052e-229
9.49737e-233
-3.87948e-227
6.25008e-231
-2.85876e-225
3.94985e-229
-2.07017e-223
2.37769e-227
-1.47398e-221
1.34379e-225
-1.03239e-219
6.92604e-224
-7.11618e-218
3.03044e-222
-4.82902e-216
8.51725e-221
-3.11187e-214
-1.15284e-215
-1.75398e-212
-2.97021e-213
-8.61934e-211
-2.78512e-211
-3.67346e-209
-1.8578e-209
-1.34913e-207
-9.78863e-208
-4.24117e-206
-4.20864e-206
-1.13388e-204
-1.49377e-204
-2.56419e-203
-4.39305e-203
-4.88665e-202
-1.07156e-201
-7.83425e-201
-2.16975e-200
-1.05608e-199
-3.65402e-199
-1.19607e-198
-5.13107e-198
-1.13971e-197
-6.01345e-197
-9.26212e-197
-5.89173e-196
-6.56463e-196
-4.89877e-195
-4.09054e-195
-3.54711e-194
-2.21525e-194
-2.25977e-193
-1.03692e-193
-1.25089e-192
-4.25058e-193
-5.97607e-192
-1.56825e-192
-2.49646e-191
-5.33725e-192
-9.38357e-191
-1.68687e-191
-3.2581e-190
-4.93002e-191
-1.05274e-189
-1.32573e-190
-3.15121e-189
-3.27756e-190
-8.69118e-189
-7.47312e-190
-2.20634e-188
-1.58187e-189
-5.17129e-188
-3.13567e-189
-1.12656e-187
-5.87277e-189
-2.30144e-187
-1.04627e-188
-4.44969e-187
-1.7828e-188
-8.19953e-187
-2.91556e-188
-1.44837e-186
-4.58588e-188
-2.46148e-186
-6.94692e-188
-4.03417e-186
-1.0146e-187
-6.3858e-186
-1.43005e-187
-9.77545e-186
-1.94711e-187
-1.44896e-185
-2.56315e-187
-2.08225e-185
-3.2649e-187
-2.90465e-185
-4.02765e-187
-3.93822e-185
-4.81479e-187
-5.19726e-185
-5.57935e-187
-6.68477e-185
-6.26743e-187
-8.38985e-185
-6.8216e-187
-1.02874e-184
-7.18683e-187
-1.23361e-184
-7.31546e-187
-1.44806e-184
-7.17251e-187
-1.66545e-184
-6.73936e-187
-1.87833e-184
-6.0088e-187
-2.07893e-184
-4.93093e-187
-2.2568e-184
-3.10632e-187
-2.36854e-184
-3.00038e-188
-2.06567e-184
-8.72753e-198
-3.20501e-185
-2.38837e-194
2.24793e-194
-5.33008e-191
3.65583e-185
-3.45039e-182
3.24066e-184
-1.93574e-181
5.06322e-184
-2.20348e-181
6.24463e-184
-2.13537e-181
7.09923e-184
-1.99954e-181
7.64379e-184
-1.83068e-181
7.87412e-184
-1.64101e-181
7.80676e-184
-1.44077e-181
7.47662e-184
-1.23888e-181
6.93181e-184
-1.04282e-181
6.22902e-184
-8.58652e-182
5.42851e-184
-6.90997e-182
4.58836e-184
-5.42904e-182
3.76054e-184
-4.15981e-182
2.98701e-184
-3.10456e-182
2.29777e-184
-2.25394e-182
1.71055e-184
-1.58993e-182
1.23139e-184
-1.08849e-182
8.56432e-185
-7.22347e-183
5.74928e-185
-4.64111e-183
3.72155e-185
-2.88353e-183
2.31981e-185
-1.72982e-183
1.38961e-185
-9.9967e-184
7.97131e-186
-5.54464e-184
4.35511e-186
-2.9347e-184
2.25089e-186
-1.47188e-184
1.09058e-186
-6.92989e-185
4.91032e-187
-3.03565e-185
2.04126e-187
-1.22914e-185
7.81207e-188
-4.58724e-186
2.75602e-188
-1.58043e-186
9.01417e-189
-5.05764e-187
2.7461e-189
-1.51073e-187
7.73338e-190
-4.17716e-188
1.96132e-190
-1.0397e-188
4.35397e-191
-2.26135e-189
8.3566e-192
-4.24608e-190
1.39742e-192
-6.94625e-191
2.062e-193
-1.00371e-191
2.65675e-194
-1.26418e-192
2.91461e-195
-1.34824e-193
2.68647e-196
-1.20003e-194
2.0798e-197
-8.91109e-196
1.35337e-198
-5.51343e-197
7.40258e-200
-2.83281e-198
3.40888e-201
-1.20589e-199
1.32685e-202
-4.2494e-201
4.39134e-204
-1.23862e-202
1.24472e-205
-2.97638e-204
3.0456e-207
-5.83264e-206
6.48481e-209
-9.03733e-208
1.21107e-210
-1.00308e-209
1.99856e-212
-4.40174e-212
3.1297e-214
5.4163e-217
4.81871e-216
2.12301e-218
7.29254e-218
5.19316e-220
1.08441e-219
1.07169e-221
1.58379e-221
2.01085e-223
2.2708e-223
3.53547e-225
3.19449e-225
5.91245e-227
4.40657e-227
9.48346e-229
5.95638e-229
1.46624e-230
7.88361e-231
2.19183e-232
1.02089e-232
3.17384e-234
1.29229e-234
4.45675e-236
1.59757e-236
6.07215e-238
1.92679e-238
8.02827e-240
2.26471e-240
1.02988e-241
2.59107e-242
1.28132e-243
2.88196e-244
1.54513e-245
3.11208e-246
1.8045e-247
3.25789e-248
2.03895e-249
3.30116e-250
2.22649e-251
3.23229e-252
2.34657e-253
3.05267e-254
2.38347e-255
2.77537e-256
2.32941e-257
2.42389e-258
2.18653e-259
2.02885e-260
1.96735e-261
1.62345e-262
1.69305e-263
1.23844e-264
1.39019e-265
8.97921e-267
1.08625e-267
6.16688e-269
8.05288e-270
3.99694e-271
5.64553e-272
2.43442e-273
3.72896e-274
1.38678e-275
2.31098e-276
7.34864e-278
1.33748e-278
3.59983e-280
7.18994e-281
1.61833e-282
3.56791e-283
6.6194e-285
1.62257e-285
2.43797e-287
6.70438e-288
7.98286e-290
2.49106e-290
2.28677e-292
8.21767e-293
5.61199e-295
2.3685e-295
1.14674e-297
5.84066e-298
1.87236e-300
1.19768e-300
2.28943e-303
1.95992e-303
1.86303e-306
2.3988e-306
7.56771e-310
1.9514e-309
4.20065e-316
7.91399e-313
-1.06438e-309
1.11983e-312
-2.61193e-306
2.75213e-309
-3.19532e-303
3.36765e-306
-2.60047e-300
2.7379e-303
-1.58464e-297
1.66454e-300
-7.71536e-295
8.07535e-298
-3.12766e-292
3.25765e-295
-1.08621e-289
1.12438e-292
-3.30025e-287
3.39068e-290
-8.91475e-285
9.07837e-288
-2.16842e-282
2.18581e-285
-4.79907e-280
4.78188e-283
-9.74766e-278
9.58743e-281
-1.83036e-275
1.77449e-278
-3.1973e-273
3.05081e-276
-5.22388e-271
4.89846e-274
-8.0211e-269
7.37996e-272
-1.16234e-266
1.04761e-269
-1.5956e-264
1.40639e-267
-2.08193e-262
1.79143e-265
-2.58992e-260
2.17157e-263
-3.08025e-258
2.51185e-261
-3.51125e-256
2.77912e-259
-3.84521e-254
2.94759e-257
-4.05402e-252
3.00289e-255
-4.12299e-250
2.94377e-253
-4.05218e-248
2.78141e-251
-3.85522e-246
2.53667e-249
-3.55608e-244
2.23595e-247
-3.18486e-242
1.90704e-245
-2.77329e-240
1.57538e-243
-2.3509e-238
1.26152e-241
-1.9423e-236
9.79844e-240
-1.56575e-234
7.38503e-238
-1.2328e-232
5.402e-236
-9.48943e-231
3.8344e-234
-7.1473e-229
2.63963e-232
-5.27168e-227
1.76042e-230
-3.81051e-225
1.13529e-228
-2.70105e-223
7.05806e-227
-1.87872e-221
4.20917e-225
-1.28292e-219
2.38787e-223
-8.60501e-218
1.26952e-221
-5.67135e-216
6.13826e-220
-3.67407e-214
2.50505e-218
-2.34018e-212
6.39616e-217
-1.41435e-210
-5.14764e-212
-7.54337e-209
-1.179e-209
-3.52374e-207
-1.05884e-207
-1.43029e-205
-6.79632e-206
-5.00427e-204
-3.44291e-204
-1.49754e-202
-1.41997e-202
-3.80628e-201
-4.82093e-201
-8.17125e-200
-1.35228e-199
-1.4765e-198
-3.13767e-198
-2.24326e-197
-6.03069e-197
-2.86675e-196
-9.62976e-196
-3.07941e-195
-1.28235e-194
-2.78163e-194
-1.4259e-193
-2.14277e-193
-1.32444e-192
-1.44338e-192
-1.04344e-191
-8.58407e-192
-7.17709e-191
-4.44874e-191
-4.36297e-190
-1.99476e-190
-2.31108e-189
-7.83708e-190
-1.05757e-188
-2.77523e-189
-4.23358e-188
-9.09072e-189
-1.52687e-187
-2.77425e-188
-5.10104e-187
-7.85004e-188
-1.59104e-186
-2.04795e-187
-4.61e-186
-4.91975e-187
-1.23328e-185
-1.09146e-186
-3.04175e-185
-2.25076e-186
-6.93604e-185
-4.3519e-186
-1.4719e-184
-7.96085e-186
-2.93271e-184
-1.38714e-185
-5.53763e-184
-2.31497e-185
-9.97933e-184
-3.71315e-185
-1.72627e-183
-5.73606e-185
-2.87711e-183
-8.54516e-185
-4.63053e-183
-1.22884e-184
-7.20745e-183
-1.70743e-184
-1.08624e-182
-2.29437e-184
-1.58703e-182
-2.98389e-184
-2.25059e-182
-3.75871e-184
-3.10128e-182
-4.58958e-184
-4.15779e-182
-5.43529e-184
-5.43053e-182
-6.24472e-184
-6.91878e-182
-6.96076e-184
-8.60881e-182
-7.52396e-184
-1.04733e-181
-7.87853e-184
-1.24709e-181
-7.97725e-184
-1.45479e-181
-7.78645e-184
-1.66408e-181
-7.2896e-184
-1.86806e-181
-6.48162e-184
-2.05958e-181
-5.31201e-184
-2.229e-181
-3.35934e-184
-2.33525e-181
-3.38842e-185
-2.04277e-181
-1.52337e-194
-3.30307e-182
-3.81322e-191
2.02388e-191
-4.77479e-188
2.31661e-182
-2.11599e-179
2.02347e-181
-1.15847e-178
3.14718e-181
-1.30778e-178
3.86376e-181
-1.25989e-178
4.38602e-181
-1.17755e-178
4.7277e-181
-1.07935e-178
4.88542e-181
-9.70734e-179
4.86595e-181
-8.56394e-179
4.687e-181
-7.40782e-179
4.37482e-181
-6.27881e-179
3.96148e-181
-5.21059e-179
3.48202e-181
-4.22992e-179
2.97103e-181
-3.35544e-179
2.46032e-181
-2.59814e-179
1.97641e-181
-1.96136e-179
1.53909e-181
-1.44175e-179
1.16107e-181
-1.03077e-179
8.47928e-182
-7.16015e-180
5.98958e-182
-4.8268e-180
4.08879e-182
-3.15418e-180
2.69497e-182
-1.99577e-180
1.71292e-182
-1.22099e-180
1.04774e-182
-7.20638e-181
6.14594e-183
-4.0879e-181
3.43829e-183
-2.2159e-181
1.822e-183
-1.13969e-181
9.06189e-184
-5.50941e-182
4.19342e-184
-2.48111e-182
1.79407e-184
-1.03426e-182
7.07777e-185
-3.98063e-183
2.57934e-185
-1.41734e-183
8.73875e-186
-4.7008e-184
2.76659e-186
-1.46e-184
8.11892e-187
-4.20903e-185
2.14843e-187
-1.09364e-185
4.97811e-188
-2.48423e-186
9.98215e-189
-4.87695e-187
1.74896e-189
-8.36769e-188
2.71592e-190
-1.27411e-188
3.69118e-191
-1.69502e-189
4.26851e-192
-1.90782e-190
4.14368e-193
-1.79093e-191
3.37967e-194
-1.40376e-192
2.31676e-195
-9.16983e-194
1.33317e-196
-4.9682e-195
6.44416e-198
-2.22511e-196
2.62544e-199
-8.22652e-198
9.06688e-201
-2.50802e-199
2.6732e-202
-6.28373e-201
6.78225e-204
-1.28012e-202
1.49304e-205
-2.05759e-204
2.87547e-207
-2.37182e-206
4.88384e-209
-1.12527e-208
7.84247e-211
1.7963e-213
1.23704e-212
7.3867e-215
1.91628e-214
1.86025e-216
2.91445e-216
3.93672e-218
4.35033e-218
7.5608e-220
6.37043e-220
1.35904e-221
9.14704e-222
2.32137e-223
1.2871e-223
3.80017e-225
1.77372e-225
5.99248e-227
2.39218e-227
9.13095e-229
3.15501e-229
1.347e-230
4.06575e-231
1.92601e-232
5.11463e-233
2.6708e-234
6.27464e-235
3.59248e-236
7.49896e-237
4.68664e-238
8.72065e-239
5.92754e-240
9.85585e-241
7.26393e-242
1.08108e-242
8.6181e-244
1.14924e-244
9.88955e-246
1.1822e-246
1.09642e-247
1.1748e-248
1.17289e-249
1.12578e-250
1.20889e-251
1.03827e-252
1.19858e-253
9.19642e-255
1.14109e-255
7.80509e-257
1.0411e-257
6.33135e-259
9.08317e-260
4.89529e-261
7.55975e-262
3.5967e-263
5.98613e-264
2.50274e-265
4.49645e-266
1.64318e-267
3.19337e-268
1.01366e-269
2.13641e-270
5.84748e-272
1.34084e-272
3.13739e-274
7.85749e-275
1.5559e-276
4.27635e-277
7.08015e-279
2.14809e-279
2.93098e-281
9.8871e-282
1.09241e-283
4.13424e-284
3.61927e-286
1.55431e-286
1.04891e-288
5.18756e-289
2.60401e-291
1.51251e-291
5.38207e-294
3.77271e-294
8.88775e-297
7.82438e-297
1.09903e-299
1.29487e-299
9.04395e-303
1.60258e-302
3.71512e-306
1.31822e-305
2.50463e-312
5.40587e-309
-5.25485e-306
7.69211e-309
-1.27593e-302
1.87071e-305
-1.54411e-299
2.26465e-302
-1.24293e-296
1.82123e-299
-7.49031e-294
1.09511e-296
-3.60616e-291
5.25395e-294
-1.44536e-288
2.09574e-291
-4.96229e-286
7.15156e-289
-1.4903e-283
2.13194e-286
-3.97865e-281
5.64212e-284
-9.56338e-279
1.34257e-281
-2.09126e-276
2.90237e-279
-4.19634e-274
5.74942e-277
-7.78328e-272
1.05124e-274
-1.34275e-269
1.78517e-272
-2.16632e-267
2.8307e-270
-3.28403e-265
4.211e-268
-4.69758e-263
5.90142e-266
-6.36428e-261
7.82001e-264
-8.19397e-259
9.83033e-262
-1.00561e-256
1.17577e-259
-1.17964e-254
1.34163e-257
-1.32601e-252
1.464e-255
-1.43162e-250
1.53107e-253
-1.48767e-248
1.53764e-251
-1.49085e-246
1.48558e-249
-1.44342e-244
1.38299e-247
-1.3524e-242
1.24239e-245
-1.22814e-240
1.07837e-243
-1.08255e-238
9.05394e-242
-9.27429e-237
7.36021e-240
-7.73197e-235
5.79786e-238
-6.28026e-233
4.42824e-236
-4.97518e-231
3.28057e-234
-3.84782e-229
2.35767e-232
-2.908e-227
1.64344e-230
-2.14939e-225
1.11047e-228
-1.55494e-223
7.26526e-227
-1.10177e-221
4.59353e-225
-7.65115e-220
2.7979e-223
-5.21028e-218
1.63346e-221
-3.48102e-216
9.06321e-220
-2.28267e-214
4.70689e-218
-1.46966e-212
2.2189e-216
-9.29274e-211
8.79368e-215
-5.77171e-209
2.13914e-213
-3.38857e-207
-1.33226e-208
-1.75194e-205
-2.81628e-206
-7.9119e-204
-2.43392e-204
-3.09526e-202
-1.50506e-202
-1.04038e-200
-7.32877e-201
-2.98113e-199
-2.89651e-199
-7.23243e-198
-9.393e-198
-1.47783e-196
-2.50875e-196
-2.53605e-195
-5.52719e-195
-3.65487e-194
-1.00651e-193
-4.43092e-193
-1.52105e-192
-4.51724e-192
-1.91784e-191
-3.8694e-191
-2.02111e-190
-2.82497e-190
-1.77805e-189
-1.808e-189
-1.32585e-188
-1.02619e-188
-8.65333e-188
-5.08998e-188
-5.01538e-187
-2.18638e-187
-2.54075e-186
-8.23237e-187
-1.11317e-185
-2.79743e-186
-4.26846e-185
-8.81779e-186
-1.47646e-184
-2.59785e-185
-4.74398e-184
-7.11615e-185
-1.42774e-183
-1.80092e-184
-4.00288e-183
-4.20369e-184
-1.03838e-182
-9.07397e-184
-2.48759e-182
-1.82286e-183
-5.51761e-182
-3.43769e-183
-1.14041e-181
-6.14161e-183
-2.21585e-181
-1.04657e-182
-4.08564e-181
-1.71052e-182
-7.19942e-181
-2.69077e-182
-1.21947e-180
-4.0822e-182
-1.99299e-180
-5.98022e-182
-3.14965e-180
-8.46728e-182
-4.82014e-180
-1.15971e-181
-7.15143e-180
-1.53784e-181
-1.02979e-179
-1.9757e-181
-1.44093e-179
-2.46087e-181
-1.96119e-179
-2.97395e-181
-2.59956e-179
-3.48877e-181
-3.36003e-179
-3.97391e-181
-4.24008e-179
-4.39512e-181
-5.23001e-179
-4.71757e-181
-6.31274e-179
-4.90931e-181
-7.46368e-179
-4.94389e-181
-8.65223e-179
-4.80315e-181
-9.84286e-179
-4.47906e-181
-1.09972e-178
-3.9701e-181
-1.20764e-178
-3.24731e-181
-1.30282e-178
-2.05878e-181
-1.36208e-178
-2.16121e-182
-1.19409e-178
-1.50345e-191
-2.00751e-179
-3.61063e-188
1.30012e-188
-3.00494e-185
1.00435e-179
-8.85738e-177
8.60326e-179
-4.73597e-176
1.33817e-178
-5.33091e-176
1.64239e-178
-5.12537e-176
1.8659e-178
-4.79007e-176
2.01585e-178
-4.39886e-176
2.09078e-178
-3.97009e-176
2.09252e-178
-3.51925e-176
2.02738e-178
-3.06207e-176
1.90523e-178
-2.61323e-176
1.73855e-178
-2.18559e-176
1.54132e-178
-1.78975e-176
1.32768e-178
-1.43346e-176
1.11096e-178
-1.12171e-176
9.02645e-179
-8.5659e-177
7.1165e-179
-6.37581e-177
5.44088e-179
-4.62051e-177
4.03144e-179
-3.25697e-177
2.89262e-179
-2.23059e-177
2.00826e-179
-1.48269e-177
1.34798e-179
-9.55535e-178
8.7372e-180
-5.96242e-178
5.45781e-180
-3.59434e-178
3.27414e-180
-2.08551e-178
1.8758e-180
-1.15788e-178
1.0193e-180
-6.10787e-179
5.20491e-181
-3.03218e-179
2.47604e-181
-1.40421e-179
1.09053e-181
-6.02857e-180
4.43657e-182
-2.39394e-180
1.67084e-182
-8.8137e-181
5.86642e-183
-3.03114e-181
1.931e-183
-9.79376e-182
5.90802e-184
-2.94524e-182
1.63193e-184
-7.99268e-183
3.94881e-185
-1.89727e-183
8.27798e-186
-3.89737e-184
1.52101e-186
-7.02074e-185
2.48865e-187
-1.12798e-185
3.57205e-188
-1.58705e-186
4.35877e-189
-1.88747e-187
4.4618e-190
-1.87145e-188
3.84041e-191
-1.55151e-189
2.77872e-192
-1.07258e-190
1.68558e-193
-6.1429e-192
8.56857e-195
-2.9019e-193
3.66058e-196
-1.12853e-194
1.32125e-197
-3.60811e-196
4.05717e-199
-9.45019e-198
1.06826e-200
-2.00644e-199
2.43181e-202
-3.35308e-201
4.82607e-204
-4.02015e-203
8.41786e-206
-2.04849e-205
1.38242e-207
3.89629e-210
2.22802e-209
1.67423e-211
3.52349e-211
4.32722e-213
5.46651e-213
9.36348e-215
8.31761e-215
1.83559e-216
1.24072e-216
3.36392e-218
1.81361e-218
5.85304e-220
2.59645e-220
9.75301e-222
3.63848e-222
1.56445e-223
4.98743e-224
2.42348e-225
6.6823e-226
3.63271e-227
8.74409e-228
5.27536e-229
1.11649e-229
7.42629e-231
1.38973e-231
1.01364e-232
1.68455e-233
1.34136e-234
1.9862e-235
1.72026e-236
2.2752e-237
2.1369e-238
2.52871e-239
2.56909e-240
2.72301e-241
2.98656e-242
2.83663e-243
3.35333e-244
2.85391e-245
3.632e-246
2.76814e-247
3.78928e-248
2.58348e-249
3.80203e-250
2.31513e-251
3.66229e-252
1.98749e-253
3.37999e-254
1.63046e-255
2.98237e-256
1.27466e-257
2.50986e-258
9.4677e-260
2.00921e-260
6.65892e-262
1.5255e-262
4.41825e-264
1.09491e-264
2.75398e-266
7.40171e-267
1.60502e-268
4.69327e-269
8.69873e-271
2.77824e-271
4.35695e-273
1.52715e-273
2.00216e-275
7.74683e-276
8.36887e-278
3.60037e-278
3.14906e-280
1.51993e-280
1.05319e-282
5.76845e-283
3.08081e-285
1.94325e-285
7.71889e-288
5.7182e-288
1.60991e-290
1.43932e-290
2.6825e-293
3.01198e-293
3.34665e-296
5.02898e-296
2.77822e-299
6.27891e-299
1.15121e-302
5.20979e-302
8.04922e-309
2.15493e-305
-1.64789e-302
3.10329e-305
-3.96677e-299
7.4828e-302
-4.75857e-296
8.98026e-299
-3.79653e-293
7.15869e-296
-2.26744e-290
4.26642e-293
-1.08176e-287
2.02854e-290
-4.29599e-285
8.01823e-288
-1.46125e-282
2.71105e-285
-4.34726e-280
8.00679e-283
-1.14955e-277
2.09904e-280
-2.73653e-275
4.94718e-278
-5.92567e-273
1.05916e-275
-1.17729e-270
2.07761e-273
-2.1617e-268
3.76109e-271
-3.69136e-266
6.3227e-269
-5.89395e-264
9.92346e-267
-8.84125e-262
1.46095e-264
-1.25121e-259
2.0259e-262
-1.6768e-257
2.65587e-260
-2.13513e-255
3.3024e-258
-2.59102e-253
3.90631e-256
-3.00482e-251
4.40729e-254
-3.33851e-249
4.7543e-252
-3.56181e-247
4.91422e-250
-3.65667e-245
4.87673e-248
-3.61944e-243
4.6546e-246
-3.4603e-241
4.27966e-244
-3.20054e-239
3.79605e-242
-2.86836e-237
3.2524e-240
-2.49439e-235
2.69467e-238
-2.10759e-233
2.16097e-236
-1.73234e-231
1.67867e-234
-1.38674e-229
1.26389e-232
-1.08225e-227
9.22658e-231
-8.24234e-226
6.53136e-229
-6.13129e-224
4.48236e-227
-4.45846e-222
2.98045e-225
-3.17155e-220
1.91785e-223
-2.20851e-218
1.19191e-221
-1.50636e-216
7.13138e-220
-1.00689e-214
4.08665e-218
-6.59857e-213
2.22367e-216
-4.24123e-211
1.13123e-214
-2.67441e-209
5.2145e-213
-1.6548e-207
2.01316e-211
-1.00484e-205
4.68492e-210
-5.74304e-204
-2.45491e-205
-2.8803e-202
-4.8252e-203
-1.25718e-200
-4.0069e-201
-4.73567e-199
-2.38145e-199
-1.52696e-197
-1.1117e-197
-4.18226e-196
-4.19871e-196
-9.66646e-195
-1.29692e-194
-1.87627e-193
-3.28934e-193
-3.05162e-192
-6.86335e-192
-4.16338e-191
-1.18118e-190
-4.7802e-190
-1.6853e-189
-4.61961e-189
-2.00786e-188
-3.74852e-188
-2.00252e-187
-2.59065e-187
-1.66655e-186
-1.57347e-186
-1.17469e-185
-8.51577e-186
-7.26542e-185
-4.03995e-185
-4.01068e-184
-1.66159e-184
-1.94157e-183
-5.99329e-184
-8.13947e-183
-1.95335e-183
-2.98816e-182
-5.92205e-183
-9.90823e-182
-1.68359e-182
-3.06027e-181
-4.46265e-182
-8.88225e-181
-1.09519e-181
-2.4084e-180
-2.48319e-181
-6.05529e-180
-5.2141e-181
-1.4085e-179
-1.02022e-180
-3.038e-179
-1.87631e-180
-6.11434e-179
-3.27336e-180
-1.15838e-178
-5.45434e-180
-2.08534e-178
-8.7293e-180
-3.59263e-178
-1.34656e-179
-5.95802e-178
-2.00603e-179
-9.54696e-178
-2.88949e-179
-1.48132e-177
-4.02762e-179
-2.22862e-177
-5.43702e-179
-3.25459e-177
-7.11394e-179
-4.61835e-177
-9.02724e-179
-6.37524e-177
-1.11169e-178
-8.56931e-177
-1.32951e-178
-1.12284e-176
-1.54481e-178
-1.43604e-176
-1.74439e-178
-1.79472e-176
-1.91414e-178
-2.19431e-176
-2.0401e-178
-2.62755e-176
-2.10974e-178
-3.08449e-176
-2.11294e-178
-3.55305e-176
-2.04306e-178
-4.01958e-176
-1.89759e-178
-4.46951e-176
-1.67653e-178
-4.88831e-176
-1.36838e-178
-5.25631e-176
-8.69333e-179
-5.48335e-176
-9.4834e-180
-4.81566e-176
-1.02588e-188
-8.40646e-177
-2.37326e-185
6.41907e-186
-1.43505e-182
3.26303e-177
-2.74968e-174
2.72767e-176
-1.43371e-173
4.24415e-176
-1.61246e-173
5.2151e-176
-1.55055e-173
5.93616e-176
-1.45098e-173
6.43236e-176
-1.33596e-173
6.69839e-176
-1.21039e-173
6.73772e-176
-1.07827e-173
6.56699e-176
-9.43804e-174
6.21387e-176
-8.11056e-174
5.71448e-176
-6.83685e-174
5.11033e-176
-5.64802e-174
4.44437e-176
-4.56786e-174
3.75823e-176
-3.61278e-174
3.08877e-176
-2.79121e-174
2.46576e-176
-2.10402e-174
1.91083e-176
-1.54581e-174
1.4367e-176
-1.1059e-174
1.04726e-176
-7.69589e-175
7.39565e-177
-5.20424e-175
5.0559e-177
-3.41651e-175
3.34234e-177
-2.17461e-175
2.13245e-177
-1.3391e-175
1.30844e-177
-7.94801e-176
7.67777e-178
-4.52022e-176
4.2788e-178
-2.44589e-176
2.24372e-178
-1.24724e-176
1.09758e-178
-5.94188e-177
4.97855e-179
-2.62857e-177
2.08964e-179
-1.07759e-177
8.13698e-180
-4.10479e-178
2.96234e-180
-1.46468e-178
1.01435e-180
-4.92577e-179
3.23718e-181
-1.54594e-179
9.33858e-182
-4.38391e-180
2.36123e-182
-1.08823e-180
5.17908e-183
-2.34132e-181
9.99029e-184
-4.43335e-182
1.72459e-184
-7.52586e-183
2.61766e-185
-1.12132e-183
3.37467e-186
-1.41089e-184
3.64808e-187
-1.47988e-185
3.32058e-188
-1.30053e-186
2.54207e-189
-9.53871e-188
1.62958e-190
-5.78971e-189
8.73437e-192
-2.89255e-190
3.92314e-193
-1.18661e-191
1.484e-194
-3.99029e-193
4.75919e-196
-1.09587e-194
1.304e-197
-2.43238e-196
3.07769e-199
-4.23927e-198
6.30945e-201
-5.30243e-200
1.13276e-202
-2.90543e-202
1.90614e-204
6.27757e-207
3.14467e-206
2.82968e-208
5.086e-208
7.5216e-210
8.0629e-210
1.66722e-211
1.25262e-211
3.34179e-213
1.90642e-213
6.25408e-215
2.84134e-215
1.11021e-216
4.14497e-217
1.88593e-218
5.91526e-219
3.08187e-220
8.25294e-221
4.8606e-222
1.12491e-222
7.41376e-224
1.4968e-224
1.09495e-225
1.94255e-226
1.56692e-227
2.4566e-228
2.17323e-229
3.02419e-230
2.92104e-231
3.62004e-232
3.8036e-233
4.20851e-234
4.79558e-235
4.74559e-236
5.84991e-237
5.18311e-238
6.89793e-239
5.47483e-240
7.85375e-241
5.58369e-242
8.62343e-243
5.48872e-244
9.1183e-245
5.19022e-246
9.27022e-247
4.71146e-248
9.04574e-249
4.09631e-250
8.45528e-251
3.40262e-252
7.55448e-253
2.69296e-254
6.4363e-255
2.02456e-256
5.21524e-257
1.441e-258
4.00721e-259
9.67403e-261
2.91016e-261
6.10023e-263
1.99025e-263
3.59603e-265
1.27649e-265
1.97103e-267
7.64211e-268
9.98273e-270
4.2478e-270
4.63805e-272
2.17861e-272
1.95981e-274
1.02357e-274