/*--------------------------------*- C++ -*----------------------------------*\
| =========                 |                                                 |
| \\      /  F ield         | OpenFOAM: The Open Source CFD Toolbox           |
|  \\    /   O peration     | Version:  2412                                  |
|   \\  /    A nd           | Website:  www.openfoam.com                      |
|    \\/     M anipulation  |                                                 |
\*---------------------------------------------------------------------------*/
FoamFile
{
    version     2.0;
    format      ascii;
    arch        "LSB;label=32;scalar=64";
    class       volScalarField;
    location    "1.14";
    object      p;
}
// * * * * * * * * * * * * * * * * * * * * * * * * * * * * * * * * * * * * * //

dimensions      [1 -1 -2 0 0 0 0];

internalField   nonuniform List<scalar> 
40000
(
0
-2.59364e-05
-0.000173329
-0.000456251
-0.000876052
-0.00143261
-0.00212525
-0.00295323
-0.00391555
-0.00501123
-0.0062393
-0.00759877
-0.00908854
-0.0107074
-0.012454
-0.0143268
-0.0163244
-0.0184452
-0.0206875
-0.0230497
-0.0255297
-0.0281257
-0.0308356
-0.033657
-0.0365876
-0.039625
-0.0427663
-0.0460091
-0.0493504
-0.0527874
-0.0563173
-0.059937
-0.0636432
-0.067433
-0.0713029
-0.0752496
-0.0792697
-0.0833594
-0.0875152
-0.0917329
-0.0960088
-0.100339
-0.104718
-0.109144
-0.113611
-0.118116
-0.122653
-0.12722
-0.13181
-0.136421
-0.141046
-0.145681
-0.150322
-0.154964
-0.159603
-0.164233
-0.16885
-0.173449
-0.178025
-0.182572
-0.187088
-0.191565
-0.196001
-0.20039
-0.204726
-0.209007
-0.213225
-0.217378
-0.22146
-0.225467
-0.229394
-0.233236
-0.236991
-0.240652
-0.244217
-0.247681
-0.25104
-0.25429
-0.257427
-0.260448
-0.26335
-0.266128
-0.268781
-0.271304
-0.273694
-0.275948
-0.278065
-0.28004
-0.281873
-0.283561
-0.285103
-0.286495
-0.287738
-0.288828
-0.289765
-0.290547
-0.291174
-0.291645
-0.291958
-0.292115
-0.292115
-0.291958
-0.291644
-0.291173
-0.290546
-0.289763
-0.288826
-0.287736
-0.286494
-0.285101
-0.28356
-0.281871
-0.280038
-0.278062
-0.275946
-0.273692
-0.271303
-0.268781
-0.266129
-0.263351
-0.26045
-0.257429
-0.254292
-0.251043
-0.247684
-0.244221
-0.240657
-0.236995
-0.233241
-0.229398
-0.225472
-0.221465
-0.217383
-0.21323
-0.209012
-0.204732
-0.200396
-0.196007
-0.191572
-0.187094
-0.182579
-0.178031
-0.173455
-0.168857
-0.164241
-0.159611
-0.154973
-0.150331
-0.14569
-0.141054
-0.136429
-0.13182
-0.127229
-0.122663
-0.118126
-0.113621
-0.109154
-0.104728
-0.100349
-0.0960192
-0.0917439
-0.0875267
-0.0833715
-0.0792818
-0.0752616
-0.0713145
-0.0674442
-0.0636539
-0.0599472
-0.0563272
-0.0527969
-0.0493594
-0.0460178
-0.042775
-0.0396341
-0.0365973
-0.0336676
-0.0308461
-0.0281364
-0.0255398
-0.0230594
-0.0206967
-0.0184538
-0.0163328
-0.014334
-0.0124604
-0.010713
-0.0090932
-0.00760319
-0.00624304
-0.00501421
-0.00391768
-0.00295377
-0.00212397
-0.00142852
-0.00086785
-0.000441764
-0.000151976
1.00945e-06
2.08035e-05
-3.92398
-3.924
-3.92415
-3.92443
-3.92485
-3.92541
-3.9261
-3.92693
-3.92789
-3.92899
-3.93021
-3.93157
-3.93306
-3.93468
-3.93643
-3.9383
-3.9403
-3.94242
-3.94467
-3.94703
-3.94951
-3.95211
-3.95482
-3.95764
-3.96057
-3.96361
-3.96675
-3.96999
-3.97333
-3.97677
-3.9803
-3.98392
-3.98763
-3.99142
-3.99529
-3.99924
-4.00326
-4.00735
-4.01151
-4.01573
-4.02
-4.02433
-4.02871
-4.03314
-4.03761
-4.04211
-4.04665
-4.05122
-4.05581
-4.06042
-4.06505
-4.06969
-4.07433
-4.07897
-4.08361
-4.08824
-4.09286
-4.09746
-4.10204
-4.10658
-4.1111
-4.11558
-4.12001
-4.1244
-4.12874
-4.13302
-4.13724
-4.14139
-4.14548
-4.14948
-4.15341
-4.15726
-4.16101
-4.16467
-4.16824
-4.1717
-4.17506
-4.17831
-4.18145
-4.18447
-4.18737
-4.19015
-4.1928
-4.19533
-4.19772
-4.19997
-4.20209
-4.20406
-4.2059
-4.20759
-4.20913
-4.21052
-4.21176
-4.21285
-4.21379
-4.21457
-4.2152
-4.21567
-4.21598
-4.21614
-4.21614
-4.21598
-4.21567
-4.2152
-4.21457
-4.21379
-4.21285
-4.21176
-4.21052
-4.20913
-4.20758
-4.2059
-4.20406
-4.20209
-4.19997
-4.19772
-4.19533
-4.1928
-4.19015
-4.18737
-4.18447
-4.18145
-4.17831
-4.17506
-4.17171
-4.16824
-4.16468
-4.16101
-4.15726
-4.15342
-4.14949
-4.14548
-4.1414
-4.13725
-4.13303
-4.12875
-4.12441
-4.12002
-4.11558
-4.11111
-4.10659
-4.10204
-4.09747
-4.09287
-4.08825
-4.08362
-4.07898
-4.07434
-4.06969
-4.06506
-4.06043
-4.05582
-4.05123
-4.04666
-4.04212
-4.03762
-4.03315
-4.02872
-4.02434
-4.02001
-4.01574
-4.01152
-4.00736
-4.00327
-3.99925
-3.9953
-3.99143
-3.98764
-3.98393
-3.98031
-3.97678
-3.97334
-3.97
-3.96676
-3.96362
-3.96058
-3.95765
-3.95483
-3.95212
-3.94952
-3.94704
-3.94467
-3.94243
-3.94031
-3.93831
-3.93644
-3.93469
-3.93307
-3.93158
-3.93022
-3.92899
-3.92789
-3.92693
-3.9261
-3.9254
-3.92484
-3.92442
-3.92413
-3.92398
-3.92396
-7.84783
-7.84785
-7.848
-7.84828
-7.8487
-7.84926
-7.84996
-7.85079
-7.85175
-7.85285
-7.85407
-7.85544
-7.85693
-7.85855
-7.8603
-7.86217
-7.86417
-7.86629
-7.86854
-7.8709
-7.87339
-7.87599
-7.8787
-7.88152
-7.88446
-7.8875
-7.89064
-7.89389
-7.89723
-7.90068
-7.90421
-7.90783
-7.91154
-7.91534
-7.91921
-7.92317
-7.92719
-7.93129
-7.93545
-7.93967
-7.94395
-7.94829
-7.95267
-7.9571
-7.96157
-7.96608
-7.97063
-7.9752
-7.9798
-7.98441
-7.98904
-7.99368
-7.99833
-8.00298
-8.00763
-8.01226
-8.01689
-8.02149
-8.02607
-8.03063
-8.03515
-8.03963
-8.04407
-8.04847
-8.05281
-8.05709
-8.06132
-8.06548
-8.06956
-8.07358
-8.07751
-8.08136
-8.08512
-8.08878
-8.09235
-8.09582
-8.09918
-8.10244
-8.10558
-8.10861
-8.11151
-8.11429
-8.11695
-8.11947
-8.12187
-8.12413
-8.12624
-8.12822
-8.13006
-8.13175
-8.13329
-8.13469
-8.13593
-8.13702
-8.13796
-8.13874
-8.13937
-8.13984
-8.14016
-8.14031
-8.14031
-8.14016
-8.13984
-8.13937
-8.13874
-8.13796
-8.13702
-8.13593
-8.13469
-8.13329
-8.13175
-8.13006
-8.12822
-8.12624
-8.12412
-8.12187
-8.11947
-8.11695
-8.11429
-8.11151
-8.10861
-8.10558
-8.10244
-8.09919
-8.09582
-8.09236
-8.08879
-8.08512
-8.08136
-8.07751
-8.07358
-8.06957
-8.06548
-8.06132
-8.0571
-8.05281
-8.04847
-8.04408
-8.03964
-8.03515
-8.03063
-8.02608
-8.0215
-8.01689
-8.01227
-8.00763
-8.00299
-7.99834
-7.99369
-7.98905
-7.98442
-7.97981
-7.97521
-7.97064
-7.96609
-7.96158
-7.95711
-7.95268
-7.9483
-7.94396
-7.93968
-7.93546
-7.9313
-7.9272
-7.92318
-7.91923
-7.91535
-7.91156
-7.90784
-7.90422
-7.90068
-7.89724
-7.8939
-7.89065
-7.88751
-7.88447
-7.88153
-7.87871
-7.876
-7.8734
-7.87091
-7.86855
-7.8663
-7.86418
-7.86218
-7.8603
-7.85855
-7.85693
-7.85544
-7.85408
-7.85285
-7.85175
-7.85079
-7.84995
-7.84926
-7.8487
-7.84827
-7.84798
-7.84783
-7.84781
-11.7715
-11.7716
-11.7717
-11.772
-11.7724
-11.773
-11.7737
-11.7745
-11.7755
-11.7766
-11.7778
-11.7792
-11.7807
-11.7823
-11.784
-11.7859
-11.7879
-11.79
-11.7923
-11.7947
-11.7971
-11.7998
-11.8025
-11.8053
-11.8082
-11.8113
-11.8144
-11.8177
-11.821
-11.8245
-11.828
-11.8317
-11.8354
-11.8392
-11.8431
-11.847
-11.8511
-11.8552
-11.8593
-11.8636
-11.8678
-11.8722
-11.8766
-11.881
-11.8855
-11.89
-11.8946
-11.8992
-11.9038
-11.9084
-11.913
-11.9177
-11.9223
-11.927
-11.9316
-11.9363
-11.9409
-11.9455
-11.9501
-11.9547
-11.9592
-11.9637
-11.9682
-11.9726
-11.9769
-11.9812
-11.9855
-11.9896
-11.9937
-11.9978
-12.0017
-12.0056
-12.0093
-12.013
-12.0166
-12.0201
-12.0234
-12.0267
-12.0298
-12.0329
-12.0358
-12.0386
-12.0412
-12.0438
-12.0462
-12.0484
-12.0506
-12.0525
-12.0544
-12.0561
-12.0576
-12.059
-12.0603
-12.0614
-12.0623
-12.0631
-12.0637
-12.0642
-12.0645
-12.0647
-12.0647
-12.0645
-12.0642
-12.0637
-12.0631
-12.0623
-12.0614
-12.0603
-12.059
-12.0576
-12.0561
-12.0544
-12.0525
-12.0506
-12.0484
-12.0462
-12.0438
-12.0412
-12.0386
-12.0358
-12.0329
-12.0298
-12.0267
-12.0234
-12.0201
-12.0166
-12.013
-12.0093
-12.0056
-12.0017
-11.9978
-11.9937
-11.9896
-11.9855
-11.9812
-11.9769
-11.9726
-11.9682
-11.9637
-11.9592
-11.9547
-11.9501
-11.9456
-11.9409
-11.9363
-11.9317
-11.927
-11.9223
-11.9177
-11.913
-11.9084
-11.9038
-11.8992
-11.8946
-11.89
-11.8855
-11.881
-11.8766
-11.8722
-11.8679
-11.8636
-11.8593
-11.8552
-11.8511
-11.847
-11.8431
-11.8392
-11.8354
-11.8317
-11.828
-11.8245
-11.821
-11.8177
-11.8144
-11.8113
-11.8082
-11.8053
-11.8025
-11.7998
-11.7972
-11.7947
-11.7923
-11.7901
-11.7879
-11.7859
-11.784
-11.7823
-11.7807
-11.7792
-11.7778
-11.7766
-11.7755
-11.7745
-11.7737
-11.773
-11.7724
-11.772
-11.7717
-11.7716
-11.7715
-15.6951
-15.6952
-15.6953
-15.6956
-15.696
-15.6966
-15.6973
-15.6981
-15.6991
-15.7002
-15.7014
-15.7028
-15.7043
-15.7059
-15.7077
-15.7095
-15.7115
-15.7137
-15.7159
-15.7183
-15.7208
-15.7234
-15.7261
-15.729
-15.7319
-15.735
-15.7381
-15.7414
-15.7447
-15.7482
-15.7518
-15.7554
-15.7591
-15.7629
-15.7668
-15.7708
-15.7748
-15.779
-15.7831
-15.7874
-15.7917
-15.796
-15.8004
-15.8049
-15.8094
-15.8139
-15.8185
-15.8231
-15.8277
-15.8323
-15.837
-15.8417
-15.8463
-15.851
-15.8557
-15.8603
-15.865
-15.8696
-15.8742
-15.8788
-15.8834
-15.8879
-15.8923
-15.8968
-15.9011
-15.9054
-15.9097
-15.9139
-15.918
-15.922
-15.926
-15.9298
-15.9336
-15.9373
-15.9409
-15.9444
-15.9478
-15.9511
-15.9542
-15.9573
-15.9602
-15.963
-15.9657
-15.9682
-15.9706
-15.9729
-15.975
-15.977
-15.9788
-15.9805
-15.9821
-15.9835
-15.9848
-15.9859
-15.9868
-15.9876
-15.9882
-15.9887
-15.989
-15.9892
-15.9892
-15.989
-15.9887
-15.9882
-15.9876
-15.9868
-15.9859
-15.9848
-15.9835
-15.9821
-15.9805
-15.9788
-15.977
-15.975
-15.9729
-15.9706
-15.9682
-15.9657
-15.963
-15.9602
-15.9573
-15.9542
-15.9511
-15.9478
-15.9444
-15.9409
-15.9373
-15.9336
-15.9298
-15.926
-15.922
-15.918
-15.9139
-15.9097
-15.9054
-15.9011
-15.8968
-15.8923
-15.8879
-15.8834
-15.8788
-15.8742
-15.8696
-15.865
-15.8604
-15.8557
-15.851
-15.8463
-15.8417
-15.837
-15.8324
-15.8277
-15.8231
-15.8185
-15.8139
-15.8094
-15.8049
-15.8005
-15.796
-15.7917
-15.7874
-15.7831
-15.779
-15.7749
-15.7708
-15.7668
-15.7629
-15.7591
-15.7554
-15.7518
-15.7482
-15.7448
-15.7414
-15.7381
-15.735
-15.7319
-15.729
-15.7261
-15.7234
-15.7208
-15.7183
-15.7159
-15.7137
-15.7116
-15.7095
-15.7077
-15.7059
-15.7043
-15.7028
-15.7014
-15.7002
-15.6991
-15.6981
-15.6973
-15.6966
-15.696
-15.6956
-15.6953
-15.6951
-15.6951
-19.6186
-19.6186
-19.6188
-19.619
-19.6195
-19.62
-19.6207
-19.6216
-19.6225
-19.6236
-19.6249
-19.6263
-19.6278
-19.6294
-19.6311
-19.633
-19.6351
-19.6372
-19.6395
-19.6418
-19.6443
-19.647
-19.6497
-19.6525
-19.6555
-19.6586
-19.6617
-19.665
-19.6684
-19.6718
-19.6754
-19.679
-19.6828
-19.6866
-19.6905
-19.6945
-19.6986
-19.7027
-19.7069
-19.7111
-19.7155
-19.7198
-19.7243
-19.7287
-19.7332
-19.7378
-19.7424
-19.747
-19.7516
-19.7563
-19.761
-19.7656
-19.7703
-19.775
-19.7797
-19.7844
-19.7891
-19.7937
-19.7984
-19.803
-19.8075
-19.812
-19.8165
-19.821
-19.8254
-19.8297
-19.834
-19.8382
-19.8423
-19.8464
-19.8503
-19.8542
-19.858
-19.8617
-19.8653
-19.8688
-19.8722
-19.8755
-19.8787
-19.8818
-19.8847
-19.8875
-19.8902
-19.8928
-19.8952
-19.8975
-19.8996
-19.9016
-19.9035
-19.9052
-19.9067
-19.9082
-19.9094
-19.9105
-19.9115
-19.9123
-19.9129
-19.9134
-19.9137
-19.9138
-19.9138
-19.9137
-19.9134
-19.9129
-19.9123
-19.9115
-19.9105
-19.9094
-19.9082
-19.9067
-19.9052
-19.9035
-19.9016
-19.8996
-19.8975
-19.8952
-19.8928
-19.8902
-19.8875
-19.8847
-19.8818
-19.8787
-19.8755
-19.8722
-19.8688
-19.8653
-19.8617
-19.858
-19.8542
-19.8503
-19.8464
-19.8423
-19.8382
-19.834
-19.8297
-19.8254
-19.821
-19.8165
-19.8121
-19.8075
-19.803
-19.7984
-19.7937
-19.7891
-19.7844
-19.7797
-19.775
-19.7704
-19.7657
-19.761
-19.7563
-19.7516
-19.747
-19.7424
-19.7378
-19.7333
-19.7287
-19.7243
-19.7198
-19.7155
-19.7112
-19.7069
-19.7027
-19.6986
-19.6945
-19.6905
-19.6866
-19.6828
-19.6791
-19.6754
-19.6718
-19.6684
-19.665
-19.6617
-19.6586
-19.6555
-19.6525
-19.6497
-19.647
-19.6443
-19.6418
-19.6395
-19.6372
-19.6351
-19.633
-19.6312
-19.6294
-19.6278
-19.6263
-19.6249
-19.6236
-19.6225
-19.6216
-19.6207
-19.62
-19.6195
-19.619
-19.6187
-19.6186
-19.6186
-23.5419
-23.5419
-23.5421
-23.5424
-23.5428
-23.5434
-23.5441
-23.5449
-23.5459
-23.547
-23.5482
-23.5496
-23.5511
-23.5528
-23.5545
-23.5564
-23.5584
-23.5606
-23.5629
-23.5652
-23.5678
-23.5704
-23.5731
-23.576
-23.579
-23.582
-23.5852
-23.5885
-23.5919
-23.5954
-23.5989
-23.6026
-23.6064
-23.6102
-23.6141
-23.6181
-23.6222
-23.6264
-23.6306
-23.6349
-23.6392
-23.6436
-23.648
-23.6525
-23.6571
-23.6616
-23.6662
-23.6709
-23.6755
-23.6802
-23.6849
-23.6896
-23.6943
-23.6991
-23.7038
-23.7085
-23.7132
-23.7178
-23.7225
-23.7271
-23.7317
-23.7363
-23.7408
-23.7453
-23.7497
-23.754
-23.7583
-23.7625
-23.7667
-23.7708
-23.7748
-23.7787
-23.7825
-23.7862
-23.7899
-23.7934
-23.7968
-23.8001
-23.8033
-23.8064
-23.8094
-23.8122
-23.8149
-23.8175
-23.8199
-23.8222
-23.8244
-23.8264
-23.8282
-23.83
-23.8315
-23.833
-23.8342
-23.8353
-23.8363
-23.8371
-23.8377
-23.8382
-23.8385
-23.8387
-23.8387
-23.8385
-23.8382
-23.8377
-23.8371
-23.8363
-23.8353
-23.8342
-23.833
-23.8315
-23.83
-23.8282
-23.8264
-23.8244
-23.8222
-23.8199
-23.8175
-23.8149
-23.8122
-23.8094
-23.8064
-23.8033
-23.8001
-23.7968
-23.7934
-23.7899
-23.7862
-23.7825
-23.7787
-23.7748
-23.7708
-23.7667
-23.7625
-23.7583
-23.754
-23.7497
-23.7453
-23.7408
-23.7363
-23.7317
-23.7271
-23.7225
-23.7179
-23.7132
-23.7085
-23.7038
-23.6991
-23.6944
-23.6896
-23.6849
-23.6802
-23.6755
-23.6709
-23.6662
-23.6616
-23.6571
-23.6525
-23.648
-23.6436
-23.6392
-23.6349
-23.6306
-23.6264
-23.6222
-23.6182
-23.6141
-23.6102
-23.6064
-23.6026
-23.599
-23.5954
-23.5919
-23.5885
-23.5852
-23.582
-23.579
-23.576
-23.5731
-23.5704
-23.5678
-23.5653
-23.5629
-23.5606
-23.5584
-23.5564
-23.5545
-23.5528
-23.5511
-23.5496
-23.5482
-23.547
-23.5459
-23.5449
-23.5441
-23.5434
-23.5428
-23.5424
-23.5421
-23.5419
-23.5419
-27.4651
-27.4651
-27.4653
-27.4656
-27.466
-27.4666
-27.4673
-27.4681
-27.4691
-27.4702
-27.4715
-27.4728
-27.4743
-27.476
-27.4778
-27.4797
-27.4817
-27.4839
-27.4861
-27.4885
-27.4911
-27.4937
-27.4965
-27.4993
-27.5023
-27.5054
-27.5086
-27.5119
-27.5153
-27.5188
-27.5224
-27.5261
-27.5299
-27.5337
-27.5377
-27.5417
-27.5458
-27.55
-27.5542
-27.5585
-27.5629
-27.5673
-27.5718
-27.5763
-27.5808
-27.5854
-27.5901
-27.5947
-27.5994
-27.6041
-27.6089
-27.6136
-27.6183
-27.6231
-27.6278
-27.6326
-27.6373
-27.642
-27.6467
-27.6513
-27.656
-27.6605
-27.6651
-27.6696
-27.674
-27.6784
-27.6827
-27.687
-27.6912
-27.6953
-27.6993
-27.7032
-27.7071
-27.7109
-27.7145
-27.7181
-27.7215
-27.7249
-27.7281
-27.7312
-27.7342
-27.737
-27.7397
-27.7423
-27.7448
-27.7471
-27.7493
-27.7513
-27.7532
-27.7549
-27.7565
-27.7579
-27.7592
-27.7603
-27.7613
-27.7621
-27.7627
-27.7632
-27.7635
-27.7637
-27.7637
-27.7635
-27.7632
-27.7627
-27.7621
-27.7613
-27.7603
-27.7592
-27.7579
-27.7565
-27.7549
-27.7532
-27.7513
-27.7493
-27.7471
-27.7448
-27.7423
-27.7397
-27.737
-27.7342
-27.7312
-27.7281
-27.7249
-27.7215
-27.7181
-27.7145
-27.7109
-27.7071
-27.7033
-27.6993
-27.6953
-27.6912
-27.687
-27.6827
-27.6784
-27.674
-27.6696
-27.6651
-27.6605
-27.656
-27.6513
-27.6467
-27.642
-27.6373
-27.6326
-27.6278
-27.6231
-27.6184
-27.6136
-27.6089
-27.6041
-27.5994
-27.5947
-27.5901
-27.5854
-27.5808
-27.5763
-27.5718
-27.5673
-27.5629
-27.5585
-27.5542
-27.55
-27.5458
-27.5417
-27.5377
-27.5337
-27.5299
-27.5261
-27.5224
-27.5188
-27.5153
-27.5119
-27.5086
-27.5054
-27.5023
-27.4993
-27.4965
-27.4937
-27.4911
-27.4886
-27.4862
-27.4839
-27.4817
-27.4797
-27.4778
-27.476
-27.4744
-27.4728
-27.4715
-27.4702
-27.4691
-27.4681
-27.4673
-27.4666
-27.466
-27.4656
-27.4653
-27.4651
-27.4651
-31.3881
-31.3882
-31.3883
-31.3886
-31.3891
-31.3896
-31.3903
-31.3912
-31.3922
-31.3933
-31.3945
-31.3959
-31.3975
-31.3991
-31.4009
-31.4028
-31.4049
-31.407
-31.4093
-31.4117
-31.4143
-31.4169
-31.4197
-31.4226
-31.4256
-31.4287
-31.4319
-31.4352
-31.4386
-31.4422
-31.4458
-31.4495
-31.4533
-31.4572
-31.4611
-31.4652
-31.4693
-31.4735
-31.4778
-31.4821
-31.4865
-31.4909
-31.4954
-31.5
-31.5046
-31.5092
-31.5139
-31.5186
-31.5233
-31.528
-31.5328
-31.5376
-31.5423
-31.5471
-31.5519
-31.5567
-31.5614
-31.5662
-31.5709
-31.5756
-31.5802
-31.5849
-31.5894
-31.594
-31.5984
-31.6029
-31.6072
-31.6115
-31.6157
-31.6199
-31.6239
-31.6279
-31.6318
-31.6356
-31.6393
-31.6428
-31.6463
-31.6497
-31.6529
-31.6561
-31.6591
-31.6619
-31.6647
-31.6673
-31.6698
-31.6721
-31.6743
-31.6764
-31.6783
-31.68
-31.6816
-31.6831
-31.6843
-31.6855
-31.6865
-31.6873
-31.6879
-31.6884
-31.6887
-31.6889
-31.6889
-31.6887
-31.6884
-31.6879
-31.6873
-31.6865
-31.6855
-31.6843
-31.6831
-31.6816
-31.68
-31.6783
-31.6764
-31.6743
-31.6721
-31.6698
-31.6673
-31.6647
-31.662
-31.6591
-31.6561
-31.6529
-31.6497
-31.6463
-31.6428
-31.6393
-31.6356
-31.6318
-31.6279
-31.6239
-31.6199
-31.6157
-31.6115
-31.6072
-31.6029
-31.5984
-31.594
-31.5894
-31.5849
-31.5802
-31.5756
-31.5709
-31.5662
-31.5614
-31.5567
-31.5519
-31.5471
-31.5423
-31.5376
-31.5328
-31.528
-31.5233
-31.5186
-31.5139
-31.5092
-31.5046
-31.5
-31.4954
-31.491
-31.4865
-31.4821
-31.4778
-31.4735
-31.4693
-31.4652
-31.4612
-31.4572
-31.4533
-31.4495
-31.4458
-31.4422
-31.4387
-31.4352
-31.4319
-31.4287
-31.4256
-31.4226
-31.4197
-31.4169
-31.4143
-31.4117
-31.4093
-31.407
-31.4049
-31.4028
-31.4009
-31.3991
-31.3975
-31.3959
-31.3945
-31.3933
-31.3922
-31.3912
-31.3903
-31.3896
-31.3891
-31.3886
-31.3883
-31.3882
-31.3881
-35.3111
-35.3111
-35.3112
-35.3115
-35.312
-35.3126
-35.3133
-35.3141
-35.3151
-35.3162
-35.3175
-35.3189
-35.3204
-35.3221
-35.3239
-35.3258
-35.3279
-35.3301
-35.3324
-35.3348
-35.3373
-35.34
-35.3428
-35.3457
-35.3487
-35.3519
-35.3551
-35.3584
-35.3619
-35.3654
-35.3691
-35.3728
-35.3766
-35.3805
-35.3845
-35.3886
-35.3928
-35.397
-35.4013
-35.4056
-35.4101
-35.4145
-35.4191
-35.4237
-35.4283
-35.4329
-35.4376
-35.4424
-35.4471
-35.4519
-35.4567
-35.4615
-35.4663
-35.4712
-35.476
-35.4808
-35.4856
-35.4904
-35.4951
-35.4998
-35.5045
-35.5092
-35.5138
-35.5184
-35.5229
-35.5274
-35.5318
-35.5361
-35.5404
-35.5445
-35.5486
-35.5526
-35.5566
-35.5604
-35.5641
-35.5677
-35.5712
-35.5746
-35.5779
-35.5811
-35.5841
-35.587
-35.5898
-35.5924
-35.5949
-35.5973
-35.5995
-35.6016
-35.6035
-35.6053
-35.6069
-35.6084
-35.6097
-35.6108
-35.6118
-35.6126
-35.6133
-35.6138
-35.6141
-35.6142
-35.6142
-35.6141
-35.6138
-35.6133
-35.6126
-35.6118
-35.6108
-35.6097
-35.6084
-35.6069
-35.6053
-35.6035
-35.6016
-35.5995
-35.5973
-35.5949
-35.5924
-35.5898
-35.587
-35.5841
-35.5811
-35.5779
-35.5746
-35.5712
-35.5677
-35.5641
-35.5604
-35.5566
-35.5527
-35.5486
-35.5445
-35.5404
-35.5361
-35.5318
-35.5274
-35.5229
-35.5184
-35.5138
-35.5092
-35.5046
-35.4999
-35.4951
-35.4904
-35.4856
-35.4808
-35.476
-35.4712
-35.4663
-35.4615
-35.4567
-35.4519
-35.4471
-35.4424
-35.4377
-35.433
-35.4283
-35.4237
-35.4191
-35.4146
-35.4101
-35.4057
-35.4013
-35.397
-35.3928
-35.3886
-35.3845
-35.3805
-35.3766
-35.3728
-35.3691
-35.3654
-35.3619
-35.3585
-35.3551
-35.3519
-35.3487
-35.3457
-35.3428
-35.34
-35.3374
-35.3348
-35.3324
-35.3301
-35.3279
-35.3258
-35.3239
-35.3221
-35.3204
-35.3189
-35.3175
-35.3162
-35.3151
-35.3141
-35.3133
-35.3126
-35.312
-35.3115
-35.3113
-35.3111
-35.3111
-39.2339
-39.2339
-39.234
-39.2343
-39.2348
-39.2354
-39.2361
-39.2369
-39.2379
-39.2391
-39.2403
-39.2417
-39.2433
-39.245
-39.2468
-39.2487
-39.2508
-39.253
-39.2553
-39.2577
-39.2603
-39.263
-39.2658
-39.2687
-39.2718
-39.2749
-39.2782
-39.2816
-39.285
-39.2886
-39.2923
-39.296
-39.2999
-39.3038
-39.3078
-39.312
-39.3161
-39.3204
-39.3247
-39.3291
-39.3336
-39.3381
-39.3427
-39.3473
-39.3519
-39.3566
-39.3614
-39.3662
-39.371
-39.3758
-39.3806
-39.3855
-39.3903
-39.3952
-39.4001
-39.4049
-39.4098
-39.4146
-39.4194
-39.4242
-39.4289
-39.4336
-39.4383
-39.4429
-39.4474
-39.452
-39.4564
-39.4608
-39.4651
-39.4693
-39.4734
-39.4775
-39.4815
-39.4853
-39.4891
-39.4927
-39.4963
-39.4997
-39.503
-39.5062
-39.5093
-39.5122
-39.5151
-39.5177
-39.5203
-39.5226
-39.5249
-39.527
-39.5289
-39.5307
-39.5323
-39.5338
-39.5351
-39.5363
-39.5373
-39.5381
-39.5388
-39.5393
-39.5396
-39.5398
-39.5398
-39.5396
-39.5393
-39.5388
-39.5381
-39.5373
-39.5363
-39.5351
-39.5338
-39.5323
-39.5307
-39.5289
-39.527
-39.5249
-39.5226
-39.5203
-39.5177
-39.5151
-39.5122
-39.5093
-39.5062
-39.503
-39.4997
-39.4963
-39.4927
-39.4891
-39.4853
-39.4815
-39.4775
-39.4734
-39.4693
-39.4651
-39.4608
-39.4564
-39.452
-39.4475
-39.4429
-39.4383
-39.4336
-39.4289
-39.4242
-39.4194
-39.4146
-39.4098
-39.4049
-39.4001
-39.3952
-39.3903
-39.3855
-39.3806
-39.3758
-39.371
-39.3662
-39.3614
-39.3567
-39.3519
-39.3473
-39.3427
-39.3381
-39.3336
-39.3291
-39.3247
-39.3204
-39.3161
-39.312
-39.3079
-39.3038
-39.2999
-39.296
-39.2923
-39.2886
-39.285
-39.2816
-39.2782
-39.2749
-39.2718
-39.2688
-39.2658
-39.263
-39.2603
-39.2578
-39.2553
-39.253
-39.2508
-39.2487
-39.2468
-39.245
-39.2433
-39.2418
-39.2403
-39.2391
-39.2379
-39.2369
-39.2361
-39.2354
-39.2348
-39.2343
-39.234
-39.2339
-39.2339
-43.1565
-43.1565
-43.1567
-43.157
-43.1574
-43.158
-43.1587
-43.1596
-43.1606
-43.1618
-43.163
-43.1645
-43.166
-43.1677
-43.1695
-43.1715
-43.1736
-43.1758
-43.1781
-43.1806
-43.1832
-43.1859
-43.1887
-43.1917
-43.1947
-43.1979
-43.2012
-43.2046
-43.2081
-43.2117
-43.2154
-43.2192
-43.223
-43.227
-43.2311
-43.2352
-43.2394
-43.2437
-43.2481
-43.2525
-43.257
-43.2616
-43.2662
-43.2709
-43.2756
-43.2803
-43.2851
-43.2899
-43.2948
-43.2996
-43.3045
-43.3094
-43.3143
-43.3192
-43.3241
-43.3291
-43.3339
-43.3388
-43.3437
-43.3485
-43.3533
-43.358
-43.3628
-43.3674
-43.372
-43.3766
-43.3811
-43.3855
-43.3899
-43.3941
-43.3983
-43.4024
-43.4064
-43.4103
-43.4142
-43.4179
-43.4215
-43.4249
-43.4283
-43.4315
-43.4346
-43.4376
-43.4404
-43.4431
-43.4457
-43.4481
-43.4504
-43.4525
-43.4545
-43.4563
-43.458
-43.4594
-43.4608
-43.4619
-43.463
-43.4638
-43.4645
-43.465
-43.4653
-43.4655
-43.4655
-43.4653
-43.465
-43.4645
-43.4638
-43.463
-43.4619
-43.4608
-43.4594
-43.458
-43.4563
-43.4545
-43.4525
-43.4504
-43.4481
-43.4457
-43.4431
-43.4404
-43.4376
-43.4346
-43.4315
-43.4283
-43.4249
-43.4215
-43.4179
-43.4142
-43.4103
-43.4064
-43.4024
-43.3983
-43.3941
-43.3899
-43.3855
-43.3811
-43.3766
-43.372
-43.3674
-43.3628
-43.3581
-43.3533
-43.3485
-43.3437
-43.3388
-43.3339
-43.3291
-43.3242
-43.3192
-43.3143
-43.3094
-43.3045
-43.2996
-43.2948
-43.2899
-43.2851
-43.2803
-43.2756
-43.2709
-43.2662
-43.2616
-43.257
-43.2525
-43.2481
-43.2437
-43.2394
-43.2352
-43.2311
-43.227
-43.2231
-43.2192
-43.2154
-43.2117
-43.2081
-43.2046
-43.2012
-43.1979
-43.1947
-43.1917
-43.1887
-43.1859
-43.1832
-43.1806
-43.1781
-43.1758
-43.1736
-43.1715
-43.1695
-43.1677
-43.166
-43.1645
-43.163
-43.1618
-43.1606
-43.1596
-43.1588
-43.158
-43.1574
-43.157
-43.1567
-43.1565
-43.1565
-47.079
-47.0791
-47.0792
-47.0795
-47.08
-47.0806
-47.0813
-47.0822
-47.0832
-47.0843
-47.0856
-47.087
-47.0886
-47.0903
-47.0921
-47.0941
-47.0962
-47.0984
-47.1008
-47.1033
-47.1059
-47.1086
-47.1115
-47.1145
-47.1175
-47.1208
-47.1241
-47.1275
-47.131
-47.1346
-47.1384
-47.1422
-47.1461
-47.1501
-47.1542
-47.1584
-47.1627
-47.167
-47.1714
-47.1759
-47.1804
-47.185
-47.1897
-47.1944
-47.1991
-47.2039
-47.2088
-47.2136
-47.2185
-47.2235
-47.2284
-47.2333
-47.2383
-47.2433
-47.2482
-47.2532
-47.2582
-47.2631
-47.268
-47.2729
-47.2777
-47.2825
-47.2873
-47.292
-47.2967
-47.3013
-47.3059
-47.3103
-47.3147
-47.3191
-47.3233
-47.3275
-47.3315
-47.3355
-47.3393
-47.3431
-47.3467
-47.3503
-47.3537
-47.3569
-47.3601
-47.3631
-47.366
-47.3687
-47.3713
-47.3738
-47.3761
-47.3782
-47.3802
-47.3821
-47.3837
-47.3852
-47.3866
-47.3878
-47.3888
-47.3897
-47.3903
-47.3909
-47.3912
-47.3914
-47.3914
-47.3912
-47.3909
-47.3903
-47.3897
-47.3888
-47.3878
-47.3866
-47.3852
-47.3837
-47.3821
-47.3802
-47.3782
-47.3761
-47.3738
-47.3713
-47.3687
-47.366
-47.3631
-47.3601
-47.3569
-47.3537
-47.3503
-47.3467
-47.3431
-47.3393
-47.3355
-47.3315
-47.3275
-47.3233
-47.3191
-47.3147
-47.3103
-47.3059
-47.3013
-47.2967
-47.292
-47.2873
-47.2825
-47.2777
-47.2729
-47.268
-47.2631
-47.2582
-47.2532
-47.2483
-47.2433
-47.2383
-47.2334
-47.2284
-47.2235
-47.2185
-47.2137
-47.2088
-47.2039
-47.1992
-47.1944
-47.1897
-47.185
-47.1804
-47.1759
-47.1714
-47.167
-47.1627
-47.1584
-47.1542
-47.1501
-47.1461
-47.1422
-47.1384
-47.1347
-47.131
-47.1275
-47.1241
-47.1208
-47.1176
-47.1145
-47.1115
-47.1086
-47.1059
-47.1033
-47.1008
-47.0985
-47.0962
-47.0941
-47.0921
-47.0903
-47.0886
-47.087
-47.0856
-47.0843
-47.0832
-47.0822
-47.0813
-47.0806
-47.08
-47.0795
-47.0792
-47.0791
-47.079
-51.0014
-51.0014
-51.0016
-51.0019
-51.0024
-51.0029
-51.0037
-51.0046
-51.0056
-51.0067
-51.008
-51.0095
-51.0111
-51.0128
-51.0146
-51.0166
-51.0187
-51.021
-51.0234
-51.0259
-51.0285
-51.0313
-51.0342
-51.0372
-51.0403
-51.0435
-51.0468
-51.0503
-51.0539
-51.0575
-51.0613
-51.0652
-51.0691
-51.0732
-51.0773
-51.0815
-51.0858
-51.0902
-51.0947
-51.0992
-51.1038
-51.1084
-51.1131
-51.1179
-51.1227
-51.1275
-51.1324
-51.1373
-51.1423
-51.1473
-51.1523
-51.1573
-51.1623
-51.1673
-51.1723
-51.1774
-51.1824
-51.1874
-51.1923
-51.1973
-51.2022
-51.2071
-51.2119
-51.2167
-51.2214
-51.2261
-51.2307
-51.2352
-51.2397
-51.2441
-51.2484
-51.2526
-51.2567
-51.2607
-51.2646
-51.2684
-51.2721
-51.2757
-51.2792
-51.2825
-51.2857
-51.2887
-51.2917
-51.2944
-51.2971
-51.2996
-51.3019
-51.3041
-51.3061
-51.308
-51.3097
-51.3112
-51.3126
-51.3138
-51.3148
-51.3157
-51.3164
-51.3169
-51.3173
-51.3174
-51.3174
-51.3173
-51.3169
-51.3164
-51.3157
-51.3148
-51.3138
-51.3126
-51.3112
-51.3097
-51.308
-51.3061
-51.3041
-51.3019
-51.2996
-51.2971
-51.2944
-51.2917
-51.2887
-51.2857
-51.2825
-51.2792
-51.2757
-51.2721
-51.2684
-51.2646
-51.2607
-51.2567
-51.2526
-51.2484
-51.2441
-51.2397
-51.2352
-51.2307
-51.2261
-51.2214
-51.2167
-51.2119
-51.2071
-51.2022
-51.1973
-51.1923
-51.1874
-51.1824
-51.1774
-51.1724
-51.1673
-51.1623
-51.1573
-51.1523
-51.1473
-51.1423
-51.1374
-51.1324
-51.1275
-51.1227
-51.1179
-51.1131
-51.1084
-51.1038
-51.0992
-51.0947
-51.0902
-51.0858
-51.0815
-51.0773
-51.0732
-51.0691
-51.0652
-51.0613
-51.0575
-51.0539
-51.0503
-51.0469
-51.0435
-51.0403
-51.0372
-51.0342
-51.0313
-51.0285
-51.0259
-51.0234
-51.021
-51.0187
-51.0166
-51.0146
-51.0128
-51.0111
-51.0095
-51.0081
-51.0068
-51.0056
-51.0046
-51.0037
-51.003
-51.0024
-51.0019
-51.0016
-51.0014
-51.0014
-54.9237
-54.9237
-54.9238
-54.9242
-54.9246
-54.9252
-54.9259
-54.9268
-54.9279
-54.929
-54.9303
-54.9318
-54.9334
-54.9351
-54.937
-54.939
-54.9411
-54.9434
-54.9458
-54.9484
-54.951
-54.9538
-54.9567
-54.9597
-54.9629
-54.9661
-54.9695
-54.973
-54.9766
-54.9803
-54.9841
-54.988
-54.992
-54.9961
-55.0003
-55.0046
-55.0089
-55.0133
-55.0178
-55.0224
-55.027
-55.0317
-55.0365
-55.0413
-55.0462
-55.0511
-55.056
-55.061
-55.066
-55.0711
-55.0761
-55.0812
-55.0863
-55.0914
-55.0965
-55.1015
-55.1066
-55.1117
-55.1167
-55.1217
-55.1267
-55.1316
-55.1365
-55.1414
-55.1462
-55.1509
-55.1556
-55.1602
-55.1647
-55.1692
-55.1735
-55.1778
-55.182
-55.1861
-55.19
-55.1939
-55.1977
-55.2013
-55.2048
-55.2082
-55.2114
-55.2145
-55.2175
-55.2203
-55.223
-55.2255
-55.2279
-55.2301
-55.2322
-55.2341
-55.2358
-55.2374
-55.2388
-55.24
-55.241
-55.2419
-55.2426
-55.2431
-55.2435
-55.2437
-55.2437
-55.2435
-55.2431
-55.2426
-55.2419
-55.241
-55.24
-55.2388
-55.2374
-55.2358
-55.2341
-55.2322
-55.2301
-55.2279
-55.2255
-55.223
-55.2203
-55.2175
-55.2145
-55.2114
-55.2082
-55.2048
-55.2013
-55.1977
-55.1939
-55.19
-55.1861
-55.182
-55.1778
-55.1735
-55.1692
-55.1647
-55.1602
-55.1556
-55.1509
-55.1462
-55.1414
-55.1365
-55.1316
-55.1267
-55.1217
-55.1167
-55.1117
-55.1066
-55.1016
-55.0965
-55.0914
-55.0863
-55.0812
-55.0761
-55.0711
-55.066
-55.061
-55.056
-55.0511
-55.0462
-55.0413
-55.0365
-55.0318
-55.0271
-55.0224
-55.0178
-55.0133
-55.0089
-55.0046
-55.0003
-54.9961
-54.992
-54.988
-54.9841
-54.9803
-54.9766
-54.973
-54.9695
-54.9662
-54.9629
-54.9597
-54.9567
-54.9538
-54.951
-54.9484
-54.9458
-54.9434
-54.9412
-54.939
-54.937
-54.9351
-54.9334
-54.9318
-54.9304
-54.929
-54.9279
-54.9268
-54.926
-54.9252
-54.9246
-54.9242
-54.9238
-54.9237
-54.9237
-58.8458
-58.8458
-58.8459
-58.8463
-58.8467
-58.8473
-58.8481
-58.849
-58.85
-58.8512
-58.8525
-58.854
-58.8556
-58.8573
-58.8592
-58.8613
-58.8634
-58.8657
-58.8681
-58.8707
-58.8734
-58.8762
-58.8791
-58.8822
-58.8854
-58.8887
-58.8921
-58.8956
-58.8993
-58.903
-58.9068
-58.9108
-58.9148
-58.919
-58.9232
-58.9275
-58.9319
-58.9364
-58.9409
-58.9456
-58.9503
-58.955
-58.9598
-58.9647
-58.9696
-58.9746
-58.9796
-58.9847
-58.9897
-58.9948
-59
-59.0051
-59.0103
-59.0154
-59.0206
-59.0257
-59.0309
-59.036
-59.0411
-59.0462
-59.0512
-59.0563
-59.0612
-59.0662
-59.071
-59.0758
-59.0806
-59.0853
-59.0899
-59.0944
-59.0988
-59.1031
-59.1074
-59.1115
-59.1156
-59.1195
-59.1233
-59.127
-59.1306
-59.134
-59.1373
-59.1405
-59.1435
-59.1463
-59.1491
-59.1516
-59.1541
-59.1563
-59.1584
-59.1603
-59.1621
-59.1637
-59.1651
-59.1664
-59.1674
-59.1683
-59.169
-59.1696
-59.1699
-59.1701
-59.1701
-59.1699
-59.1696
-59.169
-59.1683
-59.1674
-59.1664
-59.1651
-59.1637
-59.1621
-59.1603
-59.1584
-59.1563
-59.1541
-59.1516
-59.1491
-59.1463
-59.1435
-59.1405
-59.1373
-59.134
-59.1306
-59.127
-59.1233
-59.1195
-59.1156
-59.1115
-59.1074
-59.1031
-59.0988
-59.0944
-59.0899
-59.0853
-59.0806
-59.0758
-59.071
-59.0662
-59.0612
-59.0563
-59.0513
-59.0462
-59.0411
-59.036
-59.0309
-59.0257
-59.0206
-59.0154
-59.0103
-59.0051
-59
-58.9949
-58.9897
-58.9847
-58.9796
-58.9746
-58.9696
-58.9647
-58.9599
-58.955
-58.9503
-58.9456
-58.941
-58.9364
-58.9319
-58.9275
-58.9232
-58.919
-58.9148
-58.9108
-58.9068
-58.903
-58.8993
-58.8956
-58.8921
-58.8887
-58.8854
-58.8822
-58.8791
-58.8762
-58.8734
-58.8707
-58.8681
-58.8657
-58.8634
-58.8613
-58.8592
-58.8574
-58.8556
-58.854
-58.8525
-58.8512
-58.85
-58.849
-58.8481
-58.8473
-58.8467
-58.8463
-58.846
-58.8458
-58.8458
-62.7677
-62.7677
-62.7679
-62.7682
-62.7687
-62.7693
-62.7701
-62.771
-62.772
-62.7732
-62.7745
-62.776
-62.7777
-62.7794
-62.7813
-62.7834
-62.7856
-62.7879
-62.7903
-62.7929
-62.7956
-62.7985
-62.8015
-62.8045
-62.8078
-62.8111
-62.8145
-62.8181
-62.8218
-62.8256
-62.8295
-62.8335
-62.8376
-62.8417
-62.846
-62.8504
-62.8548
-62.8594
-62.864
-62.8687