/*--------------------------------*- C++ -*----------------------------------*\
| =========                 |                                                 |
| \\      /  F ield         | OpenFOAM: The Open Source CFD Toolbox           |
|  \\    /   O peration     | Version:  2412                                  |
|   \\  /    A nd           | Website:  www.openfoam.com                      |
|    \\/     M anipulation  |                                                 |
\*---------------------------------------------------------------------------*/
FoamFile
{
    version     2.0;
    format      ascii;
    arch        "LSB;label=32;scalar=64";
    class       volScalarField;
    location    "1.14";
    object      p_rgh;
}
// * * * * * * * * * * * * * * * * * * * * * * * * * * * * * * * * * * * * * //

dimensions      [1 -1 -2 0 0 0 0];

internalField   nonuniform List<scalar> 
40000
(
1.962
1.96197
1.96183
1.96154
1.96112
1.96057
1.95987
1.95905
1.95808
1.95699
1.95576
1.9544
1.95291
1.95129
1.94955
1.94767
1.94568
1.94355
1.94131
1.93895
1.93647
1.93387
1.93116
1.92834
1.92541
1.92238
1.91923
1.91599
1.91265
1.90921
1.90568
1.90206
1.89836
1.89457
1.8907
1.88675
1.88273
1.87864
1.87448
1.87027
1.86599
1.86166
1.85728
1.85286
1.84839
1.84388
1.83935
1.83478
1.83019
1.82558
1.82095
1.81632
1.81168
1.80704
1.8024
1.79777
1.79315
1.78855
1.78398
1.77943
1.77491
1.77043
1.766
1.76161
1.75727
1.75299
1.74877
1.74462
1.74054
1.73653
1.73261
1.72876
1.72501
1.72135
1.71778
1.71432
1.71096
1.70771
1.70457
1.70155
1.69865
1.69587
1.69322
1.6907
1.68831
1.68605
1.68394
1.68196
1.68013
1.67844
1.6769
1.6755
1.67426
1.67317
1.67224
1.67145
1.67083
1.67036
1.67004
1.66988
1.66988
1.67004
1.67036
1.67083
1.67145
1.67224
1.67317
1.67426
1.67551
1.6769
1.67844
1.68013
1.68196
1.68394
1.68605
1.68831
1.6907
1.69322
1.69587
1.69865
1.70155
1.70457
1.70771
1.71096
1.71432
1.71778
1.72134
1.725
1.72876
1.7326
1.73653
1.74054
1.74462
1.74877
1.75299
1.75727
1.7616
1.76599
1.77043
1.77491
1.77942
1.78397
1.78854
1.79314
1.79776
1.80239
1.80703
1.81167
1.81631
1.82095
1.82557
1.83018
1.83477
1.83934
1.84387
1.84838
1.85285
1.85727
1.86165
1.86598
1.87026
1.87447
1.87863
1.88272
1.88674
1.89069
1.89456
1.89835
1.90205
1.90567
1.9092
1.91264
1.91598
1.91922
1.92237
1.9254
1.92833
1.93115
1.93386
1.93646
1.93894
1.9413
1.94355
1.94567
1.94767
1.94954
1.95129
1.95291
1.9544
1.95576
1.95699
1.95808
1.95905
1.95988
1.96057
1.96113
1.96156
1.96185
1.962
1.96202
1.96202
1.962
1.96185
1.96157
1.96115
1.96059
1.9599
1.95907
1.95811
1.95701
1.95579
1.95443
1.95294
1.95132
1.94957
1.9477
1.9457
1.94358
1.94133
1.93897
1.93649
1.93389
1.93118
1.92836
1.92543
1.92239
1.91925
1.91601
1.91267
1.90923
1.9057
1.90208
1.89837
1.89458
1.89071
1.88676
1.88274
1.87865
1.87449
1.87027
1.866
1.86167
1.85729
1.85286
1.84839
1.84389
1.83935
1.83478
1.83019
1.82558
1.82095
1.81631
1.81167
1.80703
1.80239
1.79776
1.79314
1.78854
1.78396
1.77942
1.7749
1.77042
1.76599
1.7616
1.75726
1.75298
1.74876
1.74461
1.74052
1.73652
1.73259
1.72874
1.72499
1.72133
1.71776
1.7143
1.71094
1.70769
1.70455
1.70153
1.69863
1.69585
1.6932
1.69067
1.68828
1.68603
1.68391
1.68194
1.6801
1.67841
1.67687
1.67548
1.67424
1.67315
1.67221
1.67143
1.6708
1.67033
1.67002
1.66986
1.66986
1.67002
1.67033
1.6708
1.67143
1.67221
1.67315
1.67424
1.67548
1.67687
1.67842
1.6801
1.68194
1.68391
1.68603
1.68828
1.69067
1.6932
1.69585
1.69863
1.70153
1.70455
1.70769
1.71094
1.71429
1.71776
1.72132
1.72499
1.72874
1.73258
1.73651
1.74052
1.7446
1.74875
1.75297
1.75725
1.76159
1.76598
1.77042
1.77489
1.77941
1.78396
1.78853
1.79313
1.79775
1.80238
1.80702
1.81166
1.81631
1.82094
1.82557
1.83018
1.83477
1.83934
1.84388
1.84838
1.85285
1.85728
1.86166
1.86599
1.87026
1.87448
1.87864
1.88273
1.88675
1.8907
1.89457
1.89836
1.90207
1.90569
1.90922
1.91266
1.916
1.91924
1.92238
1.92542
1.92835
1.93117
1.93388
1.93648
1.93896
1.94133
1.94357
1.94569
1.94769
1.94956
1.95131
1.95293
1.95442
1.95578
1.95701
1.95811
1.95907
1.9599
1.9606
1.96116
1.96158
1.96187
1.96202
1.96204
1.96217
1.96215
1.962
1.96172
1.9613
1.96074
1.96004
1.95921
1.95825
1.95715
1.95593
1.95456
1.95307
1.95145
1.9497
1.94783
1.94583
1.94371
1.94146
1.9391
1.93661
1.93401
1.9313
1.92848
1.92554
1.9225
1.91936
1.91611
1.91277
1.90932
1.90579
1.90217
1.89846
1.89466
1.89079
1.88683
1.88281
1.87871
1.87455
1.87033
1.86605
1.86171
1.85733
1.8529
1.84843
1.84392
1.83937
1.8348
1.8302
1.82559
1.82096
1.81632
1.81167
1.80702
1.80237
1.79774
1.79311
1.78851
1.78393
1.77937
1.77485
1.77037
1.76593
1.76153
1.75719
1.75291
1.74868
1.74452
1.74044
1.73642
1.73249
1.72864
1.72488
1.72122
1.71765
1.71418
1.71082
1.70756
1.70442
1.70139
1.69849
1.69571
1.69305
1.69053
1.68813
1.68587
1.68376
1.68178
1.67994
1.67825
1.67671
1.67531
1.67407
1.67298
1.67204
1.67126
1.67063
1.67016
1.66984
1.66969
1.66969
1.66984
1.67016
1.67063
1.67126
1.67204
1.67298
1.67407
1.67531
1.67671
1.67825
1.67994
1.68178
1.68376
1.68588
1.68813
1.69053
1.69305
1.69571
1.69849
1.70139
1.70442
1.70756
1.71081
1.71418
1.71764
1.72121
1.72488
1.72864
1.73249
1.73642
1.74043
1.74452
1.74868
1.7529
1.75719
1.76153
1.76592
1.77036
1.77485
1.77937
1.78392
1.7885
1.79311
1.79773
1.80237
1.80701
1.81166
1.81631
1.82095
1.82558
1.83019
1.83479
1.83936
1.84391
1.84842
1.85289
1.85732
1.8617
1.86604
1.87032
1.87454
1.8787
1.8828
1.88682
1.89077
1.89465
1.89844
1.90216
1.90578
1.90932
1.91276
1.9161
1.91935
1.92249
1.92553
1.92847
1.93129
1.934
1.9366
1.93909
1.94145
1.9437
1.94582
1.94782
1.9497
1.95145
1.95307
1.95456
1.95592
1.95715
1.95825
1.95921
1.96005
1.96074
1.9613
1.96173
1.96202
1.96217
1.96219
1.96246
1.96243
1.96229
1.962
1.96158
1.96102
1.96032
1.95949
1.95852
1.95743
1.95619
1.95483
1.95334
1.95171
1.94996
1.94809
1.94608
1.94396
1.94171
1.93934
1.93685
1.93425
1.93153
1.9287
1.92576
1.92272
1.91956
1.91631
1.91296
1.90951
1.90597
1.90234
1.89862
1.89482
1.89094
1.88698
1.88295
1.87885
1.87468
1.87045
1.86616
1.86181
1.85742
1.85298
1.8485
1.84398
1.83943
1.83485
1.83024
1.82561
1.82097
1.81632
1.81166
1.80701
1.80235
1.7977
1.79307
1.78845
1.78386
1.7793
1.77477
1.77027
1.76582
1.76142
1.75706
1.75277
1.74853
1.74437
1.74027
1.73625
1.73231
1.72845
1.72468
1.721
1.71742
1.71395
1.71058
1.70731
1.70416
1.70113
1.69822
1.69543
1.69277
1.69024
1.68784
1.68557
1.68345
1.68146
1.67962
1.67793
1.67638
1.67498
1.67374
1.67264
1.6717
1.67092
1.67029
1.66981
1.6695
1.66934
1.66934
1.6695
1.66981
1.67029
1.67092
1.6717
1.67264
1.67374
1.67499
1.67638
1.67793
1.67962
1.68146
1.68345
1.68557
1.68784
1.69024
1.69277
1.69543
1.69822
1.70113
1.70416
1.70731
1.71057
1.71395
1.71742
1.721
1.72468
1.72844
1.7323
1.73624
1.74026
1.74436
1.74853
1.75276
1.75706
1.76141
1.76582
1.77027
1.77476
1.77929
1.78386
1.78845
1.79306
1.7977
1.80234
1.807
1.81166
1.81631
1.82096
1.8256
1.83023
1.83484
1.83942
1.84397
1.84849
1.85297
1.85741
1.8618
1.86615
1.87044
1.87467
1.87884
1.88294
1.88697
1.89093
1.89481
1.89861
1.90233
1.90596
1.9095
1.91295
1.9163
1.91956
1.92271
1.92575
1.92869
1.93152
1.93424
1.93684
1.93933
1.9417
1.94395
1.94607
1.94808
1.94996
1.95171
1.95333
1.95483
1.95619
1.95742
1.95852
1.95949
1.96032
1.96102
1.96158
1.96201
1.9623
1.96245
1.96247
1.96288
1.96285
1.9627
1.96241
1.96199
1.96143
1.96073
1.9599
1.95893
1.95783
1.95659
1.95523
1.95373
1.9521
1.95035
1.94846
1.94645
1.94432
1.94207
1.93969
1.9372
1.93459
1.93187
1.92903
1.92608
1.92303
1.91987
1.91661
1.91325
1.90979
1.90624
1.9026
1.89888
1.89506
1.89117
1.8872
1.88316
1.87904
1.87486
1.87062
1.86632
1.86196
1.85756
1.8531
1.84861
1.84408
1.83951
1.83491
1.83029
1.82565
1.821
1.81633
1.81166
1.80699
1.80232
1.79766
1.79301
1.78838
1.78377
1.77919
1.77464
1.77013
1.76567
1.76125
1.75688
1.75257
1.74832
1.74414
1.74003
1.73599
1.73203
1.72816
1.72438
1.72069
1.7171
1.71361
1.71022
1.70695
1.70379
1.70074
1.69782
1.69502
1.69235
1.68981
1.6874
1.68513
1.68299
1.681
1.67915
1.67745
1.6759
1.67449
1.67324
1.67214
1.6712
1.67041
1.66978
1.6693
1.66899
1.66883
1.66883
1.66899
1.6693
1.66978
1.67041
1.6712
1.67215
1.67324
1.6745
1.6759
1.67745
1.67915
1.681
1.68299
1.68513
1.6874
1.68981
1.69235
1.69502
1.69782
1.70074
1.70379
1.70695
1.71022
1.71361
1.7171
1.72069
1.72438
1.72816
1.73203
1.73598
1.74002
1.74413
1.74832
1.75256
1.75687
1.76124
1.76566
1.77013
1.77464
1.77918
1.78376
1.78837
1.793
1.79765
1.80231
1.80698
1.81165
1.81632
1.82099
1.82564
1.83028
1.8349
1.8395
1.84407
1.8486
1.85309
1.85755
1.86195
1.86631
1.87061
1.87485
1.87903
1.88315
1.88719
1.89116
1.89505
1.89887
1.90259
1.90624
1.90979
1.91324
1.9166
1.91986
1.92302
1.92607
1.92902
1.93186
1.93458
1.93719
1.93968
1.94206
1.94432
1.94645
1.94846
1.95034
1.9521
1.95372
1.95522
1.95659
1.95782
1.95893
1.95989
1.96073
1.96143
1.96199
1.96242
1.96271
1.96286
1.96288
1.96342
1.9634
1.96325
1.96296
1.96253
1.96197
1.96127
1.96043
1.95946
1.95836
1.95712
1.95575
1.95424
1.95261
1.95085
1.94896
1.94695
1.94481
1.94255
1.94017
1.93766
1.93505
1.93231
1.92947
1.92651
1.92345
1.92028
1.91701
1.91363
1.91017
1.9066
1.90295
1.89921
1.89538
1.89148
1.88749
1.88344
1.87931
1.87511
1.87085
1.86653
1.86216
1.85774
1.85327
1.84876
1.84421
1.83962
1.83501
1.83037
1.82571
1.82104
1.81635
1.81166
1.80697
1.80228
1.79759
1.79293
1.78828
1.78365
1.77905
1.77448
1.76995
1.76547
1.76103
1.75664
1.75231
1.74804
1.74384
1.7397
1.73565
1.73167
1.72778
1.72398
1.72028
1.71667
1.71316
1.70976
1.70647
1.70329
1.70023
1.69729
1.69448
1.69179
1.68924
1.68682
1.68453
1.68239
1.68039
1.67853
1.67682
1.67526
1.67385
1.67259
1.67148
1.67053
1.66974
1.66911
1.66863
1.66831
1.66815
1.66815
1.66831
1.66863
1.66911
1.66974
1.67054
1.67148
1.67259
1.67385
1.67526
1.67682
1.67853
1.68039
1.68239
1.68453
1.68682
1.68924
1.69179
1.69448
1.69729
1.70023
1.70329
1.70647
1.70976
1.71316
1.71666
1.72027
1.72398
1.72778
1.73167
1.73565
1.7397
1.74383
1.74803
1.7523
1.75663
1.76102
1.76546
1.76995
1.77448
1.77904
1.78364
1.78827
1.79292
1.79759
1.80227
1.80696
1.81165
1.81634
1.82103
1.8257
1.83036
1.835
1.83961
1.8442
1.84875
1.85326
1.85773
1.86215
1.86652
1.87084
1.8751
1.8793
1.88343
1.88748
1.89147
1.89537
1.8992
1.90294
1.90659
1.91016
1.91363
1.917
1.92027
1.92344
1.9265
1.92946
1.9323
1.93504
1.93765
1.94016
1.94254
1.9448
1.94694
1.94896
1.95084
1.95261
1.95424
1.95574
1.95711
1.95835
1.95946
1.96043
1.96127
1.96197
1.96253
1.96296
1.96325
1.9634
1.96343
1.9641
1.96407
1.96392
1.96363
1.9632
1.96264
1.96193
1.9611
1.96012
1.95901
1.95777
1.95639
1.95488
1.95325
1.95148
1.94958
1.94756
1.94541
1.94314
1.94075
1.93824
1.93561
1.93287
1.93001
1.92704
1.92397
1.92078
1.9175
1.91411
1.91063
1.90705
1.90338
1.89963
1.89578
1.89186
1.88786
1.88378
1.87963
1.87542
1.87114
1.8668
1.86241
1.85797
1.85348
1.84894
1.84437
1.83976
1.83513
1.83046
1.82578
1.82108
1.81637
1.81166
1.80694
1.80223
1.79752
1.79283
1.78815
1.7835
1.77887
1.77428
1.76973
1.76521
1.76075
1.75634
1.75198
1.74769
1.74346
1.73931
1.73523
1.73123
1.72731
1.72349
1.71976
1.71613
1.7126
1.70918
1.70587
1.70267
1.69959
1.69663
1.6938
1.6911
1.68853
1.68609
1.68379
1.68164
1.67962
1.67775
1.67603
1.67446
1.67304
1.67177
1.67066
1.66971
1.66891
1.66827
1.66779
1.66747
1.66731
1.66731
1.66747
1.66779
1.66827
1.66891
1.66971
1.67066
1.67177
1.67304
1.67446
1.67603
1.67775
1.67962
1.68164
1.68379
1.68609
1.68853
1.6911
1.6938
1.69663
1.69959
1.70267
1.70587
1.70918
1.7126
1.71613
1.71976
1.72349
1.72731
1.73122
1.73522
1.7393
1.74346
1.74768
1.75198
1.75633
1.76074
1.76521
1.76972
1.77428
1.77887
1.78349
1.78814
1.79282
1.79751
1.80222
1.80693
1.81165
1.81636
1.82107
1.82577
1.83045
1.83511
1.83975
1.84436
1.84893
1.85347
1.85796
1.8624
1.86679
1.87113
1.87541
1.87962
1.88377
1.88785
1.89185
1.89577
1.89962
1.90337
1.90704
1.91062
1.9141
1.91749
1.92077
1.92396
1.92703
1.93
1.93286
1.9356
1.93823
1.94074
1.94313
1.94541
1.94755
1.94958
1.95147
1.95324
1.95488
1.95639
1.95776
1.95901
1.96012
1.96109
1.96193
1.96264
1.9632
1.96363
1.96393
1.96408
1.9641
1.96491
1.96488
1.96473
1.96444
1.96401
1.96344
1.96273
1.96189
1.96091
1.9598
1.95855
1.95717
1.95565
1.95401
1.95223
1.95032
1.94829
1.94614
1.94386
1.94145
1.93893
1.93629
1.93353
1.93066
1.92768
1.92459
1.92139
1.91809
1.91468
1.91118
1.90759
1.9039
1.90012
1.89626
1.89232
1.88829
1.8842
1.88003
1.87579
1.87149
1.86713
1.86271
1.85824
1.85372
1.84916
1.84456
1.83993
1.83527
1.83058
1.82587
1.82114
1.8164
1.81166
1.80691
1.80217
1.79743
1.79271
1.788
1.78332
1.77867
1.77404
1.76946
1.76492
1.76042
1.75598
1.75159
1.74727
1.74301
1.73883
1.73472
1.73069
1.72675
1.7229
1.71914
1.71549
1.71193
1.70849
1.70515
1.70193
1.69883
1.69585
1.69299
1.69027
1.68768
1.68523
1.68291
1.68073
1.6787
1.67682
1.67508
1.6735
1.67207
1.67079
1.66967
1.66871
1.66791
1.66726
1.66678
1.66645
1.66629
1.66629
1.66645
1.66678
1.66726
1.66791
1.66871
1.66967
1.67079
1.67207
1.6735
1.67509
1.67682
1.6787
1.68073
1.68291
1.68522
1.68768
1.69027
1.69299
1.69585
1.69883
1.70193
1.70515
1.70848
1.71193
1.71548
1.71914
1.7229
1.72675
1.73069
1.73472
1.73883
1.74301
1.74727
1.75159
1.75597
1.76042
1.76491
1.76945
1.77404
1.77866
1.78331
1.788
1.7927
1.79742
1.80216
1.8069
1.81165
1.81639
1.82113
1.82586
1.83057
1.83526
1.83992
1.84455
1.84915
1.85371
1.85823
1.8627
1.86712
1.87148
1.87578
1.88002
1.88419
1.88829
1.89231
1.89625
1.90011
1.90389
1.90758
1.91117
1.91467
1.91808
1.92138
1.92458
1.92767
1.93065
1.93352
1.93628
1.93892
1.94144
1.94385
1.94613
1.94829
1.95032
1.95222
1.954
1.95565
1.95716
1.95854
1.95979
1.96091
1.96189
1.96273
1.96344
1.96401
1.96444
1.96473
1.96489
1.96491
1.96585
1.96583
1.96568
1.96538
1.96495
1.96437
1.96366
1.96282
1.96183
1.96071
1.95946
1.95807
1.95654
1.95489
1.9531
1.95119
1.94915
1.94698
1.94469
1.94227
1.93973
1.93708
1.9343
1.93142
1.92842
1.92531
1.92209
1.91877
1.91535
1.91183
1.90821
1.9045
1.90071
1.89682
1.89285
1.8888
1.88468
1.88049
1.87622
1.87189
1.8675
1.86306
1.85856
1.85401
1.84942
1.84479
1.84013
1.83543
1.83071
1.82597
1.82121
1.81644
1.81166
1.80688
1.8021
1.79733
1.79257
1.78783
1.78312
1.77842
1.77377
1.76915
1.76457
1.76004
1.75556
1.75114
1.74678
1.74249
1.73827
1.73413
1.73007
1.7261
1.72221
1.71843
1.71474
1.71115
1.70768
1.70431
1.70106
1.69793
1.69493
1.69205
1.6893
1.68669
1.68421
1.68188
1.67968
1.67763
1.67573
1.67398
1.67238
1.67094
1.66965
1.66852
1.66755
1.66674
1.66609
1.6656
1.66527
1.66511
1.66511
1.66527
1.6656
1.66609
1.66674
1.66755
1.66852
1.66965
1.67094
1.67238
1.67398
1.67573
1.67763
1.67968
1.68188
1.68421
1.68669
1.6893
1.69205
1.69493
1.69793
1.70106
1.70431
1.70767
1.71115
1.71474
1.71842
1.72221
1.7261
1.73007
1.73413
1.73827
1.74249
1.74678
1.75114
1.75556
1.76003
1.76456
1.76914
1.77376
1.77842
1.78311
1.78783
1.79257
1.79732
1.80209
1.80687
1.81165
1.81643
1.8212
1.82596
1.8307
1.83542
1.84012
1.84478
1.84941
1.854
1.85855
1.86305
1.86749
1.87188
1.87621
1.88048
1.88467
1.8888
1.89284
1.89681
1.9007
1.9045
1.9082
1.91182
1.91534
1.91876
1.92208
1.9253
1.92841
1.93141
1.93429
1.93707
1.93972
1.94226
1.94468
1.94697
1.94914
1.95118
1.9531
1.95488
1.95654
1.95806
1.95945
1.96071
1.96183
1.96281
1.96366
1.96437
1.96494
1.96538
1.96567
1.96583
1.96585
1.96693
1.9669
1.96675
1.96645
1.96602
1.96544
1.96473
1.96388
1.96289
1.96176
1.9605
1.9591
1.95757
1.9559
1.9541
1.95218
1.95012
1.94794
1.94563
1.9432
1.94065
1.93798
1.93519
1.93228
1.92927
1.92614
1.9229
1.91956
1.91611
1.91257
1.90893
1.9052
1.90137
1.89746
1.89346
1.88939
1.88524
1.88101
1.87672
1.87236
1.86794
1.86346
1.85893
1.85435
1.84972
1.84506
1.84036
1.83563
1.83087
1.82609
1.82129
1.81648
1.81166
1.80684
1.80203
1.79722
1.79242
1.78764
1.78288
1.77815
1.77345
1.76879
1.76417
1.7596
1.75509
1.75063
1.74623
1.7419
1.73764
1.73346
1.72936
1.72535
1.72143
1.71761
1.71388
1.71026
1.70675
1.70335
1.70007
1.69691
1.69388
1.69097
1.6882
1.68556
1.68305
1.68069
1.67848
1.67641
1.67449
1.67272
1.6711
1.66964
1.66834
1.6672
1.66622
1.6654
1.66474
1.66425
1.66392
1.66375
1.66375
1.66392
1.66425
1.66474
1.6654
1.66622
1.6672
1.66834
1.66964
1.6711
1.67272
1.67449
1.67641
1.67848
1.68069
1.68305
1.68555
1.68819
1.69097
1.69388
1.69691
1.70007
1.70335
1.70675
1.71026
1.71388
1.7176
1.72143
1.72535
1.72936
1.73346
1.73764
1.7419
1.74623
1.75062
1.75508
1.7596
1.76417
1.76879
1.77345
1.77814
1.78287
1.78763
1.79241
1.79721
1.80202
1.80684
1.81166
1.81647
1.82128
1.82608
1.83086
1.83562
1.84035
1.84505
1.84971
1.85434
1.85892
1.86345
1.86793
1.87235
1.87671
1.881
1.88523
1.88938
1.89345
1.89745
1.90136
1.90519
1.90892
1.91256
1.9161
1.91955
1.92289
1.92613
1.92926
1.93227
1.93518
1.93797
1.94064
1.94319
1.94563
1.94793
1.95012
1.95217
1.9541
1.95589
1.95756
1.95909
1.96049
1.96175
1.96288
1.96387
1.96472
1.96544
1.96601
1.96645
1.96675
1.9669
1.96693
1.96814
1.96811
1.96796
1.96766
1.96722
1.96664
1.96592
1.96507
1.96407
1.96293
1.96166
1.96026
1.95871
1.95704
1.95523
1.95329
1.95122
1.94902
1.9467
1.94425
1.94168
1.93899
1.93618
1.93326
1.93022
1.92707
1.92381
1.92044
1.91697
1.9134
1.90974
1.90597
1.90212
1.89818
1.89415
1.89005
1.88586
1.8816
1.87728
1.87288
1.86842
1.86391
1.85934
1.85472
1.85006
1.84536
1.84062
1.83584
1.83104
1.82622
1.82138
1.81653
1.81167
1.80681
1.80194
1.79709
1.79225
1.78742
1.78262
1.77784
1.7731
1.76839
1.76373
1.75911
1.75455
1.75005
1.7456
1.74123
1.73693
1.7327
1.72856
1.72451
1.72055
1.71668
1.71292
1.70926
1.70571
1.70227
1.69896
1.69576
1.69269
1.68975
1.68695
1.68428
1.68175
1.67936
1.67712
1.67502
1.67308
1.67129
1.66966
1.66818
1.66687
1.66571
1.66472
1.66389
1.66322
1.66272
1.66239
1.66222
1.66222
1.66239
1.66272
1.66322
1.66389
1.66472
1.66571
1.66687
1.66818
1.66966
1.67129
1.67308
1.67502
1.67712
1.67936
1.68175
1.68428
1.68695
1.68975
1.69269
1.69576
1.69896
1.70227
1.70571
1.70926
1.71292
1.71668
1.72054
1.72451
1.72856
1.7327
1.73693
1.74123
1.7456
1.75004
1.75455
1.75911
1.76372
1.76839
1.77309
1.77784
1.78261
1.78742
1.79224
1.79708
1.80194
1.8068
1.81166
1.81652
1.82137
1.82621
1.83103
1.83583
1.84061
1.84535
1.85005
1.85471
1.85933
1.8639
1.86842
1.87287
1.87727
1.8816
1.88585
1.89004
1.89414
1.89817
1.90211
1.90596
1.90973
1.91339
1.91696
1.92043
1.9238
1.92706
1.93021
1.93325
1.93617
1.93898
1.94167
1.94425
1.94669
1.94902
1.95121
1.95328
1.95522
1.95703
1.95871
1.96025
1.96166
1.96293
1.96406
1.96506
1.96592
1.96664
1.96722
1.96766
1.96796
1.96811
1.96814
1.96949
1.96946
1.9693
1.969
1.96856
1.96798
1.96725
1.96639
1.96538
1.96424
1.96296
1.96154
1.95999
1.9583
1.95648
1.95453
1.95244
1.95023
1.94789
1.94542
1.94283
1.94012
1.93729
1.93434
1.93128
1.92811
1.92482
1.92143
1.91793
1.91433
1.91063
1.90684
1.90296
1.89898
1.89492
1.89078
1.88656
1.88227
1.8779
1.87347
1.86897
1.86441
1.85981
1.85515
1.85044
1.84569
1.84091
1.83609
1.83124
1.82637
1.82149
1.81659
1.81168
1.80677
1.80185
1.79695
1.79206
1.78718
1.78233
1.7775
1.77271
1.76795
1.76324
1.75857
1.75396
1.7494
1.74491
1.74049
1.73613
1.73186
1.72767
1.72357
1.71956
1.71565
1.71184
1.70814
1.70455
1.70107
1.69771
1.69448
1.69137
1.6884
1.68556
1.68285
1.68029
1.67787
1.6756
1.67348
1.67152
1.6697
1.66805
1.66655
1.66522
1.66405
1.66304
1.6622
1.66153
1.66102
1.66069
1.66052
1.66052
1.66069
1.66102
1.66153
1.6622
1.66304
1.66405
1.66522
1.66655
1.66805
1.6697
1.67152
1.67348
1.6756
1.67787
1.68029
1.68285
1.68556
1.6884
1.69137
1.69448
1.69771
1.70107
1.70455
1.70814
1.71184
1.71565
1.71956
1.72357
1.72767
1.73186
1.73613
1.74048
1.74491
1.7494
1.75395
1.75857
1.76323
1.76795
1.7727
1.7775
1.78232
1.78718
1.79205
1.79694
1.80185
1.80676
1.81167
1.81658
1.82148
1.82636
1.83123
1.83608
1.8409
1.84568
1.85043
1.85513
1.8598
1.86441
1.86896
1.87346
1.87789
1.88226
1.88655
1.89077
1.89491
1.89897
1.90295
1.90683
1.91063
1.91432
1.91792
1.92142
1.92481
1.9281
1.93127
1.93433
1.93728
1.94011
1.94282
1.94541
1.94788
1.95022
1.95243
1.95452
1.95647
1.9583
1.95998
1.96154
1.96296
1.96424
1.96538
1.96638
1.96725
1.96797
1.96856
1.969
1.9693
1.96946
1.96948
1.97097
1.97094
1.97079
1.97048
1.97004
1.96945
1.96872
1.96785
1.96683
1.96568
1.96439
1.96296
1.9614
1.9597
1.95786
1.95589
1.95379
1.95156
1.9492
1.94671
1.9441
1.94137
1.93851
1.93554
1.93245
1.92925
1.92593
1.92251
1.91899
1.91535
1.91162
1.9078
1.90388
1.89987
1.89577
1.89159
1.88733
1.883
1.87859
1.87411
1.86957
1.86497
1.86032
1.85561
1.85086
1.84606
1.84123
1.83636
1.83146
1.82654
1.8216
1.81665
1.81169
1.80672
1.80176
1.7968
1.79185
1.78692
1.78201
1.77713
1.77228
1.76746
1.76269
1.75797
1.7533
1.74869
1.74414
1.73967
1.73526
1.73093
1.72669
1.72254
1.71848
1.71452
1.71066
1.70691
1.70327
1.69975
1.69634
1.69307
1.68992
1.6869
1.68402
1.68128
1.67868
1.67623
1.67393
1.67178
1.66979
1.66795
1.66627
1.66476
1.6634
1.66222
1.6612
1.66034
1.65966
1.65915
1.6588
1.65863
1.65863
1.6588
1.65915
1.65966
1.66034
1.6612
1.66222
1.6634
1.66476
1.66627
1.66795
1.66979
1.67178
1.67393
1.67623
1.67868
1.68128
1.68402
1.6869
1.68992
1.69306
1.69634
1.69974
1.70327
1.70691
1.71066
1.71452
1.71848
1.72254
1.72669
1.73093
1.73526
1.73966
1.74414
1.74869
1.7533
1.75797
1.76269
1.76746
1.77227
1.77712
1.782
1.78691
1.79184
1.79679
1.80175
1.80671
1.81168
1.81664
1.82159
1.82653
1.83145
1.83635
1.84122
1.84605
1.85085
1.8556
1.86031
1.86496
1.86956
1.8741
1.87858
1.88299
1.88732
1.89158
1.89576
1.89986
1.90387
1.90779
1.91162
1.91535
1.91898
1.9225
1.92593
1.92924
1.93244
1.93553
1.9385
1.94136
1.94409
1.9467
1.94919
1.95155
1.95378
1.95588
1.95785
1.95969
1.96139
1.96296
1.96438
1.96568
1.96683
1.96784
1.96871
1.96944
1.97003
1.97048
1.97078
1.97094
1.97096
1.97259
1.97256
1.9724
1.9721
1.97165
1.97105
1.97032
1.96944
1.96842
1.96726
1.96595
1.96451
1.96293
1.96122
1.95937
1.95738
1.95526
1.95301
1.95063
1.94812
1.94549
1.94273
1.93985
1.93685
1.93373
1.9305
1.92715
1.9237
1.92014
1.91647
1.91271
1.90885
1.90489
1.90084
1.8967
1.89248
1.88817
1.88379
1.87934
1.87482
1.87023
1.86558
1.86088
1.85612
1.85132
1.84647
1.84158
1.83666
1.83171
1.82673
1.82173
1.81672
1.8117
1.80668
1.80165
1.79663
1.79162
1.78663
1.78166
1.77672
1.77181
1.76693
1.7621
1.75732
1.75259
1.74792
1.74331
1.73877
1.73431
1.72992
1.72562
1.72141
1.71729
1.71328
1.70936
1.70556
1.70187
1.69829
1.69484
1.69152
1.68832
1.68526
1.68234
1.67956
1.67692
1.67444
1.6721
1.66992
1.66789
1.66603
1.66432
1.66279
1.66141
1.66021
1.65917
1.65831
1.65761
1.65709
1.65674
1.65657
1.65657
1.65674
1.65709
1.65761
1.65831
1.65917
1.66021
1.66141
1.66278
1.66432
1.66603
1.66789
1.66992
1.6721
1.67444
1.67692
1.67956
1.68234
1.68526
1.68832
1.69152
1.69484
1.69829
1.70187
1.70556
1.70936
1.71327
1.71729
1.72141
1.72562
1.72992
1.7343
1.73877
1.7433
1.74791
1.75258
1.75731
1.7621
1.76693
1.7718
1.77671
1.78166
1.78663
1.79162
1.79663
1.80164
1.80667
1.81169
1.81671
1.82172
1.82672
1.8317
1.83665
1.84157
1.84646
1.85131
1.85611
1.86087
1.86557
1.87022
1.87481
1.87933
1.88379
1.88816
1.89247
1.89669
1.90083
1.90488
1.90884
1.9127
1.91646
1.92013
1.92369
1.92714
1.93049
1.93372
1.93684
1.93984
1.94272
1.94548
1.94811
1.95062
1.953
1.95525
1.95737
1.95936
1.96121
1.96293
1.96451
1.96595
1.96725
1.96841
1.96943
1.97031
1.97105
1.97164
1.97209
1.9724
1.97255
1.97258
1.97435
1.97432
1.97416
1.97385
1.9734
1.9728
1.97205
1.97117
1.97014
1.96896
1.96765
1.9662
1.9646
1.96287
1.961
1.959
1.95686
1.95458
1.95218
1.94965
1.94699
1.94421
1.9413
1.93827
1.93512
1.93186
1.92848
1.92499
1.92139
1.91769
1.91389
1.90998
1.90598
1.90189
1.89771
1.89344
1.88909
1.88467
1.88016
1.87559
1.87095
1.86625
1.86149
1.85668
1.85182
1.84691
1.84196
1.83698
1.83197
1.82693
1.82188
1.8168
1.81172
1.80663
1.80154
1.79646
1.79138
1.78632
1.78129
1.77628
1.7713
1.76636
1.76146
1.75661
1.75181
1.74707
1.7424
1.7378
1.73327
1.72882
1.72445
1.72018
1.716
1.71193
1.70795
1.70409
1.70034
1.69671
1.69321
1.68983
1.68659
1.68348
1.68051
1.67768
1.67501
1.67248
1.6701
1.66789
1.66583
1.66393
1.6622
1.66064
1.65924
1.65802
1.65697
1.65609
1.65538
1.65485
1.6545
1.65432
1.65432
1.6545
1.65485
1.65538
1.65609
1.65697
1.65802
1.65924
1.66064
1.6622
1.66393
1.66583
1.66789
1.6701
1.67248
1.67501
1.67768
1.68051
1.68348
1.68659
1.68983
1.69321
1.69671
1.70034
1.70409
1.70795
1.71192
1.716
1.72018
1.72445
1.72881
1.73326
1.73779
1.7424
1.74707
1.75181
1.7566
1.76145
1.76635
1.77129
1.77627
1.78128
1.78632
1.79138
1.79645
1.80153
1.80662
1.81171
1.81679
1.82187
1.82693
1.83196
1.83697
1.84196
1.8469
1.85181
1.85667
1.86148
1.86624
1.87094
1.87558
1.88015
1.88466
1.88908
1.89343
1.8977
1.90188
1.90597
1.90997
1.91388
1.91768
1.92138
1.92498
1.92847
1.93185
1.93511
1.93826
1.94129
1.9442
1.94698
1.94964
1.95217
1.95458
1.95685
1.95899
1.96099
1.96286
1.9646
1.96619
1.96764
1.96896
1.97013
1.97116
1.97205
1.97279
1.97339
1.97384
1.97415
1.97431
1.97434
1.97624
1.97621
1.97605
1.97574
1.97528
1.97468
1.97393
1.97303
1.97199
1.97081
1.96948
1.96801
1.9664
1.96466
1.96277
1.96074
1.95858
1.95629
1.95386
1.9513
1.94862
1.9458
1.94286
1.9398
1.93662
1.93332
1.92991
1.92638
1.92275
1.91901
1.91516
1.91121
1.90717
1.90303
1.8988
1.89449
1.89009
1.88561
1.88105
1.87643
1.87173
1.86697
1.86216
1.85728
1.85236
1.84739
1.84238
1.83734
1.83226
1.82716
1.82203
1.81689
1.81174
1.80658
1.80142
1.79627
1.79112
1.78599
1.78088
1.7758
1.77075
1.76574
1.76077
1.75584
1.75097
1.74617
1.74142
1.73675
1.73215
1.72763
1.72319
1.71885
1.71461
1.71047
1.70643
1.7025
1.69869
1.69501
1.69144
1.68801
1.68471
1.68155
1.67853
1.67566
1.67293
1.67036
1.66795
1.66569
1.6636
1.66167
1.65991
1.65831
1.65689
1.65565
1.65458
1.65368
1.65296
1.65242
1.65206
1.65188
1.65188
1.65206
1.65242
1.65296
1.65368
1.65458
1.65565
1.65689
1.65831
1.65991
1.66167
1.6636
1.66569
1.66795
1.67036
1.67293
1.67565
1.67853
1.68155
1.68471
1.68801
1.69144
1.695
1.69869
1.7025
1.70643
1.71046
1.71461
1.71885
1.72319
1.72762
1.73214
1.73674
1.74142
1.74616
1.75097
1.75584
1.76076
1.76573
1.77075
1.7758
1.78088
1.78599
1.79112
1.79626
1.80141
1.80657
1.81173
1.81688
1.82202
1.82715
1.83225
1.83733
1.84237
1.84738
1.85235
1.85727
1.86215
1.86696
1.87172
1.87642
1.88104
1.8856
1.89008
1.89448
1.89879
1.90302
1.90716
1.9112
1.91515
1.919
1.92274
1.92638
1.9299
1.93332
1.93661
1.93979
1.94286
1.94579
1.94861
1.95129
1.95385
1.95628
1.95857
1.96074
1.96276
1.96465
1.9664
1.96801
1.96948
1.9708
1.97199
1.97303
1.97392
1.97467
1.97528
1.97573
1.97605
1.97621
1.97623
1.97828
1.97825
1.97809
1.97777
1.97731
1.9767
1.97594
1.97504
1.97399
1.97279
1.97145
1.96997
1.96834
1.96657
1.96467
1.96262
1.96044
1.95812
1.95566
1.95308
1.95036
1.94752
1.94455
1.94145
1.93824
1.9349
1.93145
1.92789
1.92421
1.92042
1.91653
1.91254
1.90845
1.90426
1.89998
1.89561
1.89116
1.88662
1.88201
1.87733
1.87257
1.86775
1.86287
1.85794
1.85295
1.84791
1.84284
1.83772
1.83258
1.8274
1.8222
1.81699
1.81176
1.80653
1.8013
1.79607
1.79085
1.78564
1.78045
1.77529
1.77016
1.76507
1.76002
1.75502
1.75008
1.74519
1.74037
1.73562
1.73094
1.72635
1.72184
1.71743
1.71311
1.70889
1.70479
1.70079
1.69692
1.69317
1.68954
1.68604
1.68269
1.67947
1.67639
1.67347
1.6707
1.66808
1.66562
1.66332
1.66119
1.65922
1.65743
1.65581
1.65436
1.65309
1.652
1.65109
1.65036
1.64981
1.64944
1.64926
1.64926
1.64944
1.64981
1.65036
1.65109
1.652
1.65309
1.65436
1.65581
1.65743
1.65922
1.66119
1.66332
1.66562
1.66808
1.6707
1.67347
1.67639
1.67947
1.68269
1.68604
1.68954
1.69316
1.69692
1.70079
1.70479
1.70889
1.71311
1.71742
1.72184
1.72634
1.73094
1.73561
1.74036
1.74519
1.75007
1.75502
1.76002
1.76507
1.77016
1.77529
1.78045
1.78563
1.79084
1.79606
1.80129
1.80652
1.81176
1.81698
1.8222
1.82739
1.83257
1.83771
1.84283
1.84791
1.85294
1.85793
1.86286
1.86774
1.87256
1.87732
1.882
1.88661
1.89115
1.8956
1.89997
1.90425
1.90844
1.91253
1.91652
1.92041
1.9242
1.92788
1.93144
1.93489
1.93823
1.94145
1.94454
1.94751
1.95035
1.95307
1.95566
1.95811
1.96043
1.96261
1.96466
1.96657
1.96833
1.96996
1.97144
1.97278
1.97398
1.97503
1.97594
1.97669
1.9773
1.97777
1.97808
1.97824
1.97827
1.98046
1.98043
1.98027
1.97995
1.97948
1.97886
1.9781
1.97718
1.97612
1.97491
1.97356
1.97206
1.97041
1.96863
1.9667
1.96463
1.96242
1.96008
1.95759
1.95498
1.95223
1.94936
1.94635
1.94322
1.93997
1.93659
1.9331
1.92949
1.92577
1.92194
1.918
1.91396
1.90982
1.90558
1.90124
1.89682
1.89231
1.88771
1.88304
1.87829
1.87347
1.86859
1.86364
1.85864
1.85358
1.84847
1.84333
1.83814
1.83292
1.82767
1.82239
1.8171
1.81179
1.80648
1.80117
1.79585
1.79055
1.78526
1.77999
1.77475
1.76954
1.76436
1.75923
1.75415
1.74912
1.74414
1.73924
1.73441
1.72965
1.72497
1.72039
1.71589
1.7115
1.70721
1.70303
1.69896
1.69501
1.69119
1.6875
1.68394
1.68052
1.67724
1.6741
1.67112
1.6683
1.66563
1.66312
1.66078
1.6586
1.6566
1.65477
1.65312
1.65164
1.65035
1.64923
1.6483
1.64756
1.647
1.64662
1.64644
1.64644
1.64662
1.647
1.64756
1.6483
1.64923
1.65035
1.65164
1.65312
1.65477
1.6566
1.6586
1.66078
1.66312
1.66563
1.6683
1.67112
1.6741
1.67724
1.68051
1.68394
1.6875
1.69119
1.69501
1.69896
1.70303
1.70721
1.7115
1.71589
1.72038
1.72497
1.72965
1.7344
1.73924
1.74414
1.74911
1.75414
1.75922
1.76436
1.76953
1.77474
1.77999
1.78526
1.79054
1.79585
1.80116
1.80648
1.81179
1.81709
1.82238
1.82766
1.83291
1.83813
1.84332
1.84847
1.85357
1.85863
1.86363
1.86858
1.87346
1.87828
1.88303
1.8877
1.8923
1.89681
1.90123
1.90557
1.90981
1.91395
1.91799
1.92193
1.92576
1.92948
1.93309
1.93659
1.93996
1.94321
1.94634
1.94935
1.95223
1.95497
1.95759
1.96007
1.96241
1.96462
1.96669
1.96862
1.9704
1.97205
1.97355
1.9749
1.97611
1.97718
1.97809
1.97886
1.97947
1.97994
1.98026
1.98042
1.98045
1.98278
1.98275
1.98259
1.98227
1.98179
1.98117
1.98039
1.97947
1.97839
1.97717
1.9758
1.97428
1.97262
1.97081
1.96886
1.96677
1.96454
1.96216
1.95965
1.95701
1.95423
1.95132
1.94828
1.94511
1.94182
1.9384
1.93486
1.93121
1.92744
1.92356
1.91957
1.91548
1.91128
1.90698
1.90259
1.89811
1.89353
1.88888
1.88414
1.87933
1.87444
1.86948
1.86447
1.85939
1.85426
1.84908
1.84385
1.83858
1.83328
1.82795
1.8226
1.81722
1.81183
1.80643
1.80103
1.79563
1.79024
1.78486
1.77951
1.77417
1.76887
1.76361
1.75838
1.75321
1.74809
1.74303
1.73804
1.73312
1.72827
1.72351
1.71884
1.71426
1.70978
1.70541
1.70115
1.697
1.69298
1.68908
1.68532
1.68168
1.67819
1.67485
1.67165
1.66861
1.66573
1.66301
1.66045
1.65806