/*--------------------------------*- C++ -*----------------------------------*\
| =========                 |                                                 |
| \\      /  F ield         | OpenFOAM: The Open Source CFD Toolbox           |
|  \\    /   O peration     | Version:  2412                                  |
|   \\  /    A nd           | Website:  www.openfoam.com                      |
|    \\/     M anipulation  |                                                 |
\*---------------------------------------------------------------------------*/
FoamFile
{
    version     2.0;
    format      ascii;
    arch        "LSB;label=32;scalar=64";
    class       surfaceScalarField;
    location    "1.14";
    object      phi;
}
// * * * * * * * * * * * * * * * * * * * * * * * * * * * * * * * * * * * * * //

dimensions      [0 3 -1 0 0 0 0];

oriented        oriented;

internalField   nonuniform List<scalar> 
79600
(
2.23142e-11
-2.2284e-11
5.31937e-11
-3.08791e-11
8.72729e-11
-3.40782e-11
1.2285e-10
-3.55761e-11
1.59086e-10
-3.62356e-11
1.95475e-10
-3.63879e-11
2.31755e-10
-3.62788e-11
2.67829e-10
-3.6073e-11
3.03653e-10
-3.58234e-11
3.39211e-10
-3.55573e-11
3.7449e-10
-3.52782e-11
4.09472e-10
-3.49821e-11
4.4414e-10
-3.46681e-11
4.78475e-10
-3.43347e-11
5.12456e-10
-3.39804e-11
5.4606e-10
-3.36039e-11
5.79264e-10
-3.32037e-11
6.12043e-10
-3.27795e-11
6.44375e-10
-3.23306e-11
6.76232e-10
-3.18565e-11
7.07589e-10
-3.13567e-11
7.38421e-10
-3.08307e-11
7.68701e-10
-3.02782e-11
7.98402e-10
-2.9699e-11
8.27496e-10
-2.90932e-11
8.55958e-10
-2.84607e-11
8.8376e-10
-2.78016e-11
9.10875e-10
-2.71158e-11
9.37278e-10
-2.6403e-11
9.62941e-10
-2.56633e-11
9.87837e-10
-2.48966e-11
1.01194e-09
-2.41029e-11
1.03522e-09
-2.32823e-11
1.05766e-09
-2.24349e-11
1.07922e-09
-2.15607e-11
1.09988e-09
-2.06598e-11
1.11961e-09
-1.97323e-11
1.13839e-09
-1.87784e-11
1.15619e-09
-1.77984e-11
1.17298e-09
-1.67926e-11
1.18874e-09
-1.57613e-11
1.20345e-09
-1.47048e-11
1.21707e-09
-1.36235e-11
1.22959e-09
-1.25181e-11
1.24098e-09
-1.13889e-11
1.25121e-09
-1.02367e-11
1.26028e-09
-9.06236e-12
1.26814e-09
-7.86671e-12
1.27479e-09
-6.65077e-12
1.28021e-09
-5.41548e-12
1.28437e-09
-4.1616e-12
1.28726e-09
-2.88954e-12
1.28885e-09
-1.59891e-12
1.28914e-09
-2.89708e-13
1.28811e-09
1.03998e-12
1.28573e-09
2.37444e-12
1.28201e-09
3.71647e-12
1.27695e-09
5.06579e-12
1.27053e-09
6.42224e-12
1.26274e-09
7.78481e-12
1.25359e-09
9.15215e-12
1.24307e-09
1.05227e-11
1.23117e-09
1.18945e-11
1.21791e-09
1.32659e-11
1.20327e-09
1.46349e-11
1.18727e-09
1.59994e-11
1.16992e-09
1.73572e-11
1.15121e-09
1.87063e-11
1.13116e-09
2.00446e-11
1.10979e-09
2.13702e-11
1.08711e-09
2.26811e-11
1.06313e-09
2.39753e-11
1.03788e-09
2.52505e-11
1.01138e-09
2.65047e-11
9.83641e-10
2.77354e-11
9.547e-10
2.89404e-11
9.24582e-10
3.01176e-11
8.93317e-10
3.12651e-11
8.60937e-10
3.23807e-11
8.27475e-10
3.34624e-11
7.92969e-10
3.45082e-11
7.57455e-10
3.55158e-11
7.20973e-10
3.6483e-11
6.83566e-10
3.74077e-11
6.45277e-10
3.82881e-11
6.06154e-10
3.91225e-11
5.66243e-10
3.99095e-11
5.25595e-10
4.06476e-11
4.84261e-10
4.13351e-11
4.42291e-10
4.19704e-11
3.9974e-10
4.25522e-11
3.56661e-10
4.30792e-11
3.13111e-10
4.35504e-11
2.69147e-10
4.39647e-11
2.24826e-10
4.43214e-11
1.80206e-10
4.46196e-11
1.35347e-10
4.48588e-11
9.03094e-11
4.50384e-11
4.51521e-11
4.51579e-11
-6.35633e-14
4.52162e-11
-4.52795e-11
4.52163e-11
-9.04374e-11
4.51582e-11
-1.35476e-10
4.50387e-11
-1.80335e-10
4.4859e-11
-2.24955e-10
4.46197e-11
-2.69277e-10
4.43212e-11
-3.13242e-10
4.39641e-11
-3.56792e-10
4.35495e-11
-3.99871e-10
4.30784e-11
-4.42423e-10
4.25517e-11
-4.84394e-10
4.19705e-11
-5.2573e-10
4.13359e-11
-5.66379e-10
4.06492e-11
-6.0629e-10
3.99116e-11
-6.45414e-10
3.91247e-11
-6.83703e-10
3.82901e-11
-7.21112e-10
3.74094e-11
-7.57596e-10
3.64844e-11
-7.93114e-10
3.55175e-11
-8.27624e-10
3.45106e-11
-8.61089e-10
3.34652e-11
-8.93474e-10
3.23839e-11
-9.24742e-10
3.12687e-11
-9.54863e-10
3.01214e-11
-9.83807e-10
2.89444e-11
-1.01155e-09
2.77399e-11
-1.03806e-09
2.65095e-11
-1.06331e-09
2.52557e-11
-1.0873e-09
2.39812e-11
-1.10998e-09
2.26872e-11
-1.13136e-09
2.13762e-11
-1.15141e-09
2.0051e-11
-1.17012e-09
1.87129e-11
-1.18749e-09
1.73641e-11
-1.2035e-09
1.60072e-11
-1.21814e-09
1.4644e-11
-1.23142e-09
1.32762e-11
-1.24332e-09
1.1906e-11
-1.25386e-09
1.05353e-11
-1.26302e-09
9.16555e-12
-1.27082e-09
7.79845e-12
-1.27725e-09
6.43559e-12
-1.28233e-09
5.07772e-12
-1.28606e-09
3.72692e-12
-1.28844e-09
2.38364e-12
-1.28949e-09
1.04766e-12
-1.2892e-09
-2.82881e-13
-1.28761e-09
-1.59238e-12
-1.28473e-09
-2.88266e-12
-1.28058e-09
-4.15344e-12
-1.27517e-09
-5.40564e-12
-1.26853e-09
-6.63855e-12
-1.26068e-09
-7.8514e-12
-1.25164e-09
-9.04411e-12
-1.24142e-09
-1.0216e-11
-1.23005e-09
-1.13667e-11
-1.21756e-09
-1.24952e-11
-1.20396e-09
-1.36003e-11
-1.18928e-09
-1.46818e-11
-1.17354e-09
-1.57391e-11
-1.15676e-09
-1.67715e-11
-1.13899e-09
-1.77781e-11
-1.12023e-09
-1.87583e-11
-1.10052e-09
-1.97116e-11
-1.07988e-09
-2.06376e-11
-1.05834e-09
-2.15367e-11
-1.03594e-09
-2.24091e-11
-1.01268e-09
-2.32546e-11
-9.88606e-10
-2.40736e-11
-9.63739e-10
-2.48667e-11
-9.38107e-10
-2.56336e-11
-9.11734e-10
-2.63728e-11
-8.84649e-10
-2.7084e-11
-8.56881e-10
-2.77669e-11
-8.28459e-10
-2.84202e-11
-7.99412e-10
-2.90452e-11
-7.6977e-10
-2.96437e-11
-7.39552e-10
-3.02168e-11
-7.08789e-10
-3.07648e-11
-6.77499e-10
-3.12872e-11
-6.45714e-10
-3.17848e-11
-6.13458e-10
-3.22541e-11
-5.80759e-10
-3.26974e-11
-5.47649e-10
-3.31128e-11
-5.14148e-10
-3.34989e-11
-4.80291e-10
-3.38586e-11
-4.46097e-10
-3.41925e-11
-4.11592e-10
-3.4503e-11
-3.76803e-10
-3.47906e-11
-3.41747e-10
-3.50539e-11
-3.06456e-10
-3.52916e-11
-2.70954e-10
-3.55019e-11
-2.35266e-10
-3.5685e-11
-1.99426e-10
-3.58408e-11
-1.6346e-10
-3.59653e-11
-1.27409e-10
-3.60493e-11
-9.13572e-11
-3.605e-11
-5.56565e-11
-3.57032e-11
-2.22225e-11
-3.34315e-11
-2.2226e-11
3.58897e-11
-5.81731e-11
8.59959e-11
-8.09841e-11
1.37492e-10
-8.5573e-11
1.89417e-10
-8.74989e-11
2.417e-10
-8.85168e-11
2.94155e-10
-8.88406e-11
3.4662e-10
-8.8743e-11
3.98966e-10
-8.84178e-11
4.51105e-10
-8.79613e-11
5.02969e-10
-8.74203e-11
5.54503e-10
-8.68126e-11
6.05665e-10
-8.61432e-11
6.56412e-10
-8.54144e-11
7.06704e-10
-8.46268e-11
7.56504e-10
-8.37801e-11
8.05774e-10
-8.28733e-11
8.54477e-10
-8.19054e-11
9.02574e-10
-8.08756e-11
9.50027e-10
-7.97831e-11
9.96799e-10
-7.8627e-11
1.04285e-09
-7.74066e-11
1.08814e-09
-7.61213e-11
1.13264e-09
-7.47709e-11
1.1763e-09
-7.33548e-11
1.21908e-09
-7.18729e-11
1.26094e-09
-7.03247e-11
1.30185e-09
-6.87101e-11
1.34176e-09
-6.70287e-11
1.38064e-09
-6.52805e-11
1.41844e-09
-6.34653e-11
1.45513e-09
-6.15833e-11
1.49066e-09
-5.96344e-11
1.525e-09
-5.76186e-11
1.5581e-09
-5.5536e-11
1.58993e-09
-5.33867e-11
1.62044e-09
-5.1171e-11
1.6496e-09
-4.88894e-11
1.67736e-09
-4.65425e-11
1.70369e-09
-4.41308e-11
1.72855e-09
-4.16549e-11
1.75191e-09
-3.91153e-11
1.77371e-09
-3.65131e-11
1.79394e-09
-3.38492e-11
1.81255e-09
-3.11251e-11
1.8295e-09
-2.83421e-11
1.84476e-09
-2.55021e-11
1.85831e-09
-2.26068e-11
1.8701e-09
-1.96582e-11
1.88011e-09
-1.66584e-11
1.8883e-09
-1.36095e-11
1.89465e-09
-1.05138e-11
1.89913e-09
-7.37367e-12
1.90172e-09
-4.19135e-12
1.90241e-09
-9.69639e-13
1.90116e-09
2.28936e-12
1.89795e-09
5.57795e-12
1.89278e-09
8.89346e-12
1.88561e-09
1.22328e-11
1.87644e-09
1.55927e-11
1.86525e-09
1.89696e-11
1.85205e-09
2.23598e-11
1.83681e-09
2.5759e-11
1.81954e-09
2.91629e-11
1.80024e-09
3.25668e-11
1.77891e-09
3.5966e-11
1.75555e-09
3.93555e-11
1.73018e-09
4.27302e-11
1.7028e-09
4.60852e-11
1.67343e-09
4.94152e-11
1.64208e-09
5.27154e-11
1.60878e-09
5.59804e-11
1.57355e-09
5.92047e-11
1.53642e-09
6.23829e-11
1.49741e-09
6.55093e-11
1.45657e-09
6.85785e-11
1.41392e-09
7.1585e-11
1.36952e-09
7.45236e-11
1.32339e-09
7.73889e-11
1.2756e-09
8.01755e-11
1.22619e-09
8.28778e-11
1.17521e-09
8.54904e-11
1.12272e-09
8.80081e-11
1.06877e-09
9.04256e-11
1.01344e-09
9.27383e-11
9.56788e-10
9.49416e-11
8.98879e-10
9.70311e-11
8.39786e-10
9.90024e-11
7.79583e-10
1.00851e-10
7.18345e-10
1.02574e-10
6.56152e-10
1.04166e-10
5.93081e-10
1.05624e-10
5.29216e-10
1.06945e-10
4.64639e-10
1.08127e-10
3.99438e-10
1.09167e-10
3.33697e-10
1.10062e-10
2.67506e-10
1.10811e-10
2.00954e-10
1.11412e-10
1.3413e-10
1.11863e-10
6.71244e-11
1.12164e-10
2.80257e-14
1.12313e-10
-6.70687e-11
1.12313e-10
-1.34075e-10
1.12164e-10
-2.00899e-10
1.11863e-10
-2.67453e-10
1.11412e-10
-3.33644e-10
1.1081e-10
-3.99386e-10
1.10061e-10
-4.64588e-10
1.09165e-10
-5.29165e-10
1.08125e-10
-5.93031e-10
1.06944e-10
-6.56102e-10
1.05623e-10
-7.18298e-10
1.04166e-10
-7.79537e-10
1.02576e-10
-8.39741e-10
1.00855e-10
-8.98835e-10
9.90066e-11
-9.56745e-10
9.70355e-11
-1.0134e-09
9.49459e-11
-1.06873e-09
9.27421e-11
-1.12268e-09
9.04289e-11
-1.17517e-09
8.80112e-11
-1.22615e-09
8.54942e-11
-1.27557e-09
8.28823e-11
-1.32337e-09
8.01806e-11
-1.36949e-09
7.7395e-11
-1.4139e-09
7.45304e-11
-1.45655e-09
7.15921e-11
-1.4974e-09
6.85861e-11
-1.53641e-09
6.55175e-11
-1.57354e-09
6.23917e-11
-1.60878e-09
5.92148e-11
-1.64208e-09
5.59917e-11
-1.67343e-09
5.27272e-11
-1.70281e-09
4.94278e-11
-1.7302e-09
4.60986e-11
-1.75558e-09
4.27443e-11
-1.77894e-09
3.93704e-11
-1.80028e-09
3.59823e-11
-1.81959e-09
3.2585e-11
-1.83686e-09
2.91828e-11
-1.85211e-09
2.57805e-11
-1.86532e-09
2.23823e-11
-1.87651e-09
1.89923e-11
-1.88569e-09
1.56151e-11
-1.89287e-09
1.22536e-11
-1.89805e-09
8.91186e-12
-1.90126e-09
5.59448e-12
-1.90252e-09
2.30406e-12
-1.90184e-09
-9.55915e-13
-1.89926e-09
-4.17776e-12
-1.89478e-09
-7.35913e-12
-1.88844e-09
-1.0497e-11
-1.88025e-09
-1.35896e-11
-1.87026e-09
-1.66353e-11
-1.85848e-09
-1.96314e-11
-1.84494e-09
-2.25763e-11
-1.82969e-09
-2.54684e-11
-1.81275e-09
-2.83056e-11
-1.79416e-09
-3.10871e-11
-1.77395e-09
-3.38107e-11
-1.75216e-09
-3.64747e-11
-1.72882e-09
-3.9078e-11
-1.70397e-09
-4.1619e-11
-1.67765e-09
-4.40967e-11
-1.6499e-09
-4.65089e-11
-1.62076e-09
-4.88543e-11
-1.59026e-09
-5.11332e-11
-1.55845e-09
-5.33461e-11
-1.52537e-09
-5.5493e-11
-1.49105e-09
-5.75731e-11
-1.45554e-09
-5.95873e-11
-1.41887e-09
-6.15348e-11
-1.38109e-09
-6.34153e-11
-1.34223e-09
-6.52287e-11
-1.30234e-09
-6.69745e-11
-1.26145e-09
-6.8651e-11
-1.21961e-09
-7.02585e-11
-1.17686e-09
-7.17974e-11
-1.13324e-09
-7.32711e-11
-1.08877e-09
-7.46767e-11
-1.04352e-09
-7.6021e-11
-9.97499e-10
-7.73007e-11
-9.50765e-10
-7.85168e-11
-9.03352e-10
-7.96682e-11
-8.55296e-10
-8.07528e-11
-8.06639e-10
-8.17709e-11
-7.57414e-10
-8.27212e-11
-7.07664e-10
-8.3608e-11
-6.57424e-10
-8.44318e-11
-6.06731e-10
-8.51947e-11
-5.55623e-10
-8.58993e-11
-5.04133e-10
-8.65418e-11
-4.523e-10
-8.71222e-11
-4.00164e-10
-8.76397e-11
-3.47757e-10
-8.80908e-11
-2.95117e-10
-8.84787e-11
-2.42279e-10
-8.88028e-11
-1.89278e-10
-8.90526e-11
-1.36168e-10
-8.91564e-11
-8.3314e-11
-8.85566e-11
-3.32428e-11
-8.34956e-11
-5.54723e-11
3.70576e-11
-9.52297e-11
9.13548e-11
-1.35281e-10
1.47129e-10
-1.41347e-10
2.0261e-10
-1.42979e-10
2.57923e-10
-1.43828e-10
3.13166e-10
-1.44082e-10
3.68341e-10
-1.43917e-10
4.23383e-10
-1.43459e-10
4.78225e-10
-1.42803e-10
5.32803e-10
-1.41998e-10
5.8706e-10
-1.4107e-10
6.40947e-10
-1.40029e-10
6.94415e-10
-1.38882e-10
7.4742e-10
-1.37631e-10
7.99919e-10
-1.36279e-10
8.51869e-10
-1.34824e-10
9.03231e-10
-1.33267e-10
9.53963e-10
-1.31607e-10
1.00402e-09
-1.29842e-10
1.05337e-09
-1.27974e-10
1.10197e-09
-1.26e-10
1.14977e-09
-1.2392e-10
1.19673e-09
-1.21734e-10
1.24282e-09
-1.1944e-10
1.28799e-09
-1.1704e-10
1.33219e-09
-1.14531e-10
1.3754e-09
-1.11913e-10
1.41755e-09
-1.09186e-10
1.45862e-09
-1.06351e-10
1.49856e-09
-1.03406e-10
1.53733e-09
-1.00351e-10
1.57489e-09
-9.71876e-11
1.61118e-09
-9.39145e-11
1.64618e-09
-9.05321e-11
1.67983e-09
-8.70408e-11
1.7121e-09
-8.34411e-11
1.74295e-09
-7.97339e-11
1.77232e-09
-7.59198e-11
1.80019e-09
-7.19997e-11
1.82651e-09
-6.79746e-11
1.85124e-09
-6.38456e-11
1.87434e-09
-5.96143e-11
1.89577e-09
-5.52825e-11
1.9155e-09
-5.08524e-11
1.93348e-09
-4.63262e-11
1.94969e-09
-4.17066e-11
1.96408e-09
-3.69964e-11
1.97662e-09
-3.21986e-11
1.98728e-09
-2.73167e-11
1.99602e-09
-2.23542e-11
2.00282e-09
-1.73149e-11
2.00765e-09
-1.22031e-11
2.01048e-09
-7.02336e-12
2.01129e-09
-1.78134e-12
2.01007e-09
3.51878e-12
2.00677e-09
8.87231e-12
2.00139e-09
1.42737e-11
1.99391e-09
1.97167e-11
1.9843e-09
2.51953e-11
1.97257e-09
3.0703e-11
1.9587e-09
3.62334e-11
1.94268e-09
4.17796e-11
1.92451e-09
4.73343e-11
1.90418e-09
5.289e-11
1.88171e-09
5.8439e-11
1.85709e-09
6.39732e-11
1.83034e-09
6.94845e-11
1.80146e-09
7.49649e-11
1.77046e-09
8.04059e-11
1.73738e-09
8.5799e-11
1.70222e-09
9.11354e-11
1.66502e-09
9.64061e-11
1.6258e-09
1.01602e-10
1.5846e-09
1.06714e-10
1.54144e-09
1.11734e-10
1.49637e-09
1.16652e-10
1.44944e-09
1.2146e-10
1.40068e-09
1.26148e-10
1.35014e-09
1.30708e-10
1.29789e-09
1.3513e-10
1.24398e-09
1.39407e-10
1.18846e-09
1.43528e-10
1.1314e-09
1.47487e-10
1.07286e-09
1.51274e-10
1.01292e-09
1.54883e-10
9.51648e-10
1.58306e-10
8.89116e-10
1.61535e-10
8.25403e-10
1.64564e-10
7.60591e-10
1.67387e-10
6.94761e-10
1.69996e-10
6.27999e-10
1.72386e-10
5.60392e-10
1.74553e-10
4.92029e-10
1.76491e-10
4.22999e-10
1.78196e-10
3.53397e-10
1.79664e-10
2.83315e-10
1.80893e-10
2.12848e-10
1.81878e-10
1.42092e-10
1.82619e-10
7.11427e-11
1.83114e-10
9.57265e-14
1.83361e-10
-7.09516e-11
1.83362e-10
-1.41902e-10
1.83114e-10
-2.12659e-10
1.8262e-10
-2.83126e-10
1.81878e-10
-3.53209e-10
1.80892e-10
-4.22812e-10
1.79663e-10
-4.91842e-10
1.78194e-10
-5.60206e-10
1.7649e-10
-6.27813e-10
1.74553e-10
-6.94576e-10
1.72387e-10
-7.60406e-10
1.69998e-10
-8.2522e-10
1.6739e-10
-8.88934e-10
1.64568e-10
-9.51467e-10
1.6154e-10
-1.01274e-09
1.5831e-10
-1.07268e-09
1.54888e-10
-1.13122e-09
1.51279e-10
-1.18828e-09
1.47491e-10
-1.2438e-09
1.43533e-10
-1.29772e-09
1.39412e-10
-1.34997e-09
1.35136e-10
-1.40051e-09
1.30714e-10
-1.44927e-09
1.26155e-10
-1.4962e-09
1.21468e-10
-1.54127e-09
1.16661e-10
-1.58443e-09
1.11743e-10
-1.62564e-09
1.06725e-10
-1.66486e-09
1.01613e-10
-1.70207e-09
9.64184e-11
-1.73722e-09
9.1149e-11
-1.77031e-09
8.58134e-11
-1.8013e-09
8.04211e-11
-1.83019e-09
7.49813e-11
-1.85694e-09
6.95021e-11
-1.88157e-09
6.39917e-11
-1.90404e-09
5.84589e-11
-1.92437e-09
5.29117e-11
-1.94254e-09
4.73576e-11
-1.95856e-09
4.18043e-11
-1.97244e-09
3.6259e-11
-1.98417e-09
3.07286e-11
-1.99378e-09
2.52204e-11
-2.00126e-09
1.97409e-11
-2.00665e-09
1.4296e-11
-2.00994e-09
8.89313e-12
-2.01118e-09
3.53859e-12
-2.01037e-09
-1.76231e-12
-2.00754e-09
-7.00402e-12
-2.00272e-09
-1.21829e-11
-1.99592e-09
-1.72928e-11
-1.98718e-09
-2.23292e-11
-1.97653e-09
-2.72886e-11
-1.96399e-09
-3.21671e-11
-1.94961e-09
-3.69615e-11
-1.93341e-09
-4.16687e-11
-1.91543e-09
-4.62857e-11
-1.8957e-09
-5.08104e-11
-1.87427e-09
-5.52402e-11
-1.85118e-09
-5.9572e-11
-1.82645e-09
-6.38039e-11
-1.80014e-09
-6.79336e-11
-1.77227e-09
-7.19596e-11
-1.7429e-09
-7.58798e-11
-1.71206e-09
-7.96926e-11
-1.6798e-09
-8.33979e-11
-1.64615e-09
-8.6995e-11
-1.61116e-09
-9.0484e-11
-1.57487e-09
-9.38643e-11
-1.53732e-09
-9.71355e-11
-1.49856e-09
-1.00297e-10
-1.45862e-09
-1.03349e-10
-1.41756e-09
-1.06292e-10
-1.3754e-09
-1.09126e-10
-1.3322e-09
-1.11848e-10
-1.288e-09
-1.1446e-10
-1.24284e-09
-1.16961e-10
-1.19675e-09
-1.19354e-10
-1.14979e-09
-1.21639e-10
-1.10199e-09
-1.2382e-10
-1.05339e-09
-1.25895e-10
-1.00405e-09
-1.27866e-10
-9.53984e-10
-1.29731e-10
-9.03248e-10
-1.31489e-10
-8.51877e-10
-1.33141e-10
-7.99911e-10
-1.34687e-10
-7.47389e-10
-1.36129e-10
-6.94353e-10
-1.37469e-10
-6.4084e-10
-1.38709e-10
-5.8689e-10
-1.39848e-10
-5.32541e-10
-1.40888e-10
-4.77834e-10
-1.41828e-10
-4.22806e-10
-1.42666e-10
-3.67494e-10
-1.43403e-10
-3.11934e-10
-1.44039e-10
-2.56161e-10
-1.44573e-10
-2.00214e-10
-1.45e-10
-1.4416e-10
-1.45212e-10
-8.83813e-11
-1.44333e-10
-3.55057e-11
-1.36367e-10
-9.09778e-11
3.62923e-11
-1.31521e-10
9.07864e-11
-1.89775e-10
1.47657e-10
-1.98218e-10
2.04206e-10
-1.99529e-10
2.60367e-10
-1.99987e-10
3.16295e-10
-2.00009e-10
3.72039e-10
-1.99659e-10
4.27585e-10
-1.99005e-10
4.829e-10
-1.98117e-10
5.37937e-10
-1.97034e-10
5.92646e-10
-1.95779e-10
6.46982e-10
-1.94364e-10
7.00899e-10
-1.92798e-10
7.54351e-10
-1.91084e-10
8.07297e-10
-1.89225e-10
8.59694e-10
-1.87221e-10
9.11501e-10
-1.85074e-10
9.62676e-10
-1.82781e-10
1.01318e-09
-1.80343e-10
1.06297e-09
-1.77759e-10
1.112e-09
-1.75029e-10
1.16023e-09
-1.72151e-10
1.20762e-09
-1.69125e-10
1.25413e-09
-1.6595e-10
1.29972e-09
-1.62626e-10
1.34434e-09
-1.59151e-10
1.38795e-09
-1.55524e-10
1.43051e-09
-1.51747e-10
1.47198e-09
-1.47817e-10
1.51231e-09
-1.43736e-10
1.55146e-09
-1.39502e-10
1.58939e-09
-1.35116e-10
1.62605e-09
-1.30577e-10
1.6614e-09
-1.25886e-10
1.6954e-09
-1.21044e-10
1.72801e-09
-1.16051e-10
1.75919e-09
-1.10908e-10
1.78888e-09
-1.05616e-10
1.81706e-09
-1.00176e-10
1.84367e-09
-9.45898e-11
1.86869e-09
-8.88592e-11
1.89206e-09
-8.29862e-11
1.91375e-09
-7.69734e-11
1.93372e-09
-7.08237e-11
1.95193e-09
-6.45401e-11
1.96835e-09
-5.81261e-11
1.98294e-09
-5.15856e-11
1.99567e-09
-4.49228e-11
2.00649e-09
-3.81424e-11
2.01538e-09
-3.12494e-11
2.02232e-09
-2.42491e-11
2.02726e-09
-1.71473e-11
2.03019e-09
-9.95035e-12
2.03108e-09
-2.66573e-12
2.0299e-09
4.70076e-12
2.02663e-09
1.21424e-11
2.02125e-09
1.96514e-11
2.01374e-09
2.72197e-11
2.0041e-09
3.48385e-11
1.9923e-09
4.24992e-11
1.97835e-09
5.01922e-11
1.96222e-09
5.7908e-11
1.94392e-09
6.56365e-11
1.92344e-09
7.33671e-11
1.90079e-09
8.10892e-11
1.87597e-09
8.87917e-11
1.84899e-09
9.64635e-11
1.81986e-09
1.04093e-10
1.7886e-09
1.11669e-10
1.75522e-09
1.19178e-10
1.71975e-09
1.2661e-10
1.6822e-09
1.3395e-10
1.64261e-09
1.41187e-10
1.60102e-09
1.48309e-10
1.55745e-09
1.55302e-10
1.51195e-09
1.62155e-10
1.46455e-09
1.68854e-10
1.41531e-09
1.75387e-10
1.36428e-09
1.81741e-10
1.31151e-09
1.87904e-10
1.25705e-09
1.93865e-10
1.20097e-09
1.9961e-10
1.14333e-09
2.05129e-10
1.0842e-09
2.1041e-10
1.02364e-09
2.15441e-10
9.61731e-10
2.20214e-10
8.98549e-10
2.24717e-10
8.34173e-10
2.28941e-10
7.68682e-10
2.32877e-10
7.02161e-10
2.36516e-10
6.34696e-10
2.39851e-10
5.66375e-10
2.42874e-10
4.97288e-10
2.45578e-10
4.27527e-10
2.47957e-10
3.57184e-10
2.50006e-10
2.86356e-10
2.5172e-10
2.15138e-10
2.53096e-10
1.43628e-10
2.54131e-10
7.19217e-11
2.54822e-10
1.1697e-13
2.55167e-10
-7.16881e-11
2.55167e-10
-1.43396e-10
2.54822e-10
-2.14908e-10
2.5413e-10
-2.86126e-10
2.53095e-10
-3.56955e-10
2.51719e-10
-4.27298e-10
2.50005e-10
-4.97059e-10
2.47956e-10
-5.66146e-10
2.45578e-10
-6.34467e-10
2.42876e-10
-7.01932e-10
2.39854e-10
-7.68454e-10
2.3652e-10
-8.33946e-10
2.32881e-10
-8.98324e-10
2.28945e-10
-9.61506e-10
2.24721e-10
-1.02341e-09
2.20218e-10
-1.08397e-09
2.15446e-10
-1.14311e-09
2.10415e-10
-1.20075e-09
2.05135e-10
-1.25683e-09
1.99616e-10
-1.31129e-09
1.93871e-10
-1.36406e-09
1.87911e-10
-1.4151e-09
1.81747e-10
-1.46434e-09
1.75394e-10
-1.51173e-09
1.68862e-10
-1.55724e-09
1.62165e-10
-1.60081e-09
1.55313e-10
-1.6424e-09
1.48321e-10
-1.68199e-09
1.41201e-10
-1.71954e-09
1.33964e-10
-1.75501e-09
1.26624e-10
-1.78839e-09
1.19194e-10
-1.81966e-09
1.11685e-10
-1.84879e-09
1.04111e-10
-1.87577e-09
9.64833e-11
-1.90059e-09
8.88128e-11
-1.92324e-09
8.11116e-11
-1.94372e-09
7.33908e-11
-1.96202e-09
6.56612e-11
-1.97815e-09
5.79337e-11
-1.9921e-09
5.02188e-11
-2.0039e-09
4.25259e-11
-2.01355e-09
3.48651e-11
-2.02105e-09
2.7246e-11
-2.02643e-09
1.96768e-11
-2.0297e-09
1.21667e-11
-2.03088e-09
4.72441e-12
-2.03e-09
-2.64268e-12
-2.02708e-09
-9.92709e-12
-2.02214e-09
-1.71232e-11
-2.01521e-09
-2.42236e-11
-2.00632e-09
-3.12214e-11
-1.99549e-09
-3.81115e-11
-1.98277e-09
-4.48889e-11
-1.96819e-09
-5.15488e-11
-1.95177e-09
-5.80869e-11
-1.93355e-09
-6.44991e-11
-1.91358e-09
-7.07815e-11
-1.89189e-09
-7.69308e-11
-1.86852e-09
-8.29431e-11
-1.84351e-09
-8.88159e-11
-1.81689e-09
-9.45466e-11
-1.78872e-09
-1.00133e-10
-1.75903e-09
-1.05572e-10
-1.72786e-09
-1.10864e-10
-1.69525e-09
-1.16006e-10
-1.66125e-09
-1.20997e-10
-1.62589e-09
-1.25837e-10
-1.58923e-09
-1.30526e-10
-1.55131e-09
-1.35062e-10
-1.51215e-09
-1.39446e-10
-1.47182e-09
-1.43678e-10
-1.43036e-09
-1.47758e-10
-1.3878e-09
-1.51686e-10
-1.34418e-09
-1.5546e-10
-1.29956e-09
-1.59082e-10
-1.25397e-09
-1.62552e-10
-1.20745e-09
-1.6587e-10
-1.16005e-09
-1.6904e-10
-1.11181e-09
-1.72062e-10
-1.06276e-09
-1.74937e-10
-1.01296e-09
-1.77667e-10
-9.62446e-10
-1.80249e-10
-9.1125e-10
-1.82684e-10
-8.59417e-10
-1.84974e-10
-8.06986e-10
-1.87117e-10
-7.53997e-10
-1.89118e-10
-7.0049e-10
-1.90977e-10
-6.46503e-10
-1.92695e-10
-5.92077e-10
-1.94274e-10
-5.37251e-10
-1.95713e-10
-4.82065e-10
-1.97015e-10
-4.26554e-10
-1.98176e-10
-3.70758e-10
-1.99199e-10
-3.1471e-10
-2.00085e-10
-2.58453e-10
-2.00832e-10
-2.02017e-10
-2.0143e-10
-1.45488e-10
-2.01742e-10
-8.92543e-11
-2.00567e-10
-3.59609e-11
-1.89661e-10
-1.26935e-10
3.59168e-11
-1.67439e-10
9.00305e-11
-2.43889e-10
1.47084e-10
-2.55271e-10
2.04087e-10
-2.5653e-10
2.6071e-10
-2.56609e-10
3.17026e-10
-2.56325e-10
3.73084e-10
-2.55717e-10
4.28897e-10
-2.54819e-10
4.84444e-10
-2.53665e-10
5.39691e-10
-2.52281e-10
5.94599e-10
-2.50686e-10
6.49125e-10
-2.4889e-10
7.03227e-10
-2.469e-10
7.56863e-10
-2.4472e-10
8.09991e-10
-2.42354e-10
8.62571e-10
-2.39801e-10
9.1456e-10
-2.37063e-10
9.65918e-10
-2.34138e-10
1.0166e-09
-2.31027e-10
1.06657e-09
-2.27728e-10
1.11579e-09
-2.24242e-10
1.1642e-09
-2.20566e-10
1.21178e-09
-2.16701e-10
1.25848e-09
-2.12645e-10
1.30425e-09
-2.08397e-10
1.34905e-09
-2.03956e-10
1.39285e-09
-1.99321e-10
1.4356e-09
-1.94492e-10
1.47725e-09
-1.89469e-10
1.51776e-09
-1.8425e-10
1.55709e-09
-1.78836e-10
1.5952e-09
-1.73226e-10
1.63205e-09
-1.6742e-10
1.66758e-09
-1.6142e-10
1.70176e-09
-1.55225e-10
1.73455e-09
-1.48837e-10
1.76589e-09
-1.42256e-10
1.79576e-09
-1.35484e-10
1.82411e-09
-1.28521e-10
1.85089e-09
-1.21371e-10
1.87606e-09
-1.14036e-10
1.8996e-09
-1.06517e-10
1.92144e-09
-9.88198e-11
1.94156e-09
-9.09461e-11
1.95992e-09
-8.29003e-11
1.97648e-09
-7.46866e-11
1.99121e-09
-6.63102e-11
2.00406e-09
-5.77765e-11
2.01501e-09
-4.90914e-11
2.02402e-09
-4.02612e-11
2.03106e-09
-3.12924e-11
2.03611e-09
-2.21926e-11
2.03913e-09
-1.29696e-11
2.0401e-09
-3.63283e-12
2.03899e-09
5.81045e-12
2.03578e-09
1.53506e-11
2.03046e-09
2.49778e-11
2.02299e-09
3.46818e-11
2.01338e-09
4.44519e-11
2.0016e-09
5.42765e-11
1.98765e-09
6.41435e-11
1.97152e-09
7.40406e-11
1.9532e-09
8.39547e-11
1.9327e-09
9.38726e-11
1.91001e-09
1.03781e-10
1.88513e-09
1.13665e-10
1.85809e-09
1.2351e-10
1.82888e-09
1.33302e-10
1.79752e-09
1.43026e-10
1.76403e-09
1.52666e-10
1.72844e-09
1.62205e-10
1.69076e-09
1.71629e-10
1.65102e-09
1.80922e-10
1.60926e-09
1.90067e-10
1.56552e-09
1.99048e-10
1.51982e-09
2.07848e-10
1.47222e-09
2.16452e-10
1.42276e-09
2.24843e-10
1.3715e-09
2.33006e-10
1.31848e-09
2.40924e-10
1.26377e-09
2.48582e-10
1.20741e-09
2.55964e-10
1.14949e-09
2.63055e-10
1.09006e-09
2.6984e-10
1.0292e-09
2.76306e-10
9.6697e-10
2.82439e-10
9.0346e-10
2.88226e-10
8.38746e-10
2.93656e-10
7.72908e-10
2.98715e-10
7.06032e-10
3.03394e-10
6.38203e-10
3.0768e-10
5.69512e-10
3.11566e-10
5.00047e-10
3.15042e-10
4.29902e-10
3.18101e-10
3.59172e-10
3.20735e-10
2.87952e-10
3.2294e-10
2.1634e-10
3.24709e-10
1.44432e-10
3.2604e-10
7.23261e-11
3.26929e-10
1.21273e-13
3.27373e-10
-7.2084e-11
3.27373e-10
-1.44191e-10
3.26928e-10
-2.16101e-10
3.26039e-10
-2.87715e-10
3.24708e-10
-3.58935e-10
3.22939e-10
-4.29665e-10
3.20735e-10
-4.99809e-10
3.18102e-10
-5.69273e-10
3.15044e-10
-6.37965e-10
3.11569e-10
-7.05794e-10
3.07683e-10
-7.72672e-10
3.03397e-10
-8.3851e-10
2.98719e-10
-9.03226e-10
2.9366e-10
-9.66736e-10
2.88231e-10
-1.02896e-09
2.82444e-10
-1.08983e-09
2.76312e-10
-1.14926e-09
2.69846e-10
-1.20718e-09
2.63061e-10
-1.26353e-09
2.5597e-10
-1.31825e-09
2.48588e-10
-1.37127e-09
2.4093e-10
-1.42254e-09
2.33013e-10
-1.472e-09
2.24852e-10
-1.5196e-09
2.16462e-10
-1.56529e-09
2.0786e-10
-1.60904e-09
1.99061e-10
-1.6508e-09
1.90081e-10
-1.69054e-09
1.80937e-10
-1.72822e-09
1.71645e-10
-1.76382e-09
1.62221e-10
-1.7973e-09
1.52683e-10
-1.82866e-09
1.43044e-10
-1.85787e-09
1.33322e-10
-1.88492e-09
1.23531e-10
-1.90979e-09
1.13687e-10
-1.93248e-09
1.03805e-10
-1.95299e-09
9.38975e-11
-1.97131e-09
8.39802e-11
-1.98744e-09
7.40667e-11
-2.00139e-09
6.41705e-11
-2.01317e-09
5.43041e-11
-2.02278e-09
4.44797e-11
-2.03024e-09
3.47099e-11
-2.03557e-09
2.50056e-11
-2.03878e-09
1.53775e-11
-2.03989e-09
5.83666e-12
-2.03893e-09
-3.60696e-12
-2.03591e-09
-1.29438e-11
-2.03087e-09
-2.21657e-11
-2.02383e-09
-3.1264e-11
-2.01482e-09
-4.02303e-11
-2.00387e-09
-4.90581e-11
-1.99102e-09
-5.7741e-11
-1.9763e-09
-6.62726e-11
-1.95974e-09
-7.46471e-11
-1.94138e-09
-8.28593e-11
-1.92126e-09
-9.0904e-11
-1.89941e-09
-9.87768e-11
-1.87588e-09
-1.06474e-10
-1.8507e-09
-1.13991e-10
-1.82392e-09
-1.21327e-10
-1.79558e-09
-1.28476e-10
-1.76571e-09
-1.35438e-10
-1.73437e-09
-1.42211e-10
-1.70158e-09
-1.4879e-10
-1.6674e-09
-1.55177e-10
-1.63187e-09
-1.6137e-10
-1.59502e-09
-1.67368e-10
-1.55691e-09
-1.73172e-10
-1.51758e-09
-1.7878e-10
-1.47706e-09
-1.84193e-10
-1.43541e-09
-1.8941e-10
-1.39266e-09
-1.94432e-10
-1.34886e-09
-1.9926e-10
-1.30405e-09
-2.03891e-10
-1.25827e-09
-2.08328e-10
-1.21157e-09
-2.12572e-10
-1.16398e-09
-2.16626e-10
-1.11555e-09
-2.2049e-10
-1.06633e-09
-2.24166e-10
-1.01634e-09
-2.27653e-10
-9.65635e-10
-2.30952e-10
-9.14254e-10
-2.34064e-10
-8.62236e-10
-2.3699e-10
-8.09622e-10
-2.39732e-10
-7.56451e-10
-2.4229e-10
-7.02761e-10
-2.44667e-10
-6.48592e-10
-2.46863e-10
-5.93985e-10
-2.4888e-10
-5.38976e-10
-2.5072e-10
-4.83608e-10
-2.52383e-10
-4.27916e-10
-2.53867e-10
-3.71939e-10
-2.55177e-10
-3.15709e-10
-2.56312e-10
-2.59274e-10
-2.5727e-10
-2.02665e-10
-2.58037e-10
-1.45965e-10
-2.58441e-10
-8.95731e-11
-2.56961e-10
-3.61338e-11
-2.43103e-10
-1.63066e-10
3.58517e-11
-2.03291e-10
8.97909e-11
-2.97829e-10
1.46885e-10
-3.12366e-10
2.04117e-10
-3.13762e-10
2.61045e-10
-3.13537e-10
3.17666e-10
-3.12947e-10
3.7401e-10
-3.12062e-10
4.30081e-10
-3.10891e-10
4.85863e-10
-3.09448e-10
5.41329e-10
-3.07747e-10
5.96444e-10
-3.058e-10
6.51169e-10
-3.03615e-10
7.05466e-10
-3.01197e-10
7.59294e-10
-2.98549e-10
8.12612e-10
-2.95674e-10
8.65382e-10
-2.92572e-10
9.17561e-10
-2.89242e-10
9.69109e-10
-2.85686e-10
1.01999e-09
-2.81902e-10
1.07015e-09
-2.7789e-10
1.11955e-09
-2.73648e-10
1.16816e-09
-2.69176e-10
1.21594e-09
-2.64472e-10
1.26283e-09
-2.59535e-10
1.30879e-09
-2.54364e-10
1.3538e-09
-2.48958e-10
1.39779e-09
-2.43315e-10
1.44073e-09
-2.37435e-10
1.48258e-09
-2.31318e-10
1.5233e-09
-2.24962e-10
1.56283e-09
-2.18367e-10
1.60113e-09
-2.11534e-10
1.63818e-09
-2.04461e-10
1.67391e-09
-1.97151e-10
1.70828e-09
-1.89603e-10
1.74126e-09
-1.81818e-10
1.77281e-09
-1.73798e-10
1.80287e-09
-1.65543e-10
1.8314e-09
-1.57056e-10
1.85837e-09
-1.4834e-10
1.88373e-09
-1.39397e-10
1.90744e-09
-1.3023e-10
1.92947e-09
-1.20844e-10
1.94976e-09
-1.11242e-10
1.96829e-09
-1.01429e-10
1.98502e-09
-9.14112e-11
1.9999e-09
-8.11936e-11
2.01291e-09
-7.07832e-11
2.024e-09
-6.01869e-11
2.03315e-09
-4.94122e-11
2.04033e-09
-3.84674e-11
2.04549e-09
-2.73613e-11
2.04863e-09
-1.61037e-11
2.0497e-09
-4.70552e-12
2.04869e-09
6.82396e-12
2.04557e-09
1.84728e-11
2.04032e-09
3.02291e-11
2.03292e-09
4.20803e-11
2.02336e-09
5.40132e-11
2.01162e-09
6.60137e-11
1.9977e-09
7.80672e-11
1.98158e-09
9.01584e-11
1.96327e-09
1.02272e-10
1.94275e-09
1.14391e-10
1.92003e-09
1.26499e-10
1.89512e-09
1.38579e-10
1.86801e-09
1.50614e-10
1.83873e-09
1.62583e-10
1.80729e-09
1.7447e-10
1.7737e-09
1.86256e-10
1.73798e-09
1.9792e-10
1.70017e-09
2.09444e-10
1.66028e-09
2.20809e-10
1.61835e-09
2.31993e-10
1.57442e-09
2.42978e-10
1.52853e-09
2.53742e-10
1.48071e-09
2.64267e-10
1.43102e-09
2.74533e-10
1.37951e-09
2.84519e-10
1.32622e-09
2.94208e-10
1.27123e-09
3.03578e-10
1.21458e-09
3.12611e-10
1.15635e-09
3.21289e-10
1.09659e-09
3.29593e-10
1.03539e-09
3.37507e-10
9.72818e-10
3.45014e-10
9.08946e-10
3.52098e-10
8.43857e-10
3.58745e-10
7.77634e-10
3.64939e-10
7.10362e-10
3.70666e-10
6.42129e-10
3.75915e-10
5.73023e-10
3.80672e-10
5.03137e-10
3.84928e-10
4.32564e-10
3.88673e-10
3.61399e-10
3.91899e-10
2.89741e-10
3.94599e-10
2.17685e-10
3.96766e-10
1.4533e-10
3.98396e-10
7.27761e-11
3.99484e-10
1.21713e-13
4.00028e-10
-7.2533e-11
4.00027e-10
-1.45088e-10
3.99483e-10
-2.17444e-10
3.98395e-10
-2.89501e-10
3.96766e-10
-3.6116e-10
3.94599e-10
-4.32324e-10
3.919e-10
-5.02896e-10
3.88675e-10
-5.72782e-10
3.8493e-10
-6.41888e-10
3.80674e-10
-7.10123e-10
3.75917e-10
-7.77396e-10
3.70669e-10
-8.4362e-10
3.64942e-10
-9.0871e-10
3.58749e-10
-9.72582e-10
3.52104e-10
-1.03516e-09
3.4502e-10
-1.09636e-09
3.37514e-10
-1.15611e-09
3.29599e-10
-1.21435e-09
3.21295e-10
-1.271e-09
3.12617e-10
-1.32599e-09
3.03585e-10
-1.37928e-09
2.94215e-10
-1.43079e-09
2.84529e-10
-1.48048e-09
2.74543e-10
-1.5283e-09
2.64279e-10
-1.57419e-09
2.53755e-10
-1.61813e-09
2.42991e-10
-1.66005e-09
2.32008e-10
-1.69994e-09
2.20825e-10
-1.73776e-09
2.09461e-10
-1.77348e-09
1.97938e-10
-1.80707e-09
1.86274e-10
-1.83851e-09
1.7449e-10
-1.86779e-09
1.62604e-10
-1.8949e-09
1.50636e-10
-1.91981e-09
1.38603e-10
-1.94253e-09
1.26524e-10
-1.96305e-09
1.14416e-10
-1.98137e-09
1.02298e-10
-1.99748e-09
9.01852e-11
-2.01141e-09
7.80947e-11
-2.02314e-09
6.60421e-11
-2.0327e-09
5.40419e-11
-2.0401e-09
4.21092e-11
-2.04535e-09
3.02579e-11
-2.04848e-09
1.8501e-11
-2.04949e-09
6.8517e-12
-2.04842e-09
-4.67765e-12
-2.04529e-09
-1.60757e-11
-2.04013e-09
-2.73319e-11
-2.03295e-09
-3.84363e-11
-2.0238e-09
-4.93791e-11
-2.01271e-09
-6.01519e-11
-1.99971e-09
-7.07467e-11
-1.98483e-09
-8.11557e-11
-1.9681e-09
-9.13717e-11
-1.94957e-09
-1.01388e-10
-1.92928e-09
-1.11199e-10
-1.90725e-09
-1.208e-10
-1.88354e-09
-1.30186e-10
-1.85818e-09
-1.39352e-10
-1.83121e-09
-1.48295e-10
-1.80268e-09
-1.57011e-10
-1.77262e-09
-1.65497e-10
-1.74108e-09
-1.73751e-10
-1.7081e-09
-1.8177e-10
-1.67372e-09
-1.89554e-10
-1.63799e-09
-1.97101e-10
-1.60095e-09
-2.04409e-10
-1.56264e-09
-2.1148e-10
-1.52311e-09
-2.18313e-10
-1.48239e-09
-2.24906e-10
-1.44054e-09
-2.31261e-10
-1.39759e-09
-2.37377e-10
-1.3536e-09
-2.43256e-10
-1.30859e-09
-2.48897e-10