/*--------------------------------*- C++ -*----------------------------------*\
| =========                 |                                                 |
| \\      /  F ield         | OpenFOAM: The Open Source CFD Toolbox           |
|  \\    /   O peration     | Version:  2412                                  |
|   \\  /    A nd           | Website:  www.openfoam.com                      |
|    \\/     M anipulation  |                                                 |
\*---------------------------------------------------------------------------*/
FoamFile
{
    version     2.0;
    format      ascii;
    arch        "LSB;label=32;scalar=64";
    class       volVectorField;
    location    "1.14";
    object      U;
}
// * * * * * * * * * * * * * * * * * * * * * * * * * * * * * * * * * * * * * //

dimensions      [0 1 -1 0 0 0 0];

internalField   nonuniform List<vector> 
40000
(
(9.43905e-06 -8.02556e-06 0)
(3.73969e-05 -9.74816e-06 0)
(7.0064e-05 -1.15241e-05 0)
(0.000104701 -1.24115e-05 0)
(0.00014086 -1.27066e-05 0)
(0.000177262 -1.27768e-05 0)
(0.000213622 -1.27173e-05 0)
(0.000249807 -1.2623e-05 0)
(0.000285759 -1.25164e-05 0)
(0.000321457 -1.24109e-05 0)
(0.000356879 -1.23064e-05 0)
(0.000392013 -1.21979e-05 0)
(0.000426842 -1.20842e-05 0)
(0.000461347 -1.19647e-05 0)
(0.000495509 -1.18387e-05 0)
(0.000529304 -1.17051e-05 0)
(0.000562712 -1.15631e-05 0)
(0.000595707 -1.14128e-05 0)
(0.000628266 -1.12539e-05 0)
(0.000660364 -1.10863e-05 0)
(0.000691975 -1.09095e-05 0)
(0.000723073 -1.07236e-05 0)
(0.000753632 -1.05284e-05 0)
(0.000783626 -1.03237e-05 0)
(0.000813028 -1.01097e-05 0)
(0.00084181 -9.88641e-06 0)
(0.000869945 -9.65385e-06 0)
(0.000897407 -9.41201e-06 0)
(0.00092417 -9.16088e-06 0)
(0.000950207 -8.9004e-06 0)
(0.00097549 -8.63056e-06 0)
(0.000999994 -8.35137e-06 0)
(0.00102369 -8.06288e-06 0)
(0.00104655 -7.76514e-06 0)
(0.00106855 -7.45817e-06 0)
(0.00108967 -7.14202e-06 0)
(0.00110987 -6.81673e-06 0)
(0.00112913 -6.48237e-06 0)
(0.00114742 -6.13905e-06 0)
(0.00116472 -5.78687e-06 0)
(0.001181 -5.42594e-06 0)
(0.00119624 -5.0564e-06 0)
(0.00121041 -4.6784e-06 0)
(0.00122348 -4.29211e-06 0)
(0.00123543 -3.89773e-06 0)
(0.00124625 -3.49549e-06 0)
(0.0012559 -3.0857e-06 0)
(0.00126437 -2.6687e-06 0)
(0.00127163 -2.24486e-06 0)
(0.00127767 -1.81452e-06 0)
(0.00128246 -1.37787e-06 0)
(0.00128599 -9.34912e-07 0)
(0.00128823 -4.84955e-07 0)
(0.00128918 -2.6963e-08 0)
(0.00128881 4.35773e-07 0)
(0.0012871 9.01578e-07 0)
(0.00128406 1.36851e-06 0)
(0.00127967 1.83701e-06 0)
(0.00127392 2.30745e-06 0)
(0.00126682 2.77967e-06 0)
(0.00125835 3.25328e-06 0)
(0.00124852 3.72779e-06 0)
(0.00123731 4.20256e-06 0)
(0.00122473 4.67697e-06 0)
(0.00121078 5.15033e-06 0)
(0.00119546 5.62192e-06 0)
(0.00117878 6.09098e-06 0)
(0.00116075 6.55678e-06 0)
(0.00114137 7.01862e-06 0)
(0.00112066 7.47585e-06 0)
(0.00109863 7.92784e-06 0)
(0.0010753 8.37392e-06 0)
(0.00105068 8.81338e-06 0)
(0.0010248 9.24544e-06 0)
(0.000997675 9.6693e-06 0)
(0.000969333 1.00842e-05 0)
(0.000939799 1.04895e-05 0)
(0.000909103 1.08844e-05 0)
(0.000877276 1.12684e-05 0)
(0.00084435 1.16407e-05 0)
(0.00081036 1.20007e-05 0)
(0.000775345 1.23476e-05 0)
(0.000739341 1.26806e-05 0)
(0.000702391 1.2999e-05 0)
(0.000664537 1.33021e-05 0)
(0.000625824 1.35895e-05 0)
(0.0005863 1.38607e-05 0)
(0.000546014 1.41151e-05 0)
(0.000505016 1.43522e-05 0)
(0.000463356 1.45715e-05 0)
(0.000421088 1.47724e-05 0)
(0.000378266 1.49546e-05 0)
(0.000334944 1.51176e-05 0)
(0.000291179 1.52613e-05 0)
(0.000247029 1.53852e-05 0)
(0.00020255 1.54891e-05 0)
(0.000157803 1.55729e-05 0)
(0.000112847 1.56364e-05 0)
(6.77414e-05 1.56794e-05 0)
(2.25482e-05 1.5701e-05 0)
(-2.26755e-05 1.5701e-05 0)
(-6.78691e-05 1.56794e-05 0)
(-0.000112975 1.56365e-05 0)
(-0.000157932 1.55729e-05 0)
(-0.00020268 1.54889e-05 0)
(-0.000247158 1.53848e-05 0)
(-0.000291309 1.52605e-05 0)
(-0.000335075 1.51166e-05 0)
(-0.000378397 1.49535e-05 0)
(-0.00042122 1.47714e-05 0)
(-0.000463489 1.45707e-05 0)
(-0.00050515 1.43518e-05 0)
(-0.000546149 1.41151e-05 0)
(-0.000586436 1.38609e-05 0)
(-0.000625961 1.35899e-05 0)
(-0.000664674 1.33025e-05 0)
(-0.000702529 1.29992e-05 0)
(-0.000739481 1.26808e-05 0)
(-0.000775488 1.23479e-05 0)
(-0.000810508 1.20014e-05 0)
(-0.000844501 1.16415e-05 0)
(-0.00087743 1.12693e-05 0)
(-0.000909261 1.08855e-05 0)
(-0.00093996 1.04905e-05 0)
(-0.000969497 1.00852e-05 0)
(-0.000997843 9.67044e-06 0)
(-0.00102497 9.24656e-06 0)
(-0.00105086 8.81454e-06 0)
(-0.00107548 8.37531e-06 0)
(-0.00109882 7.92917e-06 0)
(-0.00112085 7.47699e-06 0)
(-0.00114157 7.01982e-06 0)
(-0.00116095 6.55798e-06 0)
(-0.00117899 6.09223e-06 0)
(-0.00119568 5.62353e-06 0)
(-0.001211 5.15244e-06 0)
(-0.00122497 4.67955e-06 0)
(-0.00123756 4.20564e-06 0)
(-0.00124878 3.73142e-06 0)
(-0.00125863 3.25727e-06 0)
(-0.00126711 2.78384e-06 0)
(-0.00127422 2.31161e-06 0)
(-0.00127998 1.84064e-06 0)
(-0.00128438 1.37163e-06 0)
(-0.00128743 9.04245e-07 0)
(-0.00128915 4.37748e-07 0)
(-0.00128953 -2.55114e-08 0)
(-0.00128858 -4.83864e-07 0)
(-0.00128634 -9.33865e-07 0)
(-0.00128282 -1.37644e-06 0)
(-0.00127804 -1.81253e-06 0)
(-0.00127202 -2.24199e-06 0)
(-0.00126477 -2.66454e-06 0)
(-0.00125632 -3.08028e-06 0)
(-0.00124668 -3.48901e-06 0)
(-0.00123589 -3.89059e-06 0)
(-0.00122396 -4.28474e-06 0)
(-0.00121091 -4.67083e-06 0)
(-0.00119676 -5.04895e-06 0)
(-0.00118155 -5.41894e-06 0)
(-0.00116529 -5.78048e-06 0)
(-0.00114801 -6.13327e-06 0)
(-0.00112974 -6.47694e-06 0)
(-0.0011105 -6.81128e-06 0)
(-0.00109032 -7.13614e-06 0)
(-0.00106923 -7.45178e-06 0)
(-0.00104725 -7.7582e-06 0)
(-0.00102442 -8.05523e-06 0)
(-0.00100075 -8.34311e-06 0)
(-0.000976274 -8.62213e-06 0)
(-0.00095102 -8.89232e-06 0)
(-0.000925014 -9.15304e-06 0)
(-0.000898281 -9.40405e-06 0)
(-0.000870851 -9.64515e-06 0)
(-0.000842753 -9.8755e-06 0)
(-0.000814016 -1.00958e-05 0)
(-0.000784667 -1.03068e-05 0)
(-0.000754733 -1.05091e-05 0)
(-0.000724238 -1.0703e-05 0)
(-0.000693207 -1.08881e-05 0)
(-0.000661667 -1.10649e-05 0)
(-0.000629643 -1.12318e-05 0)
(-0.000597163 -1.13897e-05 0)
(-0.000564255 -1.15377e-05 0)
(-0.000530947 -1.16747e-05 0)
(-0.000497264 -1.18019e-05 0)
(-0.000463235 -1.19198e-05 0)
(-0.000428881 -1.20298e-05 0)
(-0.00039423 -1.21321e-05 0)
(-0.000359305 -1.22263e-05 0)
(-0.000324128 -1.23116e-05 0)
(-0.000288729 -1.23868e-05 0)
(-0.000253131 -1.2452e-05 0)
(-0.000217363 -1.25073e-05 0)
(-0.000181457 -1.25504e-05 0)
(-0.000145442 -1.25755e-05 0)
(-0.000109344 -1.25667e-05 0)
(-7.3295e-05 -1.2461e-05 0)
(-3.84099e-05 -1.18062e-05 0)
(-8.67987e-06 -8.69504e-06 0)
(1.38636e-05 -3.94349e-05 0)
(6.10769e-05 -5.49183e-05 0)
(0.000111832 -5.93947e-05 0)
(0.000163209 -6.14959e-05 0)
(0.000215395 -6.25078e-05 0)
(0.000267825 -6.27418e-05 0)
(0.000320331 -6.25798e-05 0)
(0.00037277 -6.22524e-05 0)
(0.000425036 -6.18455e-05 0)
(0.000477056 -6.14007e-05 0)
(0.000528769 -6.09267e-05 0)
(0.000580128 -6.04209e-05 0)
(0.000631092 -5.98821e-05 0)
(0.00068162 -5.93086e-05 0)
(0.000731674 -5.86982e-05 0)
(0.000781216 -5.8049e-05 0)
(0.000830209 -5.73592e-05 0)
(0.000878615 -5.66278e-05 0)
(0.000926397 -5.58537e-05 0)
(0.000973517 -5.50362e-05 0)
(0.00101994 -5.41745e-05 0)
(0.00106561 -5.32678e-05 0)
(0.00111051 -5.23158e-05 0)
(0.0011546 -5.13181e-05 0)
(0.00119782 -5.02746e-05 0)
(0.00124015 -4.91851e-05 0)
(0.00128155 -4.80495e-05 0)
(0.00132196 -4.68676e-05 0)
(0.00136136 -4.56393e-05 0)
(0.00139971 -4.43646e-05 0)
(0.00143696 -4.30434e-05 0)
(0.00147308 -4.16757e-05 0)
(0.00150802 -4.02615e-05 0)
(0.00154174 -3.88009e-05 0)
(0.00157421 -3.7294e-05 0)
(0.00160539 -3.5741e-05 0)
(0.00163523 -3.41422e-05 0)
(0.0016637 -3.24979e-05 0)
(0.00169076 -3.08085e-05 0)
(0.00171636 -2.90744e-05 0)
(0.00174047 -2.7296e-05 0)
(0.00176306 -2.54739e-05 0)
(0.00178408 -2.36088e-05 0)
(0.0018035 -2.17018e-05 0)
(0.00182129 -1.97538e-05 0)
(0.0018374 -1.7766e-05 0)
(0.00185181 -1.57398e-05 0)
(0.00186449 -1.36766e-05 0)
(0.00187539 -1.1578e-05 0)
(0.00188449 -9.4454e-06 0)
(0.00189177 -7.28037e-06 0)
(0.00189719 -5.08411e-06 0)
(0.00190073 -2.85729e-06 0)
(0.00190237 -5.99711e-07 0)
(0.00190209 1.68345e-06 0)
(0.00189987 3.98607e-06 0)
(0.00189569 6.3042e-06 0)
(0.00188952 8.637e-06 0)
(0.00188135 1.09832e-05 0)
(0.00187117 1.33407e-05 0)
(0.00185898 1.57069e-05 0)
(0.00184476 1.80791e-05 0)
(0.00182851 2.04543e-05 0)
(0.00181022 2.28292e-05 0)
(0.00178991 2.52005e-05 0)
(0.00176756 2.75647e-05 0)
(0.00174319 2.99182e-05 0)
(0.00171681 3.22575e-05 0)
(0.00168843 3.45789e-05 0)
(0.00165807 3.68791e-05 0)
(0.00162574 3.91545e-05 0)
(0.00159147 4.14013e-05 0)
(0.00155529 4.36158e-05 0)
(0.00151721 4.57941e-05 0)
(0.00147728 4.79324e-05 0)
(0.00143553 5.00269e-05 0)
(0.001392 5.20739e-05 0)
(0.00134673 5.40698e-05 0)
(0.00129976 5.60107e-05 0)
(0.00125115 5.78931e-05 0)
(0.00120094 5.97131e-05 0)
(0.0011492 6.14669e-05 0)
(0.00109597 6.31511e-05 0)
(0.00104132 6.47621e-05 0)
(0.000985321 6.62968e-05 0)
(0.000928027 6.77522e-05 0)
(0.000869514 6.91254e-05 0)
(0.000809854 7.04136e-05 0)
(0.000749121 7.16138e-05 0)
(0.000687393 7.27233e-05 0)
(0.000624747 7.37398e-05 0)
(0.000561266 7.46613e-05 0)
(0.000497031 7.54857e-05 0)
(0.000432129 7.62114e-05 0)
(0.000366644 7.68366e-05 0)
(0.000300664 7.73601e-05 0)
(0.000234278 7.77808e-05 0)
(0.000167575 7.80978e-05 0)
(0.000100647 7.83101e-05 0)
(3.3584e-05 7.84164e-05 0)
(-3.35281e-05 7.84164e-05 0)
(-0.000100591 7.83102e-05 0)
(-0.000167521 7.8098e-05 0)
(-0.000234224 7.77809e-05 0)
(-0.000300611 7.73599e-05 0)
(-0.000366591 7.6836e-05 0)
(-0.000432077 7.62103e-05 0)
(-0.00049698 7.54845e-05 0)
(-0.000561216 7.46604e-05 0)
(-0.000624698 7.37396e-05 0)
(-0.000687344 7.2724e-05 0)
(-0.000749074 7.16156e-05 0)
(-0.000809808 7.04166e-05 0)
(-0.00086947 6.91292e-05 0)
(-0.000927983 6.77563e-05 0)
(-0.000985278 6.63008e-05 0)
(-0.00104128 6.47657e-05 0)
(-0.00109593 6.31543e-05 0)
(-0.00114916 6.14702e-05 0)
(-0.00120091 5.97169e-05 0)
(-0.00125112 5.78975e-05 0)
(-0.00129973 5.60157e-05 0)
(-0.0013467 5.40755e-05 0)
(-0.00139198 5.20803e-05 0)
(-0.00143551 5.00338e-05 0)
(-0.00147727 4.794e-05 0)
(-0.0015172 4.58023e-05 0)
(-0.00155528 4.36246e-05 0)
(-0.00159147 4.14113e-05 0)
(-0.00162574 3.91654e-05 0)
(-0.00165808 3.68904e-05 0)
(-0.00168844 3.4591e-05 0)
(-0.00171683 3.22704e-05 0)
(-0.00174321 2.99319e-05 0)
(-0.00176759 2.75797e-05 0)
(-0.00178994 2.52173e-05 0)
(-0.00181026 2.28479e-05 0)
(-0.00182855 2.04748e-05 0)
(-0.00184481 1.81013e-05 0)
(-0.00185904 1.57301e-05 0)
(-0.00187124 1.3364e-05 0)
(-0.00188143 1.1006e-05 0)
(-0.0018896 8.65798e-06 0)
(-0.00189578 6.32272e-06 0)
(-0.00189997 4.00246e-06 0)
(-0.0019022 1.69766e-06 0)
(-0.00190249 -5.8706e-07 0)
(-0.00190086 -2.84511e-06 0)
(-0.00189732 -5.07117e-06 0)
(-0.00189191 -7.26519e-06 0)
(-0.00188464 -9.42718e-06 0)
(-0.00187554 -1.15561e-05 0)
(-0.00186465 -1.36504e-05 0)
(-0.00185199 -1.57093e-05 0)
(-0.00183759 -1.77318e-05 0)
(-0.00182149 -1.97169e-05 0)
(-0.00180372 -2.16635e-05 0)
(-0.00178431 -2.35699e-05 0)
(-0.0017633 -2.54351e-05 0)
(-0.00174073 -2.72582e-05 0)
(-0.00171663 -2.9038e-05 0)
(-0.00169104 -3.07735e-05 0)
(-0.001664 -3.2463e-05 0)
(-0.00163555 -3.41058e-05 0)
(-0.00160572 -3.57018e-05 0)
(-0.00157456 -3.72518e-05 0)
(-0.00154211 -3.87558e-05 0)
(-0.0015084 -4.02133e-05 0)
(-0.00147348 -4.16251e-05 0)
(-0.00143738 -4.29913e-05 0)
(-0.00140015 -4.43116e-05 0)
(-0.00136182 -4.55849e-05 0)
(-0.00132244 -4.68104e-05 0)
(-0.00128205 -4.79869e-05 0)
(-0.00124068 -4.91139e-05 0)
(-0.00119838 -5.01924e-05 0)
(-0.00115518 -5.12253e-05 0)
(-0.00111113 -5.22122e-05 0)
(-0.00106626 -5.31567e-05 0)
(-0.00102062 -5.4057e-05 0)
(-0.000974235 -5.49137e-05 0)
(-0.000927157 -5.57241e-05 0)
(-0.000879418 -5.64878e-05 0)
(-0.000831057 -5.72039e-05 0)
(-0.00078211 -5.78707e-05 0)
(-0.000732616 -5.84923e-05 0)
(-0.000682614 -5.90698e-05 0)
(-0.000632141 -5.96059e-05 0)
(-0.000581234 -6.01022e-05 0)
(-0.000529929 -6.05561e-05 0)
(-0.000478263 -6.09665e-05 0)
(-0.000426274 -6.13318e-05 0)
(-0.000373997 -6.16501e-05 0)
(-0.000321467 -6.19225e-05 0)
(-0.000268725 -6.2146e-05 0)
(-0.0002158 -6.23091e-05 0)
(-0.000162683 -6.23471e-05 0)
(-0.000109506 -6.18256e-05 0)
(-5.78537e-05 -5.80495e-05 0)
(-1.17123e-05 -3.83331e-05 0)
(1.32679e-05 -7.62986e-05 0)
(6.39173e-05 -0.000107506 0)
(0.000119489 -0.000112666 0)
(0.000174944 -0.000114567 0)
(0.000230264 -0.000115674 0)
(0.000285511 -0.000116076 0)
(0.000340727 -0.000116001 0)
(0.000395852 -0.000115644 0)
(0.000450811 -0.000115107 0)
(0.000505536 -0.000114445 0)
(0.000559967 -0.000113683 0)
(0.00061405 -0.000112831 0)
(0.000667738 -0.000111895 0)
(0.000720983 -0.000110878 0)
(0.000773744 -0.00010978 0)
(0.000825976 -0.000108601 0)
(0.00087764 -0.00010734 0)
(0.000928694 -0.000105997 0)
(0.000979098 -0.000104571 0)
(0.00102881 -0.000103061 0)
(0.00107779 -0.000101466 0)
(0.00112599 -9.97859e-05 0)
(0.00117338 -9.80203e-05 0)
(0.00121992 -9.61687e-05 0)
(0.00126555 -9.42305e-05 0)
(0.00131025 -9.22054e-05 0)
(0.00135396 -9.0093e-05 0)
(0.00139664 -8.78929e-05 0)
(0.00143827 -8.56051e-05 0)
(0.00147878 -8.32296e-05 0)
(0.00151814 -8.07663e-05 0)
(0.00155631 -7.82151e-05 0)
(0.00159324 -7.55761e-05 0)
(0.00162889 -7.28494e-05 0)
(0.00166322 -7.00351e-05 0)
(0.00169619 -6.71337e-05 0)
(0.00172776 -6.41459e-05 0)
(0.00175788 -6.10723e-05 0)
(0.00178651 -5.79135e-05 0)
(0.00181361 -5.46704e-05 0)
(0.00183914 -5.13437e-05 0)
(0.00186306 -4.79348e-05 0)
(0.00188533 -4.4445e-05 0)
(0.00190592 -4.08762e-05 0)
(0.00192478 -3.72301e-05 0)
(0.00194188 -3.35091e-05 0)
(0.00195718 -2.97153e-05 0)
(0.00197066 -2.58514e-05 0)
(0.00198226 -2.192e-05 0)
(0.00199197 -1.79241e-05 0)
(0.00199974 -1.38667e-05 0)
(0.00200556 -9.7509e-06 0)
(0.0020094 -5.58041e-06 0)
(0.00201122 -1.35926e-06 0)
(0.00201102 2.90885e-06 0)
(0.00200876 7.21871e-06 0)
(0.00200443 1.15658e-05 0)
(0.001998 1.59457e-05 0)
(0.00198946 2.03536e-05 0)
(0.00197879 2.47846e-05 0)
(0.00196599 2.92335e-05 0)
(0.00195105 3.36948e-05 0)
(0.00193395 3.81628e-05 0)
(0.00191471 4.26313e-05 0)
(0.00189331 4.7094e-05 0)
(0.00186976 5.15445e-05 0)
(0.00184407 5.59762e-05 0)
(0.00181625 6.03825e-05 0)
(0.00178631 6.47567e-05 0)
(0.00175427 6.90919e-05 0)
(0.00172015 7.33813e-05 0)
(0.00168396 7.76177e-05 0)
(0.00164575 8.17936e-05 0)
(0.00160553 8.5902e-05 0)
(0.00156334 8.99357e-05 0)
(0.00151922 9.38876e-05 0)
(0.00147321 9.77506e-05 0)
(0.00142536 0.000101518 0)
(0.0013757 0.000105181 0)
(0.0013243 0.000108735 0)
(0.00127121 0.000112171 0)
(0.00121648 0.000115482 0)
(0.00116018 0.000118663 0)
(0.00110237 0.000121706 0)
(0.00104312 0.000124605 0)
(0.000982499 0.000127355 0)
(0.000920582 0.000129949 0)
(0.000857446 0.000132383 0)
(0.00079317 0.00013465 0)
(0.000727835 0.000136746 0)
(0.000661525 0.000138665 0)
(0.000594325 0.000140405 0)
(0.000526325 0.000141962 0)
(0.000457613 0.000143331 0)
(0.000388282 0.000144511 0)
(0.000318424 0.000145497 0)
(0.000248134 0.000146289 0)
(0.000177507 0.000146885 0)
(0.000106639 0.000147283 0)
(3.5628e-05 0.000147481 0)
(-3.54367e-05 0.000147481 0)
(-0.000106448 0.000147283 0)
(-0.000177317 0.000146885 0)
(-0.000247945 0.000146288 0)
(-0.000318236 0.000145495 0)
(-0.000388095 0.000144508 0)
(-0.000457427 0.000143328 0)
(-0.000526139 0.000141958 0)
(-0.000594139 0.000140402 0)
(-0.000661339 0.000138663 0)
(-0.00072765 0.000136744 0)
(-0.000792986 0.000134649 0)
(-0.000857264 0.000132384 0)
(-0.000920401 0.000129951 0)
(-0.000982318 0.000127357 0)
(-0.00104294 0.000124608 0)
(-0.00110219 0.000121709 0)
(-0.00116 0.000118666 0)
(-0.0012163 0.000115486 0)
(-0.00127103 0.000112176 0)
(-0.00132413 0.000108741 0)
(-0.00137553 0.000105188 0)
(-0.00142519 0.000101525 0)
(-0.00147304 9.77586e-05 0)
(-0.00151905 9.38959e-05 0)
(-0.00156318 8.99445e-05 0)
(-0.00160537 8.59114e-05 0)
(-0.00164559 8.18034e-05 0)
(-0.0016838 7.76282e-05 0)
(-0.00171999 7.3393e-05 0)
(-0.00175412 6.91041e-05 0)
(-0.00178616 6.47694e-05 0)
(-0.0018161 6.03963e-05 0)
(-0.00184392 5.59909e-05 0)
(-0.00186961 5.15602e-05 0)
(-0.00189316 4.71113e-05 0)
(-0.00191456 4.26506e-05 0)
(-0.00193381 3.81841e-05 0)
(-0.00195091 3.37179e-05 0)
(-0.00196586 2.92577e-05 0)
(-0.00197866 2.4809e-05 0)
(-0.00198933 2.03777e-05 0)
(-0.00199787 1.59686e-05 0)
(-0.0020043 1.15864e-05 0)
(-0.00200864 7.23746e-06 0)
(-0.0020109 2.9261e-06 0)
(-0.00201111 -1.34318e-06 0)
(-0.00200929 -5.56451e-06 0)
(-0.00200546 -9.73425e-06 0)
(-0.00199965 -1.38479e-05 0)
(-0.00199187 -1.79024e-05 0)
(-0.00198217 -2.1895e-05 0)
(-0.00197057 -2.58224e-05 0)
(-0.00195711 -2.96823e-05 0)
(-0.00194181 -3.34723e-05 0)
(-0.00192471 -3.71901e-05 0)
(-0.00190585 -4.08339e-05 0)
(-0.00188527 -4.44018e-05 0)
(-0.001863 -4.78911e-05 0)
(-0.00183908 -5.13004e-05 0)
(-0.00181355 -5.46279e-05 0)
(-0.00178645 -5.78723e-05 0)
(-0.00175783 -6.10314e-05 0)
(-0.00172772 -6.41037e-05 0)
(-0.00169616 -6.70895e-05 0)
(-0.0016632 -6.99886e-05 0)
(-0.00162887 -7.28008e-05 0)
(-0.00159322 -7.55255e-05 0)
(-0.00155629 -7.81627e-05 0)
(-0.00151813 -8.0712e-05 0)
(-0.00147877 -8.31733e-05 0)
(-0.00143826 -8.55468e-05 0)
(-0.00139665 -8.78321e-05 0)
(-0.00135397 -9.0027e-05 0)
(-0.00131026 -9.21332e-05 0)
(-0.00126557 -9.41496e-05 0)
(-0.00121994 -9.60798e-05 0)
(-0.00117341 -9.79223e-05 0)
(-0.00112602 -9.96821e-05 0)
(-0.00107781 -0.000101357 0)
(-0.00102883 -0.000102948 0)
(-0.000979122 -0.000104455 0)
(-0.000928719 -0.000105873 0)
(-0.00087766 -0.000107205 0)
(-0.000825984 -0.000108449 0)
(-0.000773733 -0.00010961 0)
(-0.000720946 -0.000110688 0)
(-0.000667665 -0.000111686 0)
(-0.000613928 -0.000112607 0)
(-0.000559773 -0.000113448 0)
(-0.00050524 -0.000114209 0)
(-0.000450366 -0.000114888 0)
(-0.000395189 -0.000115482 0)
(-0.000339747 -0.000115994 0)
(-0.000284079 -0.000116422 0)
(-0.000228212 -0.00011676 0)
(-0.000172145 -0.000116918 0)
(-0.000116029 -0.000116182 0)
(-6.1626e-05 -0.000109676 0)
(-1.23649e-05 -7.30038e-05 0)
(1.25617e-05 -0.000113687 0)
(6.29633e-05 -0.000162717 0)
(0.000119358 -0.000169699 0)
(0.000176084 -0.000171081 0)
(0.000232377 -0.000171725 0)
(0.000288371 -0.000171878 0)
(0.000344185 -0.00017163 0)
(0.000399828 -0.000171092 0)
(0.000455265 -0.000170337 0)
(0.00051045 -0.000169406 0)
(0.000565332 -0.000168324 0)
(0.000619865 -0.000167103 0)
(0.000674 -0.000165751 0)
(0.000727693 -0.000164273 0)
(0.0007809 -0.00016267 0)
(0.000833579 -0.000160943 0)
(0.000885689 -0.000159092 0)
(0.000937187 -0.000157117 0)
(0.000988033 -0.000155017 0)
(0.00103819 -0.000152792 0)
(0.0010876 -0.000150441 0)
(0.00113624 -0.000147963 0)
(0.00118406 -0.000145357 0)
(0.00123102 -0.000142624 0)
(0.00127707 -0.000139762 0)
(0.00132219 -0.000136771 0)
(0.00136631 -0.00013365 0)
(0.0014094 -0.000130399 0)
(0.00145142 -0.000127018 0)
(0.00149233 -0.000123506 0)
(0.00153208 -0.000119863 0)
(0.00157062 -0.000116089 0)
(0.00160792 -0.000112185 0)
(0.00164394 -0.00010815 0)
(0.00167863 -0.000103984 0)
(0.00171194 -9.96897e-05 0)
(0.00174384 -9.52663e-05 0)
(0.00177428 -9.0715e-05 0)
(0.00180322 -8.60369e-05 0)
(0.00183062 -8.12331e-05 0)
(0.00185645 -7.63052e-05 0)
(0.00188064 -7.1255e-05 0)
(0.00190318 -6.60848e-05 0)
(0.00192402 -6.0797e-05 0)
(0.00194312 -5.53943e-05 0)
(0.00196044 -4.98797e-05 0)
(0.00197595 -4.42567e-05 0)
(0.00198961 -3.8529e-05 0)
(0.0020014 -3.27004e-05 0)
(0.00201126 -2.67754e-05 0)
(0.00201918 -2.07586e-05 0)
(0.00202512 -1.46548e-05 0)
(0.00202907 -8.46965e-06 0)
(0.00203098 -2.20952e-06 0)
(0.00203083 4.12011e-06 0)
(0.00202861 1.05139e-05 0)
(0.00202429 1.69655e-05 0)
(0.00201785 2.34677e-05 0)
(0.00200928 3.0013e-05 0)
(0.00199856 3.65937e-05 0)
(0.00198569 4.32021e-05 0)
(0.00197065 4.98296e-05 0)
(0.00195343 5.64677e-05 0)
(0.00193404 6.31073e-05 0)
(0.00191248 6.97391e-05 0)
(0.00188874 7.63537e-05 0)
(0.00186284 8.29413e-05 0)
(0.00183479 8.94922e-05 0)
(0.00180459 9.59962e-05 0)
(0.00177226 0.000102443 0)
(0.00173783 0.000108822 0)
(0.00170132 0.000115123 0)
(0.00166275 0.000121335 0)
(0.00162215 0.000127448 0)
(0.00157956 0.000133449 0)
(0.00153502 0.00013933 0)
(0.00148856 0.00014508 0)
(0.00144024 0.000150686 0)
(0.00139009 0.00015614 0)
(0.00133818 0.000161429 0)
(0.00128456 0.000166544 0)
(0.00122928 0.000171474 0)
(0.00117241 0.00017621 0)
(0.00111401 0.000180741 0)
(0.00105415 0.000185059 0)
(0.000992902 0.000189153 0)
(0.000930344 0.000193017 0)
(0.000866551 0.000196641 0)
(0.000801604 0.000200017 0)
(0.000735584 0.000203139 0)
(0.000668576 0.000205999 0)
(0.000600668 0.000208591 0)
(0.000531949 0.000210909 0)
(0.000462509 0.000212949 0)
(0.000392441 0.000214706 0)
(0.00032184 0.000216175 0)
(0.000250801 0.000217354 0)
(0.000179421 0.000218241 0)
(0.000107797 0.000218833 0)
(3.60284e-05 0.000219129 0)
(-3.57946e-05 0.000219129 0)
(-0.000107564 0.000218833 0)
(-0.00017919 0.000218241 0)
(-0.000250571 0.000217354 0)
(-0.000321611 0.000216174 0)
(-0.000392212 0.000214703 0)
(-0.00046228 0.000212946 0)
(-0.00053172 0.000210907 0)
(-0.000600439 0.000208589 0)
(-0.000668347 0.000205998 0)
(-0.000735356 0.000203139 0)
(-0.000801377 0.000200018 0)
(-0.000866325 0.000196642 0)
(-0.000930119 0.000193019 0)
(-0.000992677 0.000189156 0)
(-0.00105392 0.000185062 0)
(-0.00111378 0.000180745 0)
(-0.00117218 0.000176215 0)
(-0.00122905 0.00017148 0)
(-0.00128433 0.00016655 0)
(-0.00133796 0.000161436 0)
(-0.00138988 0.000156147 0)
(-0.00144002 0.000150695 0)
(-0.00148835 0.000145089 0)
(-0.00153481 0.000139341 0)
(-0.00157935 0.000133461 0)
(-0.00162194 0.000127459 0)
(-0.00166254 0.000121347 0)
(-0.00170111 0.000115135 0)
(-0.00173763 0.000108835 0)
(-0.00177206 0.000102456 0)
(-0.00180438 9.60097e-05 0)
(-0.00183458 8.95066e-05 0)
(-0.00186264 8.2957e-05 0)
(-0.00188854 7.63704e-05 0)
(-0.00191228 6.97573e-05 0)
(-0.00193384 6.31272e-05 0)
(-0.00195323 5.64893e-05 0)
(-0.00197045 4.98527e-05 0)
(-0.00198549 4.32265e-05 0)
(-0.00199836 3.66186e-05 0)
(-0.00200908 3.00379e-05 0)
(-0.00201765 2.34922e-05 0)
(-0.00202409 1.69888e-05 0)
(-0.00202841 1.05359e-05 0)
(-0.00203064 4.14135e-06 0)
(-0.00203079 -2.18887e-06 0)
(-0.00202888 -8.44895e-06 0)
(-0.00202494 -1.46333e-05 0)
(-0.002019 -2.07354e-05 0)
(-0.00201109 -2.67495e-05 0)
(-0.00200123 -3.26713e-05 0)
(-0.00198945 -3.84963e-05 0)
(-0.00197579 -4.42204e-05 0)
(-0.00196028 -4.98402e-05 0)
(-0.00194295 -5.5352e-05 0)
(-0.00192385 -6.07529e-05 0)
(-0.00190302 -6.604e-05 0)
(-0.00188048 -7.12097e-05 0)
(-0.00185628 -7.626e-05 0)
(-0.00183046 -8.11884e-05 0)
(-0.00180306 -8.59929e-05 0)
(-0.00177412 -9.06715e-05 0)
(-0.00174368 -9.52225e-05 0)
(-0.00171178 -9.96451e-05 0)
(-0.00167847 -0.000103938 0)
(-0.00164379 -0.000108102 0)
(-0.00160777 -0.000112136 0)
(-0.00157047 -0.000116038 0)
(-0.00153192 -0.00011981 0)
(-0.00149217 -0.00012345 0)
(-0.00145127 -0.00012696 0)
(-0.00140925 -0.00013034 0)
(-0.00136616 -0.000133587 0)
(-0.00132203 -0.000136703 0)
(-0.00127692 -0.000139687 0)
(-0.00123086 -0.000142541 0)
(-0.00118389 -0.000145269 0)
(-0.00113606 -0.000147869 0)
(-0.00108741 -0.000150344 0)
(-0.00103798 -0.000152694 0)
(-0.000987815 -0.000154917 0)
(-0.000936952 -0.000157012 0)
(-0.000885431 -0.00015898 0)
(-0.000833291 -0.000160823 0)
(-0.000780573 -0.000162542 0)
(-0.000727318 -0.000164141 0)
(-0.000673566 -0.00016562 0)
(-0.000619355 -0.000166981 0)
(-0.000564724 -0.000168223 0)
(-0.000509712 -0.000169345 0)
(-0.000454356 -0.000170346 0)
(-0.000398694 -0.000171224 0)
(-0.000342766 -0.000171982 0)
(-0.000286613 -0.000172621 0)
(-0.00023026 -0.000173132 0)
(-0.000173707 -0.000173395 0)
(-0.000117126 -0.000172372 0)
(-6.23356e-05 -0.000162942 0)
(-1.2509e-05 -0.0001089 0)
(1.24306e-05 -0.000149672 0)
(6.22959e-05 -0.000216974 0)
(0.000118538 -0.000226763 0)
(0.000175715 -0.000227988 0)
(0.000232509 -0.000228224 0)
(0.000288941 -0.000228079 0)
(0.000345104 -0.000227599 0)
(0.00040103 -0.000226833 0)
(0.000456708 -0.000225823 0)
(0.000512109 -0.000224599 0)
(0.000567193 -0.000223181 0)
(0.000621917 -0.00022158 0)
(0.000676239 -0.000219806 0)
(0.000730115 -0.000217862 0)
(0.000783505 -0.000215752 0)
(0.000836366 -0.000213475 0)
(0.000888657 -0.000211033 0)
(0.000940338 -0.000208425 0)
(0.000991367 -0.000205651 0)
(0.0010417 -0.00020271 0)
(0.0010913 -0.000199602 0)
(0.00114012 -0.000196326 0)
(0.00118813 -0.00019288 0)
(0.00123527 -0.000189265 0)
(0.00128151 -0.000185478 0)
(0.00132681 -0.00018152 0)
(0.00137112 -0.00017739 0)
(0.0014144 -0.000173087 0)
(0.0014566 -0.000168611 0)
(0.00149769 -0.000163961 0)
(0.00153762 -0.000159137 0)
(0.00157635 -0.000154139 0)
(0.00161383 -0.000148967 0)
(0.00165003 -0.000143622 0)
(0.00168489 -0.000138104 0)
(0.00171839 -0.000132414 0)
(0.00175046 -0.000126552 0)
(0.00178107 -0.00012052 0)
(0.00181019 -0.00011432 0)
(0.00183776 -0.000107952 0)
(0.00186374 -0.000101419 0)
(0.0018881 -9.4724e-05 0)
(0.0019108 -8.78693e-05 0)
(0.00193179 -8.08581e-05 0)
(0.00195104 -7.3694e-05 0)
(0.0019685 -6.63809e-05 0)
(0.00198415 -5.89232e-05 0)
(0.00199795 -5.13258e-05 0)
(0.00200986 -4.35941e-05 0)
(0.00201984 -3.57336e-05 0)
(0.00202787 -2.77503e-05 0)
(0.00203392 -1.96507e-05 0)
(0.00203796 -1.1442e-05 0)
(0.00203996 -3.13231e-06 0)
(0.00203989 5.27077e-06 0)
(0.00203774 1.37597e-05 0)
(0.00203348 2.2326e-05 0)
(0.00202708 3.09605e-05 0)
(0.00201855 3.96533e-05 0)
(0.00200786 4.83943e-05 0)
(0.00199499 5.71727e-05 0)
(0.00197995 6.59773e-05 0)
(0.00196273 7.47967e-05 0)
(0.00194332 8.3619e-05 0)
(0.00192172 9.24318e-05 0)
(0.00189794 0.000101223 0)
(0.00187198 0.000109979 0)
(0.00184385 0.000118687 0)
(0.00181356 0.000127334 0)
(0.00178113 0.000135906 0)
(0.00174659 0.000144388 0)
(0.00170995 0.000152767 0)
(0.00167123 0.000161029 0)
(0.00163048 0.000169159 0)
(0.00158772 0.000177144 0)
(0.00154299 0.000184967 0)
(0.00149634 0.000192616 0)
(0.0014478 0.000200076 0)
(0.00139743 0.000207333 0)
(0.00134528 0.000214371 0)
(0.0012914 0.000221178 0)
(0.00123586 0.00022774 0)
(0.00117871 0.000234043 0)
(0.00112002 0.000240074 0)
(0.00105986 0.000245821 0)
(0.000998303 0.000251272 0)
(0.000935422 0.000256415 0)
(0.000871296 0.00026124 0)
(0.000806005 0.000265736 0)
(0.000739634 0.000269893 0)
(0.000672266 0.000273702 0)
(0.000603991 0.000277155 0)
(0.000534897 0.000280243 0)
(0.000465077 0.000282961 0)
(0.000394624 0.000285301 0)
(0.000323633 0.00028726 0)
(0.000252201 0.000288832 0)
(0.000180424 0.000290014 0)
(0.000108402 0.000290804 0)
(3.62329e-05 0.000291199 0)
(-3.59904e-05 0.000291199 0)
(-0.00010816 0.000290804 0)
(-0.000180184 0.000290014 0)
(-0.000251962 0.000288832 0)
(-0.000323396 0.00028726 0)
(-0.000394387 0.000285302 0)
(-0.00046484 0.000282962 0)
(-0.000534659 0.000280245 0)
(-0.000603753 0.000277157 0)
(-0.000672028 0.000273705 0)
(-0.000739397 0.000269896 0)
(-0.000805769 0.00026574 0)
(-0.000871061 0.000261244 0)
(-0.000935187 0.00025642 0)
(-0.000998068 0.000251277 0)
(-0.00105963 0.000245826 0)
(-0.00111979 0.00024008 0)
(-0.00117847 0.000234049 0)
(-0.00123563 0.000227746 0)
(-0.00129117 0.000221185 0)
(-0.00134505 0.000214378 0)
(-0.0013972 0.000207341 0)
(-0.00144758 0.000200085 0)
(-0.00149611 0.000192627 0)
(-0.00154277 0.00018498 0)
(-0.0015875 0.000177157 0)
(-0.00163026 0.000169174 0)
(-0.00167101 0.000161044 0)
(-0.00170973 0.000152782 0)
(-0.00174637 0.000144403 0)
(-0.00178092 0.000135921 0)
(-0.00181334 0.00012735 0)
(-0.00184363 0.000118704 0)
(-0.00187176 0.000109997 0)
(-0.00189772 0.000101242 0)
(-0.00192151 9.24526e-05 0)
(-0.00194311 8.36409e-05 0)
(-0.00196252 7.48198e-05 0)
(-0.00197974 6.60015e-05 0)
(-0.00199478 5.71981e-05 0)
(-0.00200764 4.84207e-05 0)
(-0.00201834 3.96801e-05 0)
(-0.00202687 3.09876e-05 0)
(-0.00203326 2.23528e-05 0)
(-0.00203753 1.37856e-05 0)
(-0.00203968 5.29599e-06 0)
(-0.00203975 -3.10748e-06 0)
(-0.00203776 -1.14169e-05 0)
(-0.00203373 -1.96245e-05 0)
(-0.00202768 -2.77225e-05 0)
(-0.00201965 -3.57033e-05 0)
(-0.00200967 -4.35611e-05 0)
(-0.00199776 -5.12901e-05 0)
(-0.00198397 -5.88848e-05 0)
(-0.00196832 -6.63403e-05 0)
(-0.00195085 -7.36517e-05 0)
(-0.00193161 -8.08148e-05 0)
(-0.00191061 -8.78254e-05 0)
(-0.00188792 -9.46798e-05 0)
(-0.00186356 -0.000101375 0)
(-0.00183757 -0.000107908 0)
(-0.00181 -0.000114276 0)
(-0.00178089 -0.000120477 0)
(-0.00175028 -0.000126509 0)
(-0.00171821 -0.00013237 0)
(-0.00168472 -0.000138059 0)
(-0.00164985 -0.000143575 0)
(-0.00161365 -0.000148919 0)
(-0.00157617 -0.000154089 0)
(-0.00153744 -0.000159084 0)
(-0.0014975 -0.000163906 0)
(-0.00145641 -0.000168555 0)
(-0.00141421 -0.000173029 0)
(-0.00137093 -0.00017733 0)
(-0.00132662 -0.000181456 0)
(-0.00128132 -0.000185408 0)
(-0.00123507 -0.000189189 0)
(-0.00118791 -0.0001928 0)
(-0.0011399 -0.000196243 0)
(-0.00109106 -0.000199518 0)
(-0.00104145 -0.000202627 0)
(-0.000991098 -0.000205567 0)
(-0.000940049 -0.00020834 0)
(-0.000888343 -0.000210948 0)
(-0.000836018 -0.000213392 0)
(-0.000783118 -0.000215672 0)
(-0.000729681 -0.000217792 0)
(-0.000675747 -0.000219751 0)
(-0.000621356 -0.000221552 0)
(-0.000566543 -0.000223193 0)
(-0.000511348 -0.000224676 0)
(-0.000455807 -0.000225997 0)
(-0.000399963 -0.00022716 0)
(-0.000343855 -0.000228167 0)
(-0.000287523 -0.000229019 0)
(-0.000230994 -0.000229702 0)
(-0.000174268 -0.000230063 0)
(-0.000117521 -0.000228739 0)
(-6.25946e-05 -0.00021636 0)
(-1.25803e-05 -0.000144984 0)
(1.24113e-05 -0.000185424 0)
(6.21772e-05 -0.000270921 0)
(0.000118212 -0.000283838 0)
(0.000175587 -0.000285119 0)
(0.000232685 -0.00028501 0)
(0.000289437 -0.000284558 0)
(0.000345901 -0.000283812 0)
(0.000402097 -0.000282784 0)
(0.00045802 -0.000281492 0)
(0.000513646 -0.000279957 0)
(0.00056894 -0.00027819 0)
(0.000623866 -0.000276204 0)
(0.000678383 -0.000274003 0)
(0.000732452 -0.000271592 0)
(0.000786032 -0.000268973 0)
(0.000839083 -0.000266147 0)
(0.000891564 -0.000263114 0)
(0.000943435 -0.000259874 0)
(0.000994655 -0.000256427 0)
(0.00104518 -0.000252772 0)
(0.00109497 -0.000248908 0)
(0.00114399 -0.000244834 0)
(0.00119219 -0.00024055 0)
(0.00123952 -0.000236053 0)
(0.00128596 -0.000231343 0)
(0.00133145 -0.00022642 0)
(0.00137596 -0.000221281 0)
(0.00141943 -0.000215927 0)
(0.00146184 -0.000210357 0)
(0.00150313 -0.000204569 0)
(0.00154325 -0.000198565 0)