/*--------------------------------*- C++ -*----------------------------------*\
| =========                 |                                                 |
| \\      /  F ield         | OpenFOAM: The Open Source CFD Toolbox           |
|  \\    /   O peration     | Version:  2412                                  |
|   \\  /    A nd           | Website:  www.openfoam.com                      |
|    \\/     M anipulation  |                                                 |
\*---------------------------------------------------------------------------*/
FoamFile
{
    version     2.0;
    format      ascii;
    arch        "LSB;label=32;scalar=64";
    class       surfaceScalarField;
    location    "1.7";
    object      alphaPhi0.water;
}
// * * * * * * * * * * * * * * * * * * * * * * * * * * * * * * * * * * * * * //

dimensions      [0 3 -1 0 0 0 0];

oriented        oriented;

internalField   nonuniform List<scalar> 
79600
(
-2.99928e-180
1.97718e-182
-2.7074e-178
4.43503e-180
-1.77644e-177
1.63311e-178
-3.60699e-177
6.30857e-178
-4.80321e-177
9.06133e-178
-5.47305e-177
9.44888e-178
-5.81692e-177
8.91698e-178
-5.91873e-177
8.10796e-178
-5.81942e-177
7.20653e-178
-5.55008e-177
6.28218e-178
-5.14499e-177
5.37286e-178
-4.64111e-177
4.50737e-178
-4.07695e-177
3.70685e-178
-3.4856e-177
2.98693e-178
-2.90283e-177
2.35444e-178
-2.35254e-177
1.81548e-178
-1.85656e-177
1.36712e-178
-1.42591e-177
1.00547e-178
-1.06369e-177
7.21453e-179
-7.68657e-178
5.03814e-179
-5.38049e-178
3.41379e-179
-3.63782e-178
2.24349e-179
-2.3691e-178
1.42544e-179
-1.48154e-178
8.72913e-180
-8.87503e-179
5.13474e-180
-5.07976e-179
2.8933e-180
-2.77358e-179
1.5574e-180
-1.44584e-179
7.99253e-181
-7.20133e-180
3.91272e-181
-3.4261e-180
1.82798e-181
-1.55158e-180
8.14466e-182
-6.65852e-181
3.44788e-182
-2.68867e-181
1.37982e-182
-1.01426e-181
5.18095e-183
-3.55184e-182
1.81116e-183
-1.15044e-182
5.85326e-184
-3.445e-183
1.7411e-184
-9.52196e-184
4.75958e-185
-2.43076e-184
1.19209e-185
-5.70885e-185
2.73363e-186
-1.22875e-185
5.70315e-187
-2.42258e-186
1.07509e-187
-4.37042e-187
1.82222e-188
-7.24834e-188
2.75546e-189
-1.11416e-188
3.69489e-190
-1.60129e-189
4.34158e-191
-2.2844e-190
4.32325e-192
-8.18255e-191
3.46654e-193
-8.22146e-191
2.47904e-194
-2.46028e-191
-6.01171e-190
-5.15569e-192
-2.66982e-190
-8.72266e-193
-6.86181e-191
-1.25547e-193
-1.34349e-191
-1.56942e-194
-2.17416e-192
-1.73194e-195
-3.00394e-193
-1.71053e-196
-3.62171e-194
-1.60671e-197
-3.87367e-195
-2.32023e-197
-4.95692e-196
3.22022e-196
-4.26661e-195
1.93334e-193
6.59456e-195
4.36431e-191
2.75074e-191
8.76774e-189
7.11663e-189
1.5614e-186
1.62522e-186
2.37176e-184
3.29126e-184
2.88766e-182
5.68778e-182
2.5113e-180
7.88372e-180
1.17333e-178
7.81277e-178
2.77073e-180
4.16473e-176
7.02065e-183
9.68239e-178
4.05497e-187
2.31196e-180
-7.2136e-188
9.34759e-185
-2.9466e-188
-3.21101e-185
-6.21002e-189
-1.37403e-185
-8.95415e-190
-3.02857e-186
-5.3237e-191
-4.69219e-187
-9.80453e-193
-2.96845e-188
-6.82874e-195
-5.82696e-190
-1.94999e-197
-4.31871e-192
-2.02741e-200
-1.31262e-194
-8.23342e-204
-1.46387e-197
-2.03389e-207
-6.33034e-201
-4.21138e-211
-1.6467e-204
-8.85286e-215
-3.53254e-208
-2.02011e-218
-7.56915e-212
-4.88155e-222
-1.74267e-215
-1.17934e-225
-4.23015e-219
-2.68988e-229
-1.0269e-222
-5.49728e-233
-2.3642e-226
-9.59046e-237
-4.91839e-230
-1.35921e-240
-8.83141e-234
-1.53782e-244
-1.30367e-237
-6.97256e-248
-1.50695e-241
-5.05742e-250
-2.18507e-245
-3.67468e-252
-9.10913e-248
-2.16109e-254
-7.41504e-250
-9.75107e-257
-4.99712e-252
-3.09246e-259
-2.63863e-254
-5.78696e-262
-1.00722e-256
-4.3316e-265
-2.35939e-259
-4.56769e-263
-3.74932e-262
-4.24813e-260
-3.81254e-259
9.38374e-261
-9.22249e-256
1.70028e-256
-2.56973e-252
9.03073e-253
-7.36797e-249
3.71168e-249
-2.06704e-245
1.28819e-245
-5.43421e-242
3.93393e-242
-1.33345e-238
1.10488e-238
-3.1338e-235
2.81888e-235
-6.85325e-232
6.45315e-232
-1.37124e-228
1.32451e-228
-2.49707e-225
2.42947e-225
-4.11213e-222
3.96197e-222
-6.07875e-219
5.70325e-219
-7.99491e-216
7.22391e-216
-9.32873e-213
7.95482e-213
-9.5099e-210
7.44942e-210
-8.27601e-207
5.80254e-207
-6.01315e-204
3.66627e-204
-3.55686e-201
1.81954e-201
-1.6588e-198
6.73084e-199
-5.78143e-196
1.71373e-196
-1.38665e-193
2.70275e-194
-2.0575e-191
2.14398e-192
-1.54177e-189
6.67795e-191
-4.52679e-188
7.24242e-190
-4.93945e-187
-2.29085e-187
9.97516e-185
-2.41014e-184
1.14289e-181
-9.89107e-182
4.71015e-179
-1.94777e-179
9.17393e-177
-1.65325e-177
7.67523e-175
-4.93172e-176
2.24598e-173
-4.17666e-175
1.85477e-172
-4.80563e-175
2.05346e-172
-6.47634e-177
2.31008e-174
-4.85904e-179
1.45369e-176
-2.68077e-181
6.76258e-179
-1.21786e-183
2.60355e-181
-4.84233e-186
8.81503e-184
-1.74953e-188
2.72517e-186
-5.88805e-191
7.88697e-189
-1.87766e-193
2.17373e-191
-5.63237e-196
5.7428e-194
1.21168e-196
-3.01215e-195
1.24758e-195
-2.97597e-194
1.13403e-194
-2.49051e-193
9.09811e-194
-1.82335e-192
6.33889e-193
-1.14544e-191
3.73034e-192
-5.97791e-191
1.75487e-191
-2.42029e-190
5.53726e-191
-6.14712e-190
3.55743e-191
3.30383e-195
2.01152e-190
2.72784e-193
1.41492e-189
3.64773e-192
9.75245e-189
3.71589e-191
6.35153e-188
3.20318e-190
3.83822e-187
2.40981e-189
2.12983e-186
1.60197e-188
1.08314e-185
9.4997e-188
5.03609e-185
5.05067e-187
2.14539e-184
2.42428e-186
8.4494e-184
1.06332e-185
3.05427e-183
4.24174e-185
1.02025e-182
1.55207e-184
3.14922e-182
5.21559e-184
8.98849e-182
1.61241e-183
2.38547e-181
4.61618e-183
5.90547e-181
1.22836e-182
1.37641e-180
3.06847e-182
3.03882e-180
7.24428e-182
6.38867e-180
1.62543e-181
1.28248e-179
3.4769e-181
2.46022e-179
7.09889e-181
4.50433e-179
1.38214e-180
7.86965e-179
2.56652e-180
1.31337e-178
4.5515e-180
2.09946e-178
7.73169e-180
3.22395e-178
1.2621e-179
4.7689e-178
1.98581e-179
6.81358e-178
3.02084e-179
9.42406e-178
4.45437e-179
1.2641e-177
6.38012e-179
1.64638e-177
8.89125e-179
2.08612e-177
1.20848e-178
2.57406e-177
1.60429e-178
3.09104e-177
2.08007e-178
3.6139e-177
2.63693e-178
4.11468e-177
3.27195e-178
4.5626e-177
3.97797e-178
4.92343e-177
4.74105e-178
5.16712e-177
5.54492e-178
5.26677e-177
6.36894e-178
5.1998e-177
7.18921e-178
4.93765e-177
7.96705e-178
4.39586e-177
8.55269e-178
3.35623e-177
8.34355e-178
1.66663e-177
5.88684e-178
2.51255e-178
1.52638e-178
2.53708e-180
3.92291e-180
1.4952e-182
-1.46376e-176
1.69173e-178
-1.18327e-174
3.58387e-176
-6.98068e-174
1.14299e-174
-1.37315e-173
3.94548e-174
-1.80921e-173
5.50081e-174
-2.04965e-173
5.72111e-174
-2.17196e-173
5.4247e-174
-2.21038e-173
4.96878e-174
-2.17959e-173
4.457e-174
-2.09001e-173
3.92594e-174
-1.95251e-173
3.39693e-174
-1.77894e-173
2.88659e-174
-1.58138e-173
2.4079e-174
-1.37165e-173
1.97039e-174
-1.16078e-173
1.5804e-174
-9.58017e-174
1.2414e-174
-7.71777e-174
9.53983e-175
-6.06456e-174
7.17467e-175
-4.64004e-174
5.27462e-175
-3.44933e-174
3.78227e-175
-2.4891e-174
2.63884e-175
-1.73963e-174
1.78902e-175
-1.17442e-174
1.17554e-175
-7.6355e-175
7.46444e-176
-4.76723e-175
4.56504e-176
-2.85121e-175
2.6805e-176
-1.63083e-175
1.50712e-176
-8.92479e-176
8.09751e-177
-4.67937e-176
4.15799e-177
-2.35108e-176
2.0426e-177
-1.1297e-176
9.5974e-178
-5.1698e-177
4.30309e-178
-2.23927e-177
1.8324e-178
-9.11447e-178
7.36091e-179
-3.4621e-178
2.7676e-179
-1.2218e-178
9.66466e-180
-3.99908e-179
3.11763e-180
-1.21354e-179
9.26198e-181
-3.41179e-180
2.52863e-181
-8.86413e-181
6.32911e-182
-2.12161e-181
1.44416e-182
-4.66594e-182
2.98209e-183
-9.42316e-183
5.52379e-184
-1.75383e-183
9.08058e-185
-3.04288e-184
1.3063e-185
-5.18615e-185
1.60307e-186
-1.22156e-185
1.60201e-187
-3.64047e-186
1.12693e-188
-8.37689e-187
-9.40209e-186
-1.58821e-187
-4.57068e-186
-2.59281e-188
-1.2006e-186
-3.71617e-189
-2.42134e-187
-4.73626e-190
-4.07104e-188
-5.39292e-191
-5.9092e-189
-5.52336e-192
-7.52373e-190
-5.12829e-193
-8.50405e-191
-5.79098e-194
-8.65543e-192
-4.4557e-193
-2.70651e-192
6.21879e-193
-6.8532e-191
2.36217e-189
-8.87582e-190
5.60383e-187
1.6901e-187
1.18034e-184
5.24934e-185
2.21544e-182
1.37267e-182
3.56366e-180
3.15752e-180
4.61422e-178
6.16095e-178
4.2849e-176
9.59698e-176
2.14608e-174
1.06544e-173
4.69864e-176
6.34955e-172
1.05869e-178
1.36853e-173
4.04577e-183
2.89791e-176
-1.3155e-183
6.73794e-181
-5.33455e-184
-4.97714e-181
-1.1153e-184
-2.11915e-181
-1.64012e-185
-4.63996e-182
-9.85355e-187
-7.34501e-183
-1.83728e-188
-4.6849e-184
-1.29351e-190
-9.3279e-186
-3.73384e-193
-6.99287e-188
-3.95299e-196
-2.15134e-190
-1.62165e-199
-2.44951e-193
-3.99792e-203
-1.07315e-196
-8.11812e-207
-2.79716e-200
-1.64394e-210
-5.91878e-204
-3.57019e-214
-1.23131e-207
-8.15497e-218
-2.72428e-211
-1.85786e-221
-6.31386e-215
-4.00085e-225
-1.45737e-218
-7.75486e-229
-3.18296e-222
-1.29133e-232
-6.28509e-226
-1.75802e-236
-1.07457e-229
-1.86182e-240
-1.51789e-233
-2.45367e-244
-1.68041e-237
-9.2061e-247
-1.49422e-241
-6.66285e-249
-1.43026e-244
-3.93068e-251
-1.11428e-246
-1.78021e-253
-7.50617e-249
-5.66825e-256
-3.96045e-251
-1.06372e-258
-1.50853e-253
-1.27066e-261
-3.51279e-256
-8.65255e-259
-2.29333e-258
-1.06043e-255
-5.75854e-255
-7.71138e-254
-1.6471e-251
2.80217e-252
-4.59169e-248
1.62946e-248
-1.31084e-244
6.89026e-245
-3.65864e-241
2.42161e-241
-9.56968e-238
7.44134e-238
-2.33639e-234
2.10182e-234
-5.47786e-231
5.37041e-231
-1.19219e-227
1.22998e-227
-2.37419e-224
2.52432e-224
-4.30388e-221
4.62854e-221
-7.05697e-218
7.54498e-218
-1.03898e-214
1.08575e-214
-1.36144e-211
1.37734e-211
-1.58642e-208
1.5184e-208
-1.6138e-205
1.4227e-205
-1.40085e-202
1.10891e-202
-1.01549e-199
7.01539e-200
-5.99719e-197
3.49054e-197
-2.79609e-194
1.29534e-194
-9.75199e-192
3.30258e-192
-2.33736e-189
5.20276e-190
-3.4523e-187
4.13557e-188
-2.58905e-185
1.28731e-186
-7.57837e-184
1.48875e-185
-8.62418e-183
-3.18653e-183
1.16117e-180
-3.87045e-180
1.5659e-177
-1.69194e-177
6.87616e-175
-3.49855e-175
1.40376e-172
-3.11049e-173
1.22763e-170
-9.68599e-172
3.74305e-169
-8.52724e-171
3.20678e-168
-1.00838e-170
3.63987e-168
-1.21457e-172
3.42722e-170
-8.20653e-175
1.79941e-172
-4.11315e-177
6.9517e-175
-1.71277e-179
2.20645e-177
-6.30136e-182
6.09814e-180
-2.12847e-184
1.52019e-182
-6.77503e-187
3.49836e-185
-2.0702e-189
7.55265e-188
-6.12253e-192
1.54089e-190
3.63897e-193
-6.99358e-192
4.1385e-192
-7.25263e-191
4.0692e-191
-6.48036e-190
3.60057e-190
-5.15055e-189
2.84955e-189
-3.60205e-188
2.00457e-188
-2.18431e-187
1.23759e-187
-1.11401e-186
6.57325e-187
-4.46211e-186
2.86324e-186
-1.08671e-185
9.204e-186
5.35617e-189
4.82312e-185
1.3673e-187
2.82119e-184
1.43574e-186
1.6098e-183
1.18144e-185
8.59116e-183
8.23905e-185
4.23306e-182
5.01642e-184
1.91738e-181
2.70644e-183
7.98471e-181
1.30881e-182
3.06538e-180
5.72767e-182
1.08845e-179
2.28565e-181
3.57973e-179
8.35534e-181
1.09165e-178
2.80717e-180
3.08779e-178
8.68489e-180
8.11569e-178
2.48201e-179
1.99159e-177
6.59151e-179
4.59282e-177
1.63816e-178
1.00275e-176
3.84149e-178
2.08539e-176
8.5579e-178
4.14801e-176
1.81923e-177
7.90647e-176
3.6987e-177
1.44388e-175
7.19468e-177
2.52283e-175
1.33751e-176
4.21603e-175
2.37632e-176
6.74946e-175
4.0427e-176
1.03773e-174
6.60404e-176
1.53686e-174
1.03926e-175
2.19875e-174
1.58052e-175
3.04685e-174
2.32991e-175
4.09858e-174
3.33767e-175
5.35808e-174
4.6531e-175
6.82037e-174
6.32735e-175
8.46816e-174
8.41035e-175
1.02635e-173
1.09413e-174
1.21327e-173
1.39266e-174
1.39945e-173
1.73607e-174
1.57541e-173
2.12153e-174
1.73087e-173
2.5437e-174
1.8554e-173
2.99469e-174
1.93906e-173
3.46399e-174
1.97313e-173
3.9393e-174
1.94951e-173
4.40611e-174
1.85549e-173
4.83897e-174
1.6559e-173
5.14805e-174
1.26909e-173
4.99813e-174
6.45192e-174
3.60247e-174
1.06901e-174
1.03113e-174
1.2435e-176
3.08026e-176
1.34621e-178
-6.41325e-174
1.10297e-175
-5.23834e-172
2.45828e-173
-2.82611e-171
7.93403e-172
-5.35638e-171
2.50426e-171
-6.94848e-171
3.37832e-171
-7.80124e-171
3.48869e-171
-8.2253e-171
3.31158e-171
-8.35639e-171
3.04777e-171
-8.24893e-171
2.75271e-171
-7.93761e-171
2.44508e-171
-7.45734e-171
2.13599e-171
-6.84613e-171
1.83468e-171
-6.14381e-171
1.54881e-171
-5.38965e-171
1.28418e-171
-4.62103e-171
1.04495e-171
-3.8708e-171
8.33821e-172
-3.17066e-171
6.51823e-172
-2.53848e-171
4.99416e-172
-1.98282e-171
3.74704e-172
-1.50801e-171
2.74685e-172
-1.11565e-171
1.96286e-172
-8.01188e-172
1.36552e-172
-5.57049e-172
9.22579e-173
-3.73852e-172
6.03607e-173
-2.41481e-172
3.81181e-173
-1.49729e-172
2.31544e-173
-8.89656e-173
1.34941e-173
-5.06696e-173
7.52838e-174
-2.77054e-173
4.0202e-174
-1.45538e-173
2.0574e-174
-7.33577e-174
1.00944e-174
-3.53527e-174
4.73932e-175
-1.61978e-174
2.12055e-175
-7.00535e-175
8.9863e-176
-2.83942e-175
3.57781e-176
-1.07341e-175
1.32755e-176
-3.77691e-176
4.56332e-177
-1.23674e-176
1.44784e-177
-3.76825e-177
4.22865e-178
-1.06676e-177
1.13467e-178
-2.80008e-178
2.78051e-179
-6.80823e-179
6.17243e-180
-1.53678e-179
1.22838e-180
-3.25264e-180
2.16054e-181
-6.66314e-181
3.27985e-182
-1.40561e-181
4.07207e-183
-3.0354e-182
2.9906e-184
-6.01547e-183
-3.84518e-182
-1.07034e-183
-2.2239e-182
-1.71725e-184
-6.27218e-183
-2.48751e-185
-1.34978e-183
-3.25661e-186
-2.42797e-184
-3.86246e-187
-3.77887e-185
-4.15124e-188
-5.17916e-186
-4.05265e-189
-6.31381e-187
-3.62358e-190
-6.89378e-188
-1.00868e-190
-7.03306e-189
-2.298e-189
-1.33208e-188
-2.70041e-188
-4.48128e-187
4.69923e-186
-7.16854e-186
1.34175e-183
6.113e-184
3.24177e-181
2.154e-181
6.9188e-179
6.10713e-179
1.25729e-176
1.51817e-176
1.82998e-174
3.19826e-174
1.90327e-172
5.38009e-172
1.06512e-170
6.4564e-170
2.16023e-172
4.16717e-168
4.31212e-175
8.33827e-170
9.46525e-180
1.56263e-172
-6.60949e-180
1.35522e-177
-2.66315e-180
-3.40288e-177
-5.52284e-181
-1.44789e-177
-8.28589e-182
-3.16175e-178
-5.01141e-183
-5.13286e-179
-9.46425e-185
-3.29462e-180
-6.73058e-187
-6.678e-182
-1.9641e-189
-5.07041e-184
-2.12062e-192
-1.58336e-186
-8.80587e-196
-1.84797e-189
-2.17396e-199
-8.2356e-193
-4.35288e-203
-2.16149e-196
-8.55869e-207
-4.53965e-200
-1.78708e-210
-9.24057e-204
-3.90133e-214
-1.98356e-207
-8.46498e-218
-4.43716e-211
-1.73341e-221
-9.84403e-215
-3.19934e-225
-2.05778e-218
-5.09425e-229
-3.8785e-222
-6.67306e-233
-6.32725e-226
-6.8161e-237
-8.54801e-230
-5.55803e-241
-9.08416e-234
-4.84286e-244
-7.15807e-238
-3.40372e-246
-1.26338e-241
-2.04544e-248
-7.41159e-244
-9.49233e-251
-4.99209e-246
-3.12193e-253
-2.63635e-248
-6.12224e-256
-1.00449e-250
-3.24843e-258
-2.33477e-253
-6.27737e-255
-1.08156e-254
-1.25748e-251
-3.64096e-251
-2.00319e-248
-1.19473e-247
-1.41896e-245
-3.7256e-244
2.89973e-245
-1.09824e-240
2.02113e-241
-3.04621e-237
8.47528e-238
-7.91709e-234
2.85319e-234
-1.92031e-230
8.54219e-231
-4.4843e-227
2.26612e-227
-9.69496e-224
5.33196e-224
-1.91786e-220
1.11686e-220
-3.45362e-217
2.0811e-217
-5.62587e-214
3.43755e-214
-8.23023e-211
5.00263e-211
-1.07188e-207
6.42156e-208
-1.24466e-204
7.1482e-205
-1.25991e-201
6.75257e-202
-1.08787e-198
5.30304e-199
-7.84624e-196
3.38015e-196
-4.61351e-193
1.69557e-193
-2.14391e-190
6.34657e-191
-7.46246e-188
1.62906e-188
-1.78385e-185
2.57247e-186
-2.61272e-183
2.05991e-184
-1.95744e-181
6.43183e-183
-5.69672e-180
7.80252e-182
-6.65772e-179
-1.11951e-179
5.78733e-177
-1.6086e-176
9.43018e-174
-7.52746e-174
4.41318e-171
-1.6385e-171
9.41946e-169
-1.52874e-169
8.58469e-167
-4.97792e-168
2.71929e-165
-4.56077e-167
2.40908e-164
-5.54424e-167
2.79446e-164
-5.60182e-169
2.30547e-166
-3.1635e-171
1.06605e-168
-1.31827e-173
3.6412e-171
-4.52801e-176
1.02359e-173
-1.35956e-178
2.50432e-176
-3.69915e-181
5.51034e-179
-9.34288e-184
1.11297e-181
-2.22859e-186
2.09109e-184
-5.06407e-189
3.67958e-187
2.58571e-190
-5.33749e-189
3.05516e-189
-6.0913e-188
3.16063e-188
-5.63861e-187
2.97167e-187
-4.68289e-186
2.53388e-186
-3.46489e-185
1.95992e-185
-2.26782e-184
1.37139e-184
-1.29142e-183
8.67566e-184
-6.21846e-183
4.95551e-183
-2.35767e-182
2.54782e-182
-5.31149e-182
1.18731e-181
1.56119e-184
5.86721e-181
3.25678e-183
2.92331e-180
2.85462e-182
1.38237e-179
1.92952e-181
6.10411e-179
1.10849e-180
2.49909e-178
5.58339e-180
9.47709e-178
2.51428e-179
3.33431e-177
1.0247e-178
1.09071e-176
3.81251e-178
3.3211e-176
1.30239e-177
9.41295e-176
4.09555e-177
2.48372e-175
1.18872e-176
6.11387e-175
3.19581e-176
1.41115e-174
8.01084e-176
3.07541e-174
1.88683e-175
6.37402e-174
4.20998e-175
1.26339e-173
8.9516e-175
2.403e-173
1.8223e-174
4.39163e-173
3.55563e-174
7.7056e-173
6.64885e-174
1.29608e-172
1.19023e-173
2.08918e-172
2.03975e-173
3.23314e-172
3.35377e-173
4.8163e-172
5.30552e-173
6.92683e-172
8.10221e-173
9.64652e-172
1.19832e-172
1.30415e-171
1.72134e-172
1.7153e-171
2.40757e-172
2.19699e-171
3.28271e-172
2.74568e-171
4.37366e-172
3.35431e-171
5.70664e-172
4.00778e-171
7.29824e-172
4.67924e-171
9.14539e-172
5.34059e-171
1.12384e-171
5.96075e-171
1.35565e-171
6.50601e-171
1.60644e-171
6.94287e-171
1.87127e-171
7.24024e-171
2.14418e-171
7.36948e-171
2.41799e-171
7.30177e-171
2.68451e-171
6.98625e-171
2.92986e-171
6.28477e-171
3.10545e-171
4.88448e-171
3.02911e-171
2.57242e-171
2.25177e-171
4.6738e-172
7.06465e-172
5.39172e-174
2.08568e-173
8.72219e-176
-1.09772e-171
2.59633e-173
-8.58942e-170
5.92121e-171
-4.25637e-169
1.8368e-169
-7.78551e-169
5.32844e-169
-9.92723e-169
6.96263e-169
-1.10447e-168
7.11731e-169
-1.15877e-168
6.75203e-169
-1.17511e-168
6.23475e-169
-1.16083e-168
5.66215e-169
-1.1202e-168
5.06434e-169
-1.05744e-168
4.46032e-169
-9.77056e-169
3.86671e-169
-8.8392e-169
3.29789e-169
-7.82942e-169
2.76563e-169
-6.78819e-169
2.27878e-169
-5.75862e-169
1.84326e-169
-4.78495e-169
1.4624e-169
-3.8926e-169
1.13868e-169
-3.09482e-169
8.69439e-170
-2.3998e-169
6.49592e-170
-1.8134e-169
4.73791e-170
-1.33269e-169
3.36954e-170
-9.50042e-170
2.33133e-170
-6.54972e-170
1.56459e-170
-4.35385e-170
1.01519e-170
-2.78315e-170
6.34735e-171
-1.70764e-170
3.81283e-171
-1.00591e-170
2.19557e-171
-5.69897e-171
1.21181e-171
-3.10859e-171
6.41925e-172
-1.63118e-171
3.26581e-172
-8.20897e-172
1.59338e-172
-3.94063e-172
7.4284e-173
-1.79152e-172
3.2883e-173
-7.65761e-173
1.3712e-173
-3.06143e-173
5.34077e-174
-1.14246e-173
1.9299e-174
-3.97998e-174
6.44396e-175
-1.29489e-174
1.98361e-175
-3.93117e-175
5.6076e-176
-1.11172e-175
1.44703e-176
-2.92702e-176
3.37153e-177
-7.20532e-177
6.98221e-178
-1.67765e-177
1.25174e-178
-3.73468e-178
1.82432e-179
-8.01793e-179
1.6257e-180
-1.60165e-179
-5.4366e-179
-2.925e-180
-4.31718e-179
-4.87714e-181
-1.38199e-179
-7.42076e-182
-3.3043e-180
-1.02916e-182
-6.57074e-181
-1.29987e-183
-1.12913e-181
-1.49396e-184
-1.70709e-182
-1.56501e-185
-2.29289e-183
-1.49414e-186
-2.75699e-184
-1.35094e-187
-2.98186e-185
-2.29152e-187
-4.00828e-186
-6.96453e-186
-5.58565e-185
-1.01386e-184
-1.89877e-183
7.91218e-183
-3.0517e-182
2.56412e-180
2.09953e-180
6.71599e-178
7.68489e-178
1.54773e-175
2.23547e-175
3.0321e-173
5.70666e-173
4.75607e-171
1.238e-170
5.33433e-169
2.15196e-168
3.22409e-167
2.67915e-166
6.0514e-169
1.80195e-164
1.06534e-171
3.35356e-166
8.69175e-177
5.54976e-169
-2.05511e-176
-2.3865e-174
-8.24148e-177
-1.57357e-173
-1.69758e-177
-6.73222e-174
-2.60088e-178
-1.47623e-174
-1.5764e-179
-2.47184e-175
-3.01826e-181
-1.59418e-176
-2.16524e-183
-3.3079e-178
-6.3892e-186
-2.54897e-180
-7.04663e-189
-8.11741e-183
-2.96727e-192
-9.76737e-186
-7.3571e-196
-4.45269e-189
-1.45926e-199
-1.18413e-192
-2.80406e-203
-2.48656e-196
-5.67904e-207
-4.99361e-200
-1.19779e-210
-1.05017e-203
-2.50363e-214
-2.2936e-207
-4.92559e-218
-4.95152e-211
-8.72723e-222
-1.00249e-214
-1.33659e-225
-1.82134e-218
-1.69225e-229
-2.85417e-222
-1.68198e-233
-3.70015e-226
-1.23654e-237
-3.77987e-230
-2.03032e-241
-2.83977e-234
-1.10404e-243
-1.82063e-238
-6.86324e-246
-3.46628e-241
-3.32722e-248
-2.32031e-243
-1.15593e-250
-1.23012e-245
-2.42944e-253
-4.70677e-248
-1.00674e-254
-1.09852e-250
-2.98951e-251
-3.87114e-251
-8.49239e-248
-1.48921e-247
-2.2337e-244
-5.39194e-244
-5.34627e-241
-1.82682e-240
-1.13354e-237
-5.7751e-237
-2.01889e-234
-1.69888e-233
-2.59435e-231
-4.63788e-230
-5.37818e-229
-1.17158e-226
5.17314e-228
-2.72949e-223
2.39298e-224
-5.84289e-220
7.34034e-221
-1.14418e-216
1.80742e-217
-2.03916e-213
3.76393e-214
-3.28735e-210
6.74921e-211
-4.75919e-207
1.04696e-207
-6.13457e-204
1.41836e-204
-7.07105e-201
1.64888e-201
-7.08923e-198
1.61517e-198
-6.06157e-195
1.30876e-195
-4.33017e-192
8.57735e-193
-2.52363e-189
4.41386e-190
-1.16321e-186
1.69209e-187
-4.02257e-184
4.43498e-185
-9.55877e-182
7.09556e-183
-1.38099e-179
5.7885e-181
-1.02958e-177
1.82972e-179
-2.96832e-176
2.31759e-178
-3.51957e-175
-2.1796e-176
1.87458e-173
-3.83752e-173
3.82981e-170
-1.93849e-170
1.90996e-167
-4.46465e-168
4.24783e-165
-4.38824e-166
4.01826e-163
-1.49897e-164
1.3171e-161
-1.43322e-163
1.20184e-160
-1.79485e-163
1.41883e-160
-1.60044e-165
1.09537e-162
-8.01052e-168
4.79175e-165
-2.96716e-170
1.56327e-167
-9.06677e-173
4.23177e-170
-2.41833e-175
1.00387e-172
-5.82161e-178
2.1536e-175
-1.292e-180
4.25885e-178
-2.68099e-183
7.85487e-181
-5.24372e-186
1.35966e-183
8.52288e-188
-4.0426e-187
1.10075e-186
-2.70321e-185
1.16712e-185
-2.52759e-184
1.12853e-184
-2.12805e-183
9.93662e-184
-1.60518e-182
7.98127e-183
-1.08023e-181
5.83761e-182
-6.42018e-181
3.89337e-181
-3.32185e-180
2.36995e-180
-1.45226e-179
1.31801e-179
-4.97891e-179
6.70694e-179
-9.8921e-179
3.1408e-178
8.02536e-181
1.42009e-177
1.38725e-179
6.17795e-177
1.04453e-178
2.51978e-176
6.04003e-178
9.55981e-176
2.96347e-177
3.37246e-175
1.28132e-176
1.10799e-174
4.98229e-176
3.39671e-174
1.76411e-175
9.7247e-174
5.72969e-175
2.59914e-173
1.71377e-174
6.4846e-173
4.73424e-174
1.5136e-172
1.21313e-173
3.32304e-172
2.90307e-173
6.91211e-172
6.54647e-173
1.37188e-171
1.40208e-172
2.61192e-171
2.86927e-172
4.78481e-171
5.63074e-172
8.44053e-171
1.06145e-171
1.43213e-170
1.92043e-171
2.33312e-170
3.33035e-171
3.64887e-170
5.53665e-171
5.48869e-170
8.84551e-171
7.96215e-170
1.36182e-170
1.11725e-169
2.02733e-170
1.52101e-169
2.92796e-170
2.01419e-169
4.11425e-170
2.59962e-169
5.63785e-170
3.27313e-169
7.54255e-170
4.02827e-169
9.87472e-170
4.85479e-169
1.26787e-169
5.73223e-169
1.5978e-169
6.62426e-169
1.97522e-169
7.49564e-169
2.39737e-169
8.30814e-169
2.85943e-169
9.02126e-169
3.35385e-169
9.59548e-169
3.8711e-169
9.99326e-169
4.39934e-169
1.01804e-168
4.92556e-169
1.012e-168
5.43551e-169
9.73982e-169
5.90589e-169
8.84527e-169
6.25472e-169
6.99091e-169
6.15377e-169
3.8226e-169
4.73166e-169
7.59974e-170
1.62364e-169
9.1909e-172
5.00888e-171
2.0565e-173
-1.12787e-169
3.49777e-171
-7.94693e-168
7.79082e-169
-3.62999e-167
2.17288e-167
-6.42712e-167
5.79582e-167
-8.09057e-167
7.33268e-167
-8.95034e-167
7.42507e-167
-9.37113e-167
7.0386e-167
-9.50714e-167
6.51839e-167
-9.41426e-167
5.94867e-167
-9.12211e-167
5.35389e-167
-8.65907e-167
4.75009e-167
-8.05684e-167
4.15237e-167
-7.3495e-167
3.57472e-167
-6.5727e-167
3.02885e-167
-5.76085e-167
2.52411e-167
-4.94681e-167
2.06709e-167
-4.16648e-167
1.66211e-167
-3.4408e-167
1.31324e-167
-2.78097e-167
1.01879e-167
-2.1954e-167
7.74358e-168
-1.69165e-167
5.75295e-168
-1.26979e-167
4.17361e-168
-9.26092e-168
2.94996e-168
-6.54267e-168
2.02551e-168
-4.46395e-168
1.34656e-168
-2.93327e-168
8.63953e-169
-1.85262e-168
5.33172e-169
-1.125e-168
3.15793e-169
-6.58103e-169
1.79487e-169
-3.71355e-169
9.80445e-170
-2.02031e-169
5.15128e-170
-1.05672e-169
2.60025e-170
-5.28611e-170
1.25656e-170
-2.5106e-170
5.7778e-171
-1.12357e-170
2.50657e-171
-4.71227e-171
1.0169e-171
-1.84826e-171
3.82969e-172
-6.78286e-172
1.33285e-172
-2.33061e-172
4.27241e-173
-7.49413e-173
1.25641e-173
-2.25199e-173
3.36022e-174
-6.32245e-174
8.05125e-175
-1.66138e-174
1.68461e-175
-4.09584e-175
2.90443e-176
-9.53345e-176
3.38346e-177
-2.06501e-176
-1.72948e-176
-4.10247e-177
-3.84784e-176
-7.45808e-178
-1.49844e-176
-1.23913e-178
-4.13885e-177
-1.8791e-179
-9.36603e-178
-2.5995e-180
-1.81953e-178
-3.27778e-181
-3.10035e-179
-3.76475e-182
-4.68501e-180
-3.93924e-183
-6.31957e-181
-3.75938e-184
-7.64582e-182
-4.5081e-185
-8.38408e-183
-5.64992e-184
-4.56826e-183
-1.74066e-182
-1.86046e-181
-2.55e-181
-6.16467e-180
1.60679e-179
-9.52502e-179
5.40959e-177
6.58844e-177
1.45228e-174
2.40636e-174
3.43029e-172
7.01745e-172
6.90601e-170
1.79717e-169
1.11624e-167
3.92587e-167
1.29452e-165
6.89501e-165
8.12237e-164
8.70721e-163
1.41178e-165
5.96556e-161
2.18483e-168
1.03431e-162
-8.79285e-174
1.50684e-165
-5.42898e-173
-2.53797e-170
-2.17654e-173
-5.71237e-170
-4.47426e-174
-2.47488e-170
-7.02579e-175
-5.4994e-171
-4.2504e-176
-9.5662e-172
-8.27498e-178
-6.18708e-173
-5.98396e-180
-1.32281e-174
-1.78866e-182
-1.03663e-176
-2.02063e-185
-3.38691e-179
-8.65053e-189
-4.22971e-182
-2.1612e-192
-1.98518e-185
-4.26566e-196
-5.38711e-189
-8.05693e-200
-1.14008e-192
-1.59494e-203
-2.27819e-196
-3.28292e-207
-4.73915e-200
-6.68732e-211
-1.02206e-203
-1.27957e-214
-2.17448e-207
-2.20121e-218
-4.32144e-211
-3.27315e-222
-7.66475e-215
-4.03587e-226
-1.16595e-218
-3.93113e-230
-1.46115e-222
-2.82343e-234
-1.44078e-226
-1.73497e-238
-1.04443e-230
-3.17375e-241
-5.16782e-235
-2.04567e-243
-1.44921e-238
-1.04607e-245
-8.97056e-241
-3.86508e-248
-4.79183e-243
-8.71449e-251
-1.84983e-245
-2.96525e-251
-4.36493e-248
-1.09979e-247
-1.15185e-247
-3.82882e-244
-4.79871e-244
-1.24234e-240
-1.8583e-240
-3.74042e-237
-6.67541e-237
-1.04029e-233
-2.22084e-233
-2.65964e-230
-6.83139e-230
-6.2157e-227
-1.93917e-226
-1.31879e-223
-5.06821e-223
-2.51792e-220
-1.21619e-219
-4.27456e-217
-2.67037e-216
-6.33907e-214
-5.34269e-213
-7.97504e-211
-9.69144e-210
-8.02502e-208
-1.58437e-206
-5.44885e-205
-2.31756e-203
-2.19154e-203
-3.00725e-200
6.33093e-202
-3.42526e-197
1.33462e-198
-3.3812e-194
1.77659e-195
-2.84674e-191
1.75014e-192
-2.00289e-188
1.31621e-189
-1.15064e-185
7.50773e-187
-5.22821e-183
3.12143e-184
-1.78619e-180
8.73293e-182
-4.20305e-178
1.46187e-179
-5.95462e-176
1.24717e-177
-4.39359e-174
4.07433e-176
-1.25041e-172
5.43017e-175
-1.48936e-171
-3.22962e-173
4.48982e-170
-7.32883e-170
1.21823e-166
-4.04208e-167
6.47913e-164
-9.90861e-165
1.49587e-161
-1.03002e-162
1.46257e-159
-3.70354e-161
4.94245e-158
-3.69971e-160
4.62374e-157
-4.77731e-160
5.5319e-157
-4.03192e-162
4.17325e-159
-1.92812e-164
1.79995e-161
-6.87918e-167
5.83413e-164
-2.03878e-169
1.57973e-166
-5.30349e-172
3.77052e-169
-1.25035e-174
8.18065e-172
-2.72567e-177
1.64388e-174
-5.56196e-180
3.09204e-177
-1.07024e-182
5.47457e-180
3.55938e-186
8.38956e-183
2.68127e-184
-7.66735e-183
2.85195e-183
-7.12616e-182
2.76501e-182
-5.96012e-181
2.44183e-181
-4.47826e-180
1.96447e-180
-3.00989e-179
1.44021e-179
-1.79996e-178
9.62869e-179
-9.49229e-178
5.87493e-178
-4.34367e-177
3.27509e-177
-1.66885e-176
1.67056e-176
-4.94031e-176
7.80872e-176
-7.58777e-176
3.36322e-175
1.72756e-177
1.36576e-174
2.13419e-176
5.22534e-174
1.35607e-175
1.86676e-173
6.74974e-175
6.21416e-173
2.87437e-174
1.93054e-172
1.0864e-173
5.60916e-172
3.71511e-173
1.52556e-171
1.16181e-172
3.88173e-171
3.34123e-172
9.23717e-171
8.8726e-172
2.06045e-170
2.18532e-171
4.3323e-170
5.03204e-171
8.65199e-170
1.09338e-170
1.65298e-169
2.26012e-170
3.03686e-169
4.47273e-170
5.37981e-169
8.5032e-170
9.19418e-169
1.55485e-169
1.5138e-168
2.73222e-169
2.39653e-168
4.60715e-169
3.64742e-168
7.45649e-169
5.34743e-168
1.16095e-168
7.57284e-168
1.74464e-168
1.03908e-167
2.53879e-168
1.38555e-167
3.58937e-168
1.80016e-167
4.94468e-168
2.28338e-167
6.65207e-168
2.82955e-167
8.74856e-168
3.4324e-167
1.12735e-167
4.08368e-167
1.42653e-167
4.76698e-167
1.77393e-167
5.45363e-167
2.16609e-167
6.1175e-167
2.59965e-167
6.7311e-167
3.06881e-167
7.2658e-167
3.56607e-167
7.69404e-167
4.08168e-167
7.98981e-167
4.60423e-167
8.12962e-167
5.12157e-167
8.08619e-167
5.62153e-167
7.80458e-167
6.08606e-167
7.13204e-167
6.44701e-167
5.71462e-167
6.40633e-167
3.23316e-167
5.09776e-167
7.00746e-168
1.91303e-167
9.48005e-170
6.61015e-169
2.79254e-171
-8.01672e-168
3.13409e-169
-4.90122e-166
6.64401e-167
-2.06984e-165
1.59908e-165
-3.5638e-165
3.92125e-165
-4.44455e-165
4.81007e-165
-4.90566e-165
4.82564e-165
-5.14083e-165
4.5715e-165
-5.23036e-165
4.24617e-165
-5.20179e-165
3.8935e-165
-5.069e-165
3.52515e-165
-4.84478e-165
3.14952e-165
-4.54393e-165
2.77521e-165
-4.18293e-165
2.41049e-165
-3.77914e-165
2.06262e-165
-3.34999e-165
1.73754e-165
-2.9126e-165
1.43979e-165
-2.48697e-165
1.17262e-165
-2.0849e-165
9.39482e-166
-1.71279e-165
7.39954e-166
-1.37615e-165
5.71672e-166
-1.08085e-165
4.32221e-166
-8.28248e-166
3.19551e-166
-6.17645e-166
2.30501e-166
-4.46857e-166
1.61746e-166
-3.12689e-166
1.10051e-166
-2.11021e-166
7.23542e-167
-1.37067e-166
4.58166e-167
-8.57133e-167
2.7876e-167
-5.17121e-167
1.62941e-167
-3.0146e-167
9.16319e-168
-1.69766e-167
4.9636e-168
-9.21146e-168
2.58717e-168
-4.79095e-168
1.29323e-168
-2.37088e-168
6.16066e-169
-1.10754e-168
2.77206e-169
-4.85613e-169
1.16749e-169
-1.9947e-169
4.56459e-170
-7.68155e-170
1.64852e-170
-2.77661e-170
5.48181e-171
-9.41472e-171
1.66757e-171
-2.98912e-171
4.58936e-172
-8.86784e-172
1.11797e-172
-2.45547e-172
2.30515e-173
-6.35773e-173
3.56038e-174
-1.53633e-173
1.84072e-175
-3.40883e-174
-1.60826e-173
-6.9275e-175
-8.6825e-174
-1.28731e-175
-2.89561e-174
-2.18433e-176
-7.66348e-175
-3.38018e-177
-1.7201e-175
-4.7661e-178
-3.36361e-176
-6.11963e-179
-5.80921e-177
-7.15096e-180
-8.93133e-178
-7.60392e-181
-1.22817e-178
-7.41014e-182
-1.5161e-179
-3.62139e-182
-1.84516e-180
-1.33291e-180
-1.06674e-179
-4.01387e-179
-5.14382e-178
-5.66523e-178
-1.66933e-176
3.59347e-176
-2.45876e-175
1.20812e-173
1.77376e-173
3.25152e-171
6.43058e-171
7.70658e-169
1.86764e-168
1.56056e-166
4.76835e-166
2.54513e-164
1.04117e-163
2.98873e-162
1.83371e-161
1.90549e-160
2.33034e-159
3.07846e-162
1.61214e-157
4.18062e-165
2.60681e-159
-6.56658e-170
3.32588e-162
-1.37885e-169
-1.01229e-166
-5.57322e-170
-1.73024e-166
-1.15546e-170
-7.6427e-167
-1.87517e-171
-1.74001e-167
-1.13138e-172
-3.16952e-168
-2.25631e-174
-2.05039e-169
-1.64918e-176
-4.54566e-171
-5.02565e-179
-3.62788e-173
-5.85479e-182
-1.22444e-175
-2.56439e-185
-1.59791e-178
-6.49858e-189
-7.77233e-182
-1.28561e-192
-2.16778e-185
-2.40539e-196
-4.66074e-189
-4.6952e-200
-9.34471e-193
-9.52827e-204
-1.94043e-196
-1.91446e-207
-4.17578e-200
-3.6091e-211
-8.86336e-204
-6.10429e-215
-1.75264e-207