/*--------------------------------*- C++ -*----------------------------------*\
| =========                 |                                                 |
| \\      /  F ield         | OpenFOAM: The Open Source CFD Toolbox           |
|  \\    /   O peration     | Version:  2412                                  |
|   \\  /    A nd           | Website:  www.openfoam.com                      |
|    \\/     M anipulation  |                                                 |
\*---------------------------------------------------------------------------*/
FoamFile
{
    version     2.0;
    format      ascii;
    arch        "LSB;label=32;scalar=64";
    class       volScalarField;
    location    "1.7";
    object      alpha.water;
}
// * * * * * * * * * * * * * * * * * * * * * * * * * * * * * * * * * * * * * //

dimensions      [0 0 0 0 0 0 0];

internalField   nonuniform List<scalar> 
40000
(
7.65032e-172
1.11448e-169
4.05857e-168
1.66101e-167
2.48873e-167
2.64864e-167
2.52187e-167
2.30477e-167
2.0582e-167
1.804e-167
1.55286e-167
1.31246e-167
1.08856e-167
8.85518e-168
7.05399e-168
5.50291e-168
4.19724e-168
3.13044e-168
2.28078e-168
1.61947e-168
1.11736e-168
7.48877e-169
4.86059e-169
3.04606e-169
1.83719e-169
1.06369e-169
5.89596e-170
3.12347e-170
1.58262e-170
7.67492e-171
3.56102e-171
1.57524e-171
6.61309e-172
2.61612e-172
9.68233e-173
3.33119e-173
1.06148e-173
3.13123e-174
8.53678e-175
2.15232e-175
4.99871e-176
1.06526e-176
2.08204e-177
3.72802e-178
6.14418e-179
9.39642e-180
1.34523e-180
1.91393e-181
6.84516e-182
6.87563e-182
2.05935e-182
4.32446e-183
7.34022e-184
1.0612e-184
1.33407e-185
1.4823e-186
1.47578e-187
1.39907e-188
2.04161e-188
-2.86682e-187
-1.74354e-184
-3.992e-182
-8.14444e-180
-1.47482e-177
-2.28092e-175
-2.83118e-173
-2.5135e-171
-1.20047e-169
-2.90182e-171
-7.53724e-174
-4.46898e-178
8.17339e-179
3.43765e-179
7.4715e-180
1.11281e-180
6.84581e-182
1.30684e-183
9.45198e-186
2.80834e-188
3.04431e-191
1.29185e-194
3.34243e-198
7.26714e-202
1.60849e-205
3.87623e-209
9.92485e-213
2.54993e-216
6.21052e-220
1.36164e-223
2.56199e-227
3.94014e-231
4.87245e-235
2.43544e-238
1.96777e-240
1.61337e-242
1.08842e-244
5.75714e-247
2.20535e-249
5.2087e-252
5.28258e-255
8.63345e-253
1.78324e-249
4.94928e-246
1.4231e-242
4.0092e-239
1.05832e-235
2.60725e-232
6.13584e-229
1.34697e-225
2.70576e-222
4.94726e-219
8.18127e-216
1.21469e-212
1.60493e-209
1.8788e-206
1.92348e-203
1.68334e-200
1.23094e-197
7.33123e-195
3.4422e-192
1.20866e-189
2.92991e-187
4.41172e-185
3.34997e-183
1.00123e-181
1.04431e-180
-3.18368e-178
-3.23479e-175
-1.28458e-172
-2.45232e-170
-2.0215e-168
-5.86647e-167
-4.84141e-166
-5.43698e-166
-7.16277e-168
-5.26147e-170
-2.84623e-172
-1.26968e-174
-4.96428e-177
-1.76619e-179
-5.86138e-182
-1.84564e-184
-5.47396e-187
1.16588e-187
1.19001e-186
1.0737e-185
8.56139e-185
5.93589e-184
3.48053e-183
1.63347e-182
5.14832e-182
3.30787e-182
1.87295e-181
1.32085e-180
9.13876e-180
5.98186e-179
3.63752e-178
2.03363e-177
1.04329e-176
4.89942e-176
2.11074e-175
8.41755e-175
3.08501e-174
1.0462e-173
3.28279e-173
9.53786e-173
2.58026e-172
6.52059e-172
1.55367e-171
3.51194e-171
7.57119e-171
1.56107e-170
3.08105e-170
5.81406e-170
1.04892e-169
1.8112e-169
3.00188e-169
4.79017e-169
7.3807e-169
1.10127e-168
1.5952e-168
2.24772e-168
3.08559e-168
4.13624e-168
5.42181e-168
6.94893e-168
8.71721e-168
1.07145e-167
1.29168e-167
1.52806e-167
1.77579e-167
2.02893e-167
2.28008e-167
2.51446e-167
2.67407e-167
2.54918e-167
1.71302e-167
4.15153e-168
1.06751e-169
6.29335e-172
2.53816e-168
3.58689e-166
1.17232e-164
4.41257e-164
6.54999e-164
7.0337e-164
6.76696e-164
6.24664e-164
5.63773e-164
4.99775e-164
4.35561e-164
3.73163e-164
3.14166e-164
2.5974e-164
2.10713e-164
1.67603e-164
1.30582e-164
9.96953e-165
7.4505e-165
5.43875e-165
3.8688e-165
2.67867e-165
1.80075e-165
1.17206e-165
7.36275e-166
4.45078e-166
2.58232e-166
1.4355e-166
7.64833e-167
3.91077e-167
1.91933e-167
9.02258e-168
4.04561e-168
1.71947e-168
6.87725e-169
2.57054e-169
8.93871e-170
2.88672e-170
8.65444e-171
2.40696e-171
6.1941e-172
1.47031e-172
3.2109e-173
6.44711e-174
1.19446e-174
2.06544e-175
3.51275e-176
8.26648e-177
2.46429e-177
5.67897e-178
1.07962e-178
1.76942e-179
2.54904e-180
3.26937e-181
3.75084e-182
3.87537e-183
3.6343e-184
4.15023e-185
3.23331e-184
-4.57498e-184
-1.76398e-180
-4.25321e-178
-9.11688e-176
-1.74367e-173
-2.86177e-171
-3.7857e-169
-3.59649e-167
-1.84529e-165
-4.1445e-167
-9.59315e-170
-3.77149e-174
1.26346e-174
5.28666e-175
1.14226e-175
1.73873e-176
1.08307e-177
2.09746e-179
1.53648e-181
4.62355e-184
5.113e-187
2.19563e-190
5.67895e-194
1.21277e-197
2.58965e-201
5.94738e-205
1.44113e-208
3.49512e-212
8.04389e-216
1.67367e-219
3.00682e-223
4.44228e-227
5.14043e-231
7.46258e-235
3.11487e-237
2.53868e-239
1.71283e-241
9.05354e-244
3.45885e-246
8.10749e-249
1.2889e-251
1.31087e-248
3.17088e-245
8.83298e-242
2.53146e-238
7.09751e-235
1.86458e-231
4.57176e-228
1.07361e-224
2.34622e-221
4.69199e-218
8.54186e-215
1.40673e-211
2.0805e-208
2.73913e-205
3.20149e-202
3.27156e-199
2.85637e-196
2.08418e-193
1.23941e-190
5.81805e-188
2.04383e-185
4.94788e-183
7.4221e-181
5.63236e-179
1.67787e-177
1.8613e-176
-3.82976e-174
-4.48094e-171
-1.8906e-168
-3.78028e-166
-3.25591e-164
-9.83908e-163
-8.42017e-162
-9.69503e-162
-1.13881e-163
-7.51574e-166
-3.68493e-168
-1.50329e-170
-5.42625e-173
-1.80085e-175
-5.64001e-178
-1.69802e-180
-4.95468e-183
2.90941e-184
3.27335e-183
3.18826e-182
2.79819e-181
2.19941e-180
1.53862e-179
9.45849e-179
5.00849e-178
2.17778e-177
6.99689e-177
3.66923e-176
2.15051e-175
1.23108e-174
6.59957e-174
3.27048e-173
1.49179e-172
6.26394e-172
2.42782e-171
8.71447e-171
2.90101e-170
8.96646e-170
2.57396e-169
6.87522e-169
1.717e-168
4.03531e-168
8.99182e-168
1.91138e-167
3.89206e-167
7.60668e-167
1.42672e-166
2.56475e-166
4.41778e-166
7.30371e-166
1.16202e-165
1.78465e-165
2.65388e-165
3.8319e-165
5.38528e-165
7.37651e-165
9.86929e-165
1.29244e-164
1.65856e-164
2.08483e-164
2.56952e-164
3.1079e-164
3.69211e-164
4.31124e-164
4.95129e-164
5.59564e-164
6.22181e-164
6.78037e-164
7.10215e-164
6.65296e-164
4.46637e-164
1.15896e-164
3.35244e-166
2.21238e-168
1.02262e-165
1.55627e-163
5.27753e-162
1.85807e-161
2.71254e-161
2.91909e-161
2.82434e-161
2.62532e-161
2.38852e-161
2.13676e-161
1.88129e-161
1.63012e-161
1.38961e-161
1.16476e-161
9.59244e-162
7.75607e-162
6.15164e-162
4.78856e-162
3.65534e-162
2.73051e-162
1.99149e-162
1.41655e-162
9.80415e-163
6.58439e-163
4.27747e-163
2.6798e-163
1.61468e-163
9.34016e-164
5.18783e-164
2.77101e-164
1.42427e-164
7.03523e-165
3.32766e-165
1.49866e-165
6.38025e-166
2.54929e-166
9.5137e-167
3.3091e-167
1.07259e-167
3.23943e-168
9.1022e-169
2.37453e-169
5.74569e-170
1.29238e-170
2.72931e-171
5.586e-172
1.17884e-172
2.55002e-173
5.06874e-174
9.05761e-175
1.46134e-175
2.13147e-176
2.81351e-177
3.36889e-178
3.66032e-179
3.61722e-180
3.27831e-181
9.26242e-182
2.14471e-180
2.565e-179
-4.54894e-177
-1.32551e-174
-3.27285e-172
-7.14842e-170
-1.33125e-167
-1.98851e-165
-2.1255e-163
-1.22422e-161
-2.55913e-163
-5.2729e-166
-1.19647e-170
8.64956e-171
3.61357e-171
7.78196e-172
1.21431e-172
7.65083e-174
1.50766e-175
1.12064e-177
3.42392e-180
3.87747e-183
1.69198e-186
4.39806e-190
9.29118e-194
1.93171e-197
4.27508e-201
9.91723e-205
2.29292e-208
5.01866e-212
9.9351e-216
1.70338e-219
2.41326e-223
2.67981e-227
2.39009e-231
2.2944e-234
1.79231e-236
1.21025e-238
6.3987e-241
2.44131e-243
5.6919e-246
3.71889e-248
9.34106e-245
2.67141e-241
7.44284e-238
2.12268e-234
5.91637e-231
1.54487e-227
3.76433e-224
8.80683e-221
1.91242e-217
3.79993e-214
6.87351e-211
1.12481e-207
1.65327e-204
2.16366e-201
2.51944e-198
2.56274e-195
2.22604e-192
1.61624e-189
9.5699e-187
4.47848e-184
1.56987e-181
3.78694e-179
5.63805e-177
4.26921e-175
1.26404e-173
1.4579e-172
-1.99369e-170
-2.73674e-167
-1.22621e-164
-2.56117e-162
-2.29771e-160
-7.20853e-159
-6.37567e-158
-7.49606e-158
-7.3387e-160
-4.02286e-162
-1.63007e-164
-5.45365e-167
-1.59766e-169
-4.24822e-172
-1.05029e-174
-2.45621e-177
-5.48051e-180
2.75205e-181
3.20277e-180
3.26834e-179
3.03567e-178
2.56079e-177
1.9624e-176
1.36235e-175
8.5629e-175
4.86635e-174
2.49271e-173
1.15894e-172
5.72147e-172
2.85183e-171
1.35094e-170
5.98391e-170
2.46084e-169
9.38643e-169
3.32618e-168
1.09737e-167
3.37462e-167
9.6731e-167
2.5849e-166
6.4531e-166
1.51272e-165
3.35311e-165
7.07888e-165
1.43134e-164
2.7816e-164
5.20231e-164
9.35671e-164
1.61598e-163
2.67946e-163
4.27341e-163
6.57345e-163
9.78235e-163
1.41274e-162
1.98526e-162
2.72094e-162
3.64141e-162
4.76903e-162
6.12512e-162
7.72106e-162
9.54787e-162
1.15924e-161
1.38318e-161
1.62301e-161
1.87406e-161
2.13072e-161
2.38599e-161
2.63014e-161
2.84138e-161
2.94954e-161
2.74586e-161
1.86595e-161
5.17507e-162
1.44073e-163
8.87542e-166
1.76701e-163
2.80902e-161
9.34474e-160
3.0811e-159
4.4158e-159
4.73979e-159
4.60011e-159
4.29768e-159
3.93526e-159
3.54725e-159
3.1503e-159
2.75641e-159
2.37517e-159
2.01461e-159
1.68093e-159
1.37856e-159
1.11038e-159
8.79008e-160
6.83384e-160
5.2073e-160
3.88021e-160
2.82454e-160
2.0043e-160
1.38262e-160
9.24285e-161
5.96949e-161
3.71444e-161
2.22245e-161
1.27888e-161
7.08989e-162
3.79045e-162
1.95258e-162
9.66173e-163
4.56726e-163
2.04784e-163
8.64565e-164
3.41899e-164
1.26392e-164
4.36816e-165
1.41191e-165
4.26458e-166
1.2016e-166
3.15659e-167
7.7642e-168
1.80893e-168
4.03531e-169
8.69395e-170
1.74534e-170
3.20799e-171
5.39145e-172
8.28068e-173
1.16099e-173
1.48467e-174
1.73029e-175
1.84075e-176
1.78749e-177
1.64642e-178
2.84943e-178
8.85022e-177
1.31872e-175
-1.0551e-173
-3.51119e-171
-9.45895e-169
-2.24573e-166
-4.54008e-164
-7.36109e-162
-8.54811e-160
-5.3582e-158
-1.04476e-159
-1.91393e-162
-1.62758e-167
4.01781e-167
1.68502e-167
3.63569e-168
5.8445e-169
3.72269e-170
7.50248e-172
5.67404e-174
1.76782e-176
2.06176e-179
9.19429e-183
2.41769e-186
5.093e-190
1.04082e-193
2.24494e-197
5.04945e-201
1.12703e-204
2.37101e-208
4.49858e-212
7.3888e-216
1.00493e-219
1.07495e-223
8.52309e-228
1.51306e-231
8.92278e-234
6.0378e-236
3.20102e-238
1.22337e-240
2.84988e-243
1.32196e-244
4.45224e-241
1.46029e-237
4.54763e-234
1.33765e-230
3.69939e-227
9.57936e-224
2.31352e-220
5.37671e-217
1.15633e-213
2.27492e-210
4.07331e-207
6.59777e-204
9.59806e-201
1.24335e-197
1.4367e-194
1.44789e-191
1.24552e-188
8.95749e-186
5.2569e-183
2.44098e-180
8.50032e-178
2.03581e-175
2.99202e-173
2.25305e-171
6.60284e-170
7.7858e-169
-6.84253e-167
-1.12982e-163
-5.37044e-161
-1.16759e-158
-1.08659e-156
-3.5247e-155
-3.20895e-154
-3.83676e-154
-3.27471e-156
-1.57278e-158
-5.60338e-161
-1.6507e-163
-4.25416e-166
-9.91665e-169
-2.13564e-171
-4.30929e-174
-8.21226e-177
1.3031e-178
1.64612e-177
1.71037e-176
1.62361e-175
1.40601e-174
1.11263e-173
8.03147e-173
5.29543e-172
3.19194e-171
1.76069e-170
8.90085e-170
4.1475e-169
1.86886e-168
8.11518e-168
3.30872e-167
1.25676e-166
4.44543e-166
1.46662e-165
4.52171e-165
1.30385e-164
3.51506e-164
8.85906e-164
2.09203e-163
4.65361e-163
9.8225e-163
1.98131e-162
3.83979e-162
7.17128e-162
1.29179e-161
2.24192e-161
3.74226e-161
6.00728e-161
9.29203e-161
1.38875e-160
2.0117e-160
2.83321e-160
3.88999e-160
5.21787e-160
6.84511e-160
8.80148e-160
1.1115e-159
1.37965e-159
1.68201e-159
2.0158e-159
2.37682e-159
2.75906e-159
3.15509e-159
3.55583e-159
3.95047e-159
4.32371e-159
4.64024e-159
4.79081e-159
4.45664e-159
3.08215e-159
9.14889e-160
2.60188e-161
1.5393e-163
1.89445e-161
2.99158e-159
9.09913e-158
2.8013e-157
3.92993e-157
4.20386e-157
4.08837e-157
3.83583e-157
3.53204e-157
3.20532e-157
2.86885e-157
2.53218e-157
2.20334e-157
1.88905e-157
1.59486e-157
1.32489e-157
1.08215e-157
8.69792e-158
6.87521e-158
5.3334e-158
4.05152e-158
3.01131e-158
2.18526e-158
1.54413e-158
1.05908e-158
7.02892e-159
4.50115e-159
2.77555e-159
1.64844e-159
9.44738e-160
5.23153e-160
2.79763e-160
1.44066e-160
7.10657e-161
3.3335e-161
1.47569e-161
6.13161e-162
2.38628e-162
8.70254e-163
2.97614e-163
9.53934e-164
2.86185e-164
8.03382e-165
2.11417e-165
5.22793e-166
1.22248e-166
2.66451e-167
5.335e-168
9.79093e-169
1.64491e-169
2.52658e-170
3.54619e-171
4.5445e-172
5.31415e-173
5.67126e-174
5.53008e-175
6.78825e-176
8.72508e-175
2.76178e-173
4.16488e-172
-2.70675e-170
-9.41759e-168
-2.61803e-165
-6.41644e-163
-1.34299e-160
-2.26148e-158
-2.738e-156
-1.79721e-154
-3.27497e-156
-5.32437e-159
2.25585e-164
1.46941e-163
6.22741e-164
1.356e-164
2.25991e-165
1.45384e-166
3.01527e-168
2.32681e-170
7.43344e-173
8.98753e-176
4.12295e-179
1.10479e-182
2.34033e-186
4.74595e-190
1.00867e-193
2.22805e-197
4.86661e-201
9.97194e-205
1.83381e-208
2.90853e-212
3.81524e-216
3.94172e-220
2.99307e-224
1.93787e-228
3.72227e-231
2.51096e-233
1.3398e-235
5.15257e-238
1.20694e-240
4.26227e-241
1.64065e-237
5.93471e-234
2.00583e-230
6.31643e-227
1.8484e-223
5.01337e-220
1.2568e-216
2.90296e-213
6.15591e-210
1.19341e-206
2.10459e-203
3.35635e-200
4.80645e-197
6.12898e-194
6.99071e-191
6.93863e-188
5.87726e-185
4.1628e-182
2.40777e-179
1.10273e-176
3.79396e-174
8.98322e-172
1.29525e-169
9.65426e-168
2.78807e-166
3.31831e-165
-1.7778e-163
-3.662e-160
-1.84587e-157
-4.16055e-155
-3.99917e-153
-1.33624e-151
-1.24637e-150
-1.50931e-150
-1.19947e-152
-5.42187e-155
-1.83509e-157
-5.17682e-160
-1.28596e-162
-2.90408e-165
-6.08155e-168
-1.19552e-170
-2.22209e-173
7.1566e-177
5.23382e-175
5.41754e-174
5.12317e-173
4.42284e-172
3.48596e-171
2.509e-170
1.65015e-169
9.92429e-169
5.46387e-168
2.75764e-167
1.27775e-166
5.46512e-166
2.20782e-165
8.41778e-165
3.00196e-164
9.99217e-164
3.1091e-163
9.06241e-163
2.47664e-162
6.34217e-162
1.52135e-161
3.42623e-161
7.28503e-161
1.47359e-160
2.85604e-160
5.33156e-160
9.61265e-160
1.67476e-159
2.81579e-159
4.55994e-159
7.11171e-159
1.07034e-158
1.559e-158
2.20446e-158
3.03552e-158
4.08149e-158
5.36988e-158
6.9189e-158
8.74943e-158
1.0882e-157
1.33195e-157
1.60306e-157
1.89864e-157
2.21463e-157
2.54572e-157
2.88545e-157
3.22615e-157
3.55886e-157
3.87059e-157
4.13176e-157
4.25075e-157
3.96283e-157
2.79817e-157
8.92019e-158
2.78825e-159
1.66618e-161
1.41245e-159
2.15164e-157
5.72418e-156
1.6404e-155
2.25094e-155
2.39687e-155
2.3345e-155
2.19882e-155
2.03534e-155
1.85877e-155
1.67587e-155
1.49149e-155
1.30981e-155
1.13448e-155
9.68544e-156
8.14443e-156
6.74075e-156
5.49658e-156
4.41344e-156
3.48215e-156
2.69377e-156
2.04194e-156
1.51355e-156
1.09409e-156
7.68864e-157
5.23605e-157
3.44546e-157
2.18612e-157
1.33774e-157
7.91125e-158
4.52846e-158
2.50819e-158
1.34072e-158
6.88063e-159
3.36519e-159
1.55615e-159
6.76495e-160
2.75947e-160
1.05698e-160
3.80606e-161
1.28771e-161
4.08605e-162
1.21348e-162
3.36917e-163
8.76158e-164
2.13003e-164
4.76289e-165
9.77148e-166
1.8363e-166
3.15669e-167
4.95782e-168
7.1081e-169
9.29757e-170
1.1089e-170
1.20588e-171
1.2042e-172
6.04264e-173
2.28839e-171
7.1057e-170
1.03635e-168
-6.80803e-167
-2.37566e-164
-6.65179e-162
-1.64398e-159
-3.47982e-157
-5.94674e-155
-7.33542e-153
-4.92522e-151
-8.40001e-153
-1.20745e-155
2.01265e-160
4.49647e-160
1.93874e-160
4.29862e-161
7.47919e-162
4.84989e-163
1.0419e-164
8.22087e-167
2.70961e-169
3.41972e-172
1.62468e-175
4.46943e-179
9.60075e-183
1.94953e-186
4.12495e-190
9.05487e-194
1.96184e-197
3.97148e-201
7.17551e-205
1.11165e-208
1.41812e-212
1.4224e-216
1.04779e-220
5.2617e-225
1.49531e-228
9.3638e-231
5.05053e-233
1.96459e-235
4.66084e-238
1.23377e-237
5.14396e-234
1.98888e-230
7.11692e-227
2.35339e-223
7.18028e-220
2.01777e-216
5.21172e-213
1.23409e-209
2.67042e-206
5.26002e-203
9.38656e-200
1.50885e-196
2.1696e-193
2.76744e-190
3.09933e-187
3.00966e-184
2.49441e-181
1.72917e-178
9.79854e-176
4.39722e-173
1.4859e-170
3.46383e-168
4.87032e-166
3.57323e-164
1.01322e-162
1.2053e-161
-3.63667e-160
-9.9006e-157
-5.29702e-154
-1.23347e-151
-1.22004e-149
-4.18251e-148
-3.98239e-147
-4.86578e-147
-3.76175e-149
-1.66886e-151
-5.58615e-154
-1.56871e-156
-3.90116e-159
-8.86356e-162
-1.87517e-164
-3.73651e-167
-7.05604e-170
-1.16184e-172
1.15145e-172
1.17234e-171
1.08734e-170
9.19948e-170
7.09438e-169
4.99123e-168
3.2053e-167
1.88045e-166
1.00886e-165
4.9558e-165
2.23308e-164
9.24479e-164
3.54336e-163
1.27321e-162
4.2862e-162
1.35017e-161
3.98413e-161
1.1038e-160
2.87331e-160
7.02155e-160
1.60988e-159
3.47087e-159
7.07805e-159
1.37614e-158
2.56949e-158
4.63117e-158
8.07772e-158
1.36382e-157
2.22548e-157
3.50264e-157
5.3161e-157
7.79739e-157
1.10849e-156
1.53216e-156
2.0655e-156
2.72305e-156
3.51798e-156
4.45662e-156
5.5479e-156
6.80115e-156
8.21509e-156
9.76752e-156
1.14397e-155
1.32078e-155
1.5042e-155
1.69065e-155
1.87613e-155
2.05582e-155
2.22295e-155
2.36187e-155
2.42407e-155
2.26884e-155
1.63886e-155
5.62468e-156
2.02141e-157
1.25397e-159
7.68011e-158
1.11869e-155
2.53795e-154
6.75914e-154
9.06282e-154
9.59965e-154
9.36077e-154
8.85019e-154
8.23456e-154
7.56713e-154
6.87155e-154
6.16524e-154
5.4633e-154
4.77935e-154
4.12507e-154
3.5103e-154
2.94302e-154
2.43383e-154
1.98438e-154
1.59169e-154
1.25334e-154
9.6845e-155
7.32836e-155
5.41643e-155
3.89779e-155
2.72238e-155
1.83997e-155
1.2007e-155
7.56696e-156
4.61548e-156
2.72926e-156
1.56448e-156
8.67273e-157
4.62587e-157
2.35625e-157
1.13681e-157
5.16454e-158
2.20519e-158
8.85955e-159
3.35348e-159
1.19498e-159
3.99695e-160
1.2506e-160
3.65437e-161
9.9818e-162
2.52162e-162
5.85234e-163
1.2452e-163
2.42495e-164
4.31607e-165
7.01161e-166
1.03853e-166
1.40166e-167
1.72286e-168
1.92843e-169
2.15374e-170
1.154e-169
5.20168e-168
1.59006e-166
2.22047e-165
-1.52831e-163
-5.31386e-161
-1.48768e-158
-3.6784e-156
-7.81128e-154
-1.34344e-151
-1.67343e-149
-1.13915e-147
-1.81816e-149
-2.29747e-152
6.94723e-157
1.18329e-156
5.22328e-157
1.1917e-157
2.18074e-158
1.42103e-159
3.18082e-161
2.56882e-163
8.79233e-166
1.16593e-168
5.7733e-172
1.64195e-175
3.60539e-179
7.3921e-183
1.5714e-186
3.46494e-190
7.54027e-194
1.52916e-197
2.75386e-201
4.22453e-205
5.30131e-209
5.20511e-213
3.74337e-217
1.78483e-221
9.3482e-226
3.26883e-228
1.7877e-230
7.06517e-233
1.71195e-235
3.34191e-234
1.47364e-230
5.98349e-227
2.23529e-223
7.67714e-220
2.42179e-216
7.00761e-213
1.85674e-209
4.49423e-206
9.90757e-203
1.98165e-199
3.57923e-196
5.80456e-193
8.39334e-190
1.07311e-186
1.2006e-183
1.16075e-180
9.54457e-178
6.5393e-175
3.63592e-172
1.58806e-169
5.23928e-167
1.19816e-164
1.63454e-162
1.17285e-160
3.26013e-159
3.8444e-158
-5.75317e-157
-2.29239e-153
-1.30567e-150
-3.13332e-148
-3.17898e-146
-1.115e-144
-1.0807e-143
-1.32787e-143
-1.01849e-145
-4.51058e-148
-1.51536e-150
-4.29177e-153
-1.08119e-155
-2.49869e-158
-5.39738e-161
-1.1016e-163
-2.13589e-166
-3.9206e-169
1.85073e-170
1.89756e-169
1.70946e-168
1.40219e-167
1.04716e-166
7.12336e-166
4.41738e-165
2.49935e-164
1.29206e-163
6.1088e-163
2.6479e-162
1.05394e-161
3.86146e-161
1.31637e-160
4.19596e-160
1.25275e-159
3.51101e-159
9.25809e-159
2.29865e-158
5.3679e-158
1.17799e-157
2.43451e-157
4.76738e-157
8.9188e-157
1.60584e-156
2.79667e-156
4.72197e-156
7.73001e-156
1.2248e-155
1.87432e-155
2.76969e-155
3.96105e-155
5.49891e-155
7.43367e-155
9.81642e-155
1.26958e-154
1.61142e-154
2.00799e-154
2.46175e-154
2.97569e-154
3.5482e-154
4.1688e-154
4.82938e-154
5.52027e-154
6.23e-154
6.94499e-154
7.65045e-154
8.32892e-154
8.95604e-154
9.47491e-154
9.70874e-154
9.13449e-154
6.758e-154
2.5012e-154
1.05993e-155
6.87886e-158
3.14847e-156
4.38841e-154
8.34186e-153
2.06172e-152
2.70135e-152
2.84345e-152
2.77419e-152
2.63269e-152
2.46238e-152
2.27697e-152
2.08255e-152
1.88366e-152
1.68427e-152
1.48811e-152
1.29841e-152
1.11804e-152
9.49461e-153
7.96216e-153
6.59086e-153
5.3736e-153
4.30613e-153
3.39119e-153
2.61934e-153
1.97927e-153
1.45855e-153
1.04486e-153
7.25428e-154
4.86977e-154
3.16147e-154
1.98928e-154
1.21536e-154
7.21042e-155
4.14502e-155
2.29756e-155
1.21875e-155
6.13476e-156
2.91259e-156
1.30187e-156
5.48587e-157
2.18238e-157
8.18575e-158
2.88387e-158
9.50477e-159
2.92485e-159
8.38241e-160
2.21329e-160
5.36899e-161
1.19335e-161
2.42642e-162
4.50594e-163
7.62807e-164
1.17636e-164
1.6509e-165
2.10718e-166
2.45033e-167
6.39679e-168
2.31665e-166
1.05704e-164
3.20423e-163
4.28771e-162
-2.95329e-160
-1.03154e-157
-2.88535e-155
-7.12649e-153
-1.51584e-150
-2.61939e-148
-3.28913e-146
-2.2653e-144
-3.38074e-146
-3.72428e-149
1.74959e-153
2.7175e-153
1.23412e-153
2.93179e-154
5.68895e-155
3.7119e-156
8.69511e-158
7.18879e-160
2.57253e-162
3.6054e-165
1.87149e-168
5.53829e-172
1.25231e-175
2.61202e-179
5.62335e-183
1.25724e-186
2.77886e-190
5.71884e-194
1.04118e-197
1.60464e-201
2.00788e-205
1.95168e-209
1.38167e-213
6.44796e-218
1.81613e-222
1.112e-225
6.11115e-228
2.46274e-230
6.24497e-233
8.71585e-231
4.02784e-227
1.7047e-223
6.60716e-220
2.34469e-216
7.61429e-213
2.26046e-209
6.12507e-206
1.51148e-202
3.38673e-199
6.86411e-196
1.25242e-192
2.0454e-189
2.96898e-186
3.7983e-183
4.23834e-180
4.07345e-177
3.31835e-174
2.24397e-171
1.22582e-168
5.23482e-166
1.68246e-163
3.76319e-161
4.96345e-159
3.45705e-157
9.42688e-156
1.09401e-154
-6.30742e-154
-4.6041e-150
-2.80725e-147
-6.9321e-145
-7.19761e-143
-2.57803e-141
-2.53706e-140
-3.1275e-140
-2.3949e-142
-1.06413e-144
-3.60305e-147
-1.03277e-149
-2.64383e-152
-6.23295e-155
-1.37855e-157
-2.89003e-160
-5.76786e-163
-1.09558e-165
5.70188e-169
2.43052e-167
2.11114e-166
1.66656e-165
1.19581e-164
7.80773e-164
4.64035e-163
2.51334e-162
1.24255e-161
5.61841e-161
2.32668e-160
8.84745e-160
3.09622e-159
1.00252e-158
3.03066e-158
8.58042e-158
2.28363e-157
5.73058e-157
1.35692e-156
3.02762e-156
6.35872e-156
1.25977e-155
2.36922e-155
4.26563e-155
7.40701e-155
1.24646e-154
2.03707e-154
3.23269e-154
4.97247e-154
7.39721e-154
1.06412e-153
1.48382e-153
2.01167e-153
2.66005e-153
3.44143e-153
4.36716e-153
5.44674e-153
6.67736e-153
8.06327e-153
9.61158e-153
1.13149e-152
1.31374e-152
1.50544e-152
1.70376e-152
1.90546e-152
2.10684e-152
2.3039e-152
2.49211e-152
2.66509e-152
2.80819e-152
2.87558e-152
2.72307e-152
2.06347e-152
8.24597e-153
4.19195e-154
2.84284e-156
9.9673e-155
1.33431e-152
2.09338e-151
4.79868e-151
6.16056e-151
6.42816e-151
6.26091e-151
5.96123e-151
5.60515e-151
5.21625e-151
4.8058e-151
4.38256e-151
3.95447e-151
3.52904e-151
3.11307e-151
2.71273e-151
2.33356e-151
1.98453e-151
1.66784e-151
1.3822e-151
1.12722e-151
9.04764e-152
7.13352e-152
5.51151e-152
4.15977e-152
3.05735e-152
2.18152e-152
1.5074e-152
1.00876e-152
6.55229e-153
4.13838e-153
2.5422e-153
1.51605e-153
8.73579e-154
4.82762e-154
2.53669e-154
1.25943e-154
5.89737e-155
2.60837e-155
1.09114e-155
4.31015e-156
1.60068e-156
5.56337e-157
1.80525e-157
5.43729e-158
1.5081e-158
3.84176e-159
8.97025e-160
1.91503e-160
3.73189e-161
6.62397e-162
1.06984e-162
1.57072e-163
2.09487e-164
2.62743e-165
7.31304e-165
4.30973e-163
1.9561e-161
5.90591e-160
7.57701e-159
-4.87455e-157
-1.73486e-154
-4.85609e-152
-1.19877e-149
-2.55545e-147
-4.44e-145
-5.62478e-143
-3.92299e-141
-5.4642e-143
-5.18902e-146
3.63224e-150
5.49951e-150
2.57615e-150
6.45718e-151
1.33975e-151
8.73132e-153
2.14479e-154
1.81492e-156
6.83995e-159
1.01818e-161
5.56866e-165
1.72488e-168
4.04376e-172
8.63861e-176
1.89656e-179
4.33421e-183
9.82572e-187
2.07611e-190
3.872e-194
6.08218e-198
7.70085e-202
7.51133e-206
5.29334e-210
2.44326e-214
6.2562e-219
4.20886e-223
2.04466e-225
8.42748e-228
2.54699e-230
2.21684e-227
1.07131e-223
4.71522e-220
1.89154e-216
6.91852e-213
2.30698e-209
7.00792e-206
1.93661e-202
4.8582e-199
1.10309e-195
2.25838e-192
4.14905e-189
6.80076e-186
9.87505e-183
1.25968e-179
1.39698e-176
1.33009e-173
1.06992e-170
7.11865e-168
3.8079e-165
1.58322e-162
4.94524e-160
1.08029e-157
1.37553e-155
9.21596e-154
2.47452e-152
2.80436e-151
-2.15077e-151
-8.07361e-147
-5.31596e-144
-1.35005e-141
-1.43211e-139
-5.23121e-138
-5.21974e-137
-6.44309e-137
-4.92984e-139
-2.19915e-141
-7.50869e-144
-2.17949e-146
-5.67321e-149
-1.36548e-151
-3.09504e-154
-6.67103e-157
-1.37136e-159
-2.6849e-162
-4.70961e-165
2.5373e-165
2.1179e-164
1.59888e-163
1.09613e-162
6.82542e-162
3.86494e-161
1.99278e-160
9.37234e-160
4.02897e-159
1.58634e-158
5.73638e-158
1.90964e-157
5.87217e-157
1.68284e-156
4.51689e-156
1.14085e-155
2.72205e-155
6.14153e-155
1.30825e-154
2.62779e-154
4.98777e-154
9.00515e-154
1.55984e-153
2.61129e-153
4.24428e-153
6.71017e-153
1.03162e-152
1.53947e-152
2.22503e-152
3.1146e-152
4.2332e-152
5.60379e-152
7.24734e-152
9.18573e-152
1.14374e-151
1.40173e-151
1.69065e-151
2.01085e-151
2.36369e-151
2.74697e-151
3.15167e-151
3.57213e-151
4.00233e-151
4.43536e-151
4.86373e-151
5.27944e-151
5.67366e-151
6.03474e-151
6.33682e-151
6.49994e-151
6.21168e-151
4.80786e-151
2.07511e-151
1.28423e-152
9.06612e-155
2.47324e-153
3.19242e-151
4.075e-150
8.6871e-150
1.10411e-149
1.13384e-149
1.09459e-149
1.0439e-149
9.86647e-150
9.24239e-150
8.57936e-150
7.88995e-150
7.18588e-150
6.47885e-150
5.77945e-150
5.09758e-150
4.44287e-150
3.83225e-150
3.27036e-150
2.75518e-150
2.28691e-150
1.87108e-150
1.50613e-150
1.19011e-150
9.20294e-151
6.94335e-151
5.0952e-151
3.62709e-151
2.5045e-151
1.68095e-151
1.09854e-151
6.99291e-152
4.32892e-152
2.59467e-152
1.49488e-152
8.2067e-153
4.26553e-153
2.09497e-153
9.73693e-154
4.28855e-154
1.7863e-154
7.00283e-155
2.57087e-155
8.81062e-156
2.79696e-156
8.18095e-157
2.19926e-157
5.41818e-158
1.22039e-158
2.50694e-159
4.68928e-160
7.97422e-161
1.23125e-161
1.72649e-162
3.72057e-163
1.20085e-161
7.41356e-160
3.30892e-158
9.95259e-157
1.22103e-155
-6.86738e-154
-2.54069e-151
-7.13532e-149
-1.76232e-146
-3.76936e-144
-6.59353e-142
-8.44035e-140
-5.97186e-138
-7.74075e-140
-6.24486e-143
6.50141e-147
9.83663e-147
4.76051e-147
1.2788e-147
2.86358e-148
1.86523e-149
4.7958e-151
4.15641e-153
1.66249e-155
2.63848e-158
1.52733e-161
4.97857e-165
1.21787e-168
2.68126e-172
6.03929e-176
1.42056e-179
3.33166e-183
7.30298e-187
1.41237e-190
2.29257e-194
2.98101e-198
2.96173e-202
2.10666e-206
9.72547e-211
2.45536e-215
3.5668e-220
6.72022e-223
2.83815e-225
1.72298e-227
5.52056e-224
2.79135e-220
1.27728e-216
5.29818e-213
1.99434e-209
6.81496e-206
2.11328e-202
5.9397e-199
1.51015e-195
3.46318e-192
7.13669e-189
1.31526e-185
2.15529e-182
3.11813e-179
3.94977e-176
4.3359e-173
4.07364e-170
3.2239e-167
2.10354e-164
1.09815e-161
4.42531e-159
1.33549e-156
2.84621e-154
3.5017e-152
2.23301e-150
5.94395e-149
6.51397e-148
9.75945e-148
-1.23965e-143
-8.92663e-141
-2.33228e-138
-2.52516e-136
-9.39837e-135
-9.5001e-134
-1.17263e-133
-8.95728e-136
-4.00922e-138
-1.37994e-140
-4.05582e-143
-1.07373e-145
-2.63992e-148
-6.13718e-151
-1.36091e-153
-2.88272e-156
-5.81389e-159
-1.10842e-161
2.02053e-163
1.76002e-162
1.26424e-161
8.23193e-161
4.86435e-160
2.61135e-159
1.27526e-158
5.67849e-158
2.31044e-157
8.61389e-157
2.95e-156
9.3071e-156
2.713e-155
7.35947e-155
1.87062e-154
4.47893e-154
1.01478e-153
2.17875e-153
4.42524e-153
8.49129e-153
1.54278e-152
2.67203e-152
4.45005e-152
7.17743e-152
1.1259e-151
1.72044e-151
2.55994e-151
3.70259e-151
5.19481e-151
7.07109e-151
9.36302e-151
1.20979e-150
1.52992e-150
1.89945e-150
2.32028e-150
2.79403e-150
3.31508e-150
3.88315e-150
4.50039e-150
5.16217e-150
5.85141e-150
6.55838e-150
7.27321e-150
7.98518e-150
8.68265e-150
9.35361e-150
9.98569e-150
1.05664e-149
1.10761e-149
1.14647e-149
1.1137e-149
8.71239e-150
4.04967e-150
3.09382e-151
2.26472e-153
4.83971e-152
6.04496e-150
6.19074e-149
1.24315e-148
1.61039e-148
1.59787e-148
1.49736e-148
1.42249e-148
1.35049e-148
1.27368e-148
1.19161e-148
1.10547e-148
1.0166e-148
9.26333e-149
8.35931e-149
7.46576e-149
6.59496e-149
5.77159e-149
5.00274e-149
4.28561e-149
3.62146e-149
3.02105e-149
2.48344e-149
2.00771e-149
1.59146e-149
1.23338e-149
9.31668e-150
6.84033e-150
4.87993e-150
3.38897e-150
2.2946e-150
1.5153e-150
9.74642e-151
6.08193e-151
3.65663e-151
2.09995e-151
1.14434e-151
5.90487e-152
2.88899e-152
1.34173e-152
5.9036e-153
2.44774e-153
9.51105e-154
3.44924e-154
1.15826e-154
3.58678e-155
1.02115e-155
2.66596e-156
6.36199e-157
1.38454e-157
2.74143e-158
4.93072e-159
8.04629e-160
1.21513e-160
2.55438e-160
1.88943e-158
1.17462e-156
5.0989e-155
1.52142e-153
1.78119e-152
-8.21792e-151
-3.25961e-148
-9.21552e-146
-2.27967e-143
-4.89782e-141
-8.63711e-139
-1.11901e-136
-8.04717e-135
-9.67076e-137
-6.50219e-140
1.3078e-144
1.35447e-144
1.27121e-144
9.36433e-145
4.12107e-145
3.56649e-146
9.7388e-148
8.67833e-150
3.71289e-152
6.29727e-155
3.87364e-158
1.33551e-161
3.42981e-165
7.82805e-169
1.81848e-172
4.42901e-176
1.0828e-179
2.48534e-183
5.04058e-187
8.56484e-191
1.16047e-194
1.19284e-198
8.70019e-203
4.07299e-207
1.03244e-211
1.03751e-216
2.18751e-220
9.39368e-223
2.52554e-224
1.34646e-220
7.13371e-217
3.39482e-213
1.45526e-209
5.63036e-206
1.96804e-202
6.21532e-199
1.7719e-195
4.55173e-192
1.05072e-188
2.17155e-185
3.99935e-182
6.52612e-179
9.36916e-176
1.17374e-172
1.27027e-169
1.17314e-166
9.10287e-164
5.80839e-161
2.95186e-158
1.14835e-155
3.32647e-153
6.90078e-151
8.23231e-149
4.92191e-147
1.20833e-145
7.21583e-145
9.80314e-145
-1.66589e-140
-1.33577e-137
-3.59476e-135
-3.97056e-133
-1.50524e-131
-1.54066e-130
-1.89987e-130
-1.44716e-132
-6.49451e-135
-2.25259e-137
-6.70414e-140
-1.80583e-142
-4.53929e-145
-1.08343e-147
-2.47401e-150
-5.40177e-153
-1.12167e-155
-2.20113e-158
-2.43327e-161
1.22541e-160
8.33454e-160
5.13156e-159
2.86309e-158
1.45002e-157
6.67905e-157
2.80319e-156
1.07507e-155
3.77903e-155
1.22118e-154
3.63853e-154
1.00262e-153
2.56983e-153
6.17494e-153
1.39931e-152
3.00588e-152
6.13026e-152
1.18515e-151
2.16914e-151
3.76783e-151
6.25399e-151
1.00053e-150
1.55327e-150
2.34892e-150
3.46468e-150
4.98276e-150
6.97602e-150
9.49041e-150
1.25505e-149
1.61795e-149
2.03955e-149
2.52114e-149
3.06516e-149
3.67245e-149
4.34404e-149
5.06898e-149
5.84595e-149
6.67789e-149
7.55764e-149
8.46041e-149
9.37382e-149
1.02859e-148
1.1184e-148
1.20547e-148
1.28845e-148
1.36628e-148
1.43991e-148
1.51497e-148
1.61612e-148
1.62557e-148
1.24777e-148
6.16596e-149
5.8943e-150
4.45693e-152
7.45128e-151
9.03521e-149
7.32385e-148
1.44028e-147
2.01785e-147
1.86835e-147
1.61729e-147
1.50641e-147
1.43223e-147
1.36019e-147
1.28312e-147
1.2014e-147
1.11611e-147
1.02843e-147
9.394e-148
8.50054e-148
7.61545e-148
6.76573e-148
5.95955e-148
5.19367e-148
4.47004e-148
3.80368e-148
3.19462e-148
2.64374e-148
2.14958e-148
1.71272e-148
1.33329e-148
1.0111e-148
7.46515e-149
5.374e-149
3.77644e-149
2.5912e-149
1.73405e-149