/*--------------------------------*- C++ -*----------------------------------*\
| =========                 |                                                 |
| \\      /  F ield         | OpenFOAM: The Open Source CFD Toolbox           |
|  \\    /   O peration     | Version:  2412                                  |
|   \\  /    A nd           | Website:  www.openfoam.com                      |
|    \\/     M anipulation  |                                                 |
\*---------------------------------------------------------------------------*/
FoamFile
{
    version     2.0;
    format      ascii;
    arch        "LSB;label=32;scalar=64";
    class       volScalarField;
    location    "1.7";
    object      p;
}
// * * * * * * * * * * * * * * * * * * * * * * * * * * * * * * * * * * * * * //

dimensions      [1 -1 -2 0 0 0 0];

internalField   nonuniform List<scalar> 
40000
(
0
-0.00102312
-0.00143695
-0.00146562
-0.00120538
-0.000699725
2.94041e-05
0.000969481
0.0021125
0.00345288
0.00498647
0.00671003
0.00862086
0.0107167
0.0129954
0.0154552
0.0180942
0.0209106
0.0239026
0.0270684
0.0304059
0.0339131
0.0375877
0.0414274
0.0454295
0.0495914
0.0539101
0.0583824
0.0630051
0.0677744
0.0726866
0.0777375
0.0829227
0.0882376
0.0936773
0.0992366
0.10491
0.110692
0.116576
0.122557
0.128627
0.13478
0.141009
0.147307
0.153666
0.160079
0.166537
0.173033
0.179559
0.186107
0.192667
0.199233
0.205794
0.212343
0.218872
0.225371
0.231833
0.238249
0.24461
0.25091
0.25714
0.263293
0.269361
0.275336
0.281213
0.286985
0.292644
0.298186
0.303605
0.308895
0.314052
0.319072
0.323949
0.32868
0.333263
0.337694
0.34197
0.34609
0.350051
0.353851
0.35749
0.360966
0.364279
0.367427
0.370411
0.373231
0.375885
0.378375
0.380701
0.382862
0.384859
0.386693
0.388363
0.389871
0.391216
0.392399
0.39342
0.394279
0.394976
0.395512
0.395886
0.396099
0.396149
0.396036
0.39576
0.395321
0.394718
0.393949
0.393015
0.391914
0.390647
0.389212
0.387608
0.385835
0.383893
0.381782
0.379501
0.37705
0.374429
0.371639
0.368681
0.365556
0.362264
0.358808
0.35519
0.351411
0.347475
0.343384
0.339142
0.334752
0.330219
0.325546
0.32074
0.315804
0.310745
0.305568
0.30028
0.294887
0.289397
0.283815
0.278151
0.27241
0.266601
0.260732
0.25481
0.248844
0.242842
0.236812
0.230762
0.224701
0.218636
0.212576
0.20653
0.200504
0.194507
0.188546
0.18263
0.176765
0.170959
0.165218
0.15955
0.15396
0.148455
0.143042
0.137725
0.13251
0.127402
0.122407
0.117529
0.112773
0.108142
0.10364
0.0992717
0.0950399
0.0909479
0.0869988
0.0831954
0.0795401
0.0760355
0.0726834
0.0694861
0.0664451
0.0635622
0.0608388
0.0582763
0.0558759
0.0536387
0.0515657
0.0496577
0.0479156
0.04634
0.0449315
0.0436905
0.0426175
0.0417123
0.0409743
0.0404026
0.0399975
0.0397641
0.0397122
-3.92512
-3.9255
-3.92569
-3.92564
-3.92534
-3.92482
-3.92407
-3.92313
-3.92198
-3.92064
-3.9191
-3.91737
-3.91546
-3.91337
-3.91109
-3.90863
-3.90599
-3.90317
-3.90018
-3.89701
-3.89367
-3.89016
-3.88649
-3.88265
-3.87865
-3.87448
-3.87016
-3.86569
-3.86107
-3.8563
-3.85138
-3.84633
-3.84115
-3.83583
-3.83039
-3.82483
-3.81915
-3.81337
-3.80748
-3.8015
-3.79542
-3.78927
-3.78304
-3.77673
-3.77037
-3.76396
-3.75749
-3.75099
-3.74446
-3.73791
-3.73135
-3.72478
-3.71821
-3.71166
-3.70512
-3.69862
-3.69216
-3.68574
-3.67937
-3.67307
-3.66683
-3.66067
-3.6546
-3.64862
-3.64274
-3.63697
-3.63131
-3.62576
-3.62034
-3.61505
-3.60989
-3.60487
-3.59999
-3.59525
-3.59067
-3.58624
-3.58196
-3.57784
-3.57388
-3.57008
-3.56644
-3.56296
-3.55965
-3.5565
-3.55351
-3.5507
-3.54804
-3.54555
-3.54323
-3.54106
-3.53907
-3.53723
-3.53556
-3.53406
-3.53271
-3.53153
-3.53051
-3.52965
-3.52895
-3.52842
-3.52804
-3.52783
-3.52778
-3.52789
-3.52817
-3.5286
-3.52921
-3.52998
-3.53091
-3.53201
-3.53328
-3.53471
-3.53631
-3.53809
-3.54003
-3.54214
-3.54442
-3.54687
-3.54949
-3.55228
-3.55524
-3.55836
-3.56166
-3.56511
-3.56873
-3.57251
-3.57645
-3.58054
-3.58479
-3.58918
-3.59372
-3.59839
-3.6032
-3.60814
-3.6132
-3.61838
-3.62367
-3.62907
-3.63456
-3.64015
-3.64582
-3.65156
-3.65737
-3.66325
-3.66917
-3.67514
-3.68115
-3.68719
-3.69324
-3.6993
-3.70537
-3.71144
-3.71749
-3.72352
-3.72952
-3.73548
-3.7414
-3.74727
-3.75308
-3.75882
-3.7645
-3.77009
-3.7756
-3.78101
-3.78633
-3.79155
-3.79666
-3.80165
-3.80653
-3.81129
-3.81592
-3.82043
-3.8248
-3.82903
-3.83312
-3.83707
-3.84088
-3.84453
-3.84804
-3.85139
-3.85459
-3.85763
-3.86051
-3.86323
-3.8658
-3.8682
-3.87043
-3.87251
-3.87442
-3.87616
-3.87773
-3.87914
-3.88038
-3.88145
-3.88236
-3.88309
-3.88366
-3.88405
-3.88428
-3.88433
-7.85002
-7.85016
-7.8502
-7.85005
-7.8497
-7.84914
-7.84838
-7.84742
-7.84626
-7.84491
-7.84337
-7.84164
-7.83972
-7.83762
-7.83534
-7.83288
-7.83024
-7.82742
-7.82442
-7.82126
-7.81791
-7.8144
-7.81073
-7.80688
-7.80288
-7.79871
-7.79439
-7.78991
-7.78528
-7.78051
-7.77559
-7.77053
-7.76534
-7.76001
-7.75457
-7.749
-7.74331
-7.73752
-7.73163
-7.72563
-7.71955
-7.71339
-7.70714
-7.70083
-7.69446
-7.68803
-7.68156
-7.67505
-7.6685
-7.66194
-7.65536
-7.64878
-7.6422
-7.63564
-7.62909
-7.62258
-7.6161
-7.60967
-7.60329
-7.59697
-7.59073
-7.58456
-7.57848
-7.57249
-7.5666
-7.56082
-7.55514
-7.54959
-7.54416
-7.53886
-7.5337
-7.52867
-7.52378
-7.51905
-7.51446
-7.51002
-7.50574
-7.50162
-7.49765
-7.49385
-7.49021
-7.48673
-7.48342
-7.48027
-7.47728
-7.47447
-7.47181
-7.46932
-7.467
-7.46484
-7.46284
-7.46101
-7.45934
-7.45783
-7.45649
-7.45531
-7.45428
-7.45343
-7.45273
-7.45219
-7.45182
-7.4516
-7.45155
-7.45166
-7.45194
-7.45238
-7.45298
-7.45374
-7.45468
-7.45577
-7.45704
-7.45847
-7.46008
-7.46185
-7.46379
-7.4659
-7.46818
-7.47063
-7.47325
-7.47604
-7.479
-7.48213
-7.48542
-7.48888
-7.4925
-7.49629
-7.50023
-7.50433
-7.50858
-7.51297
-7.51752
-7.5222
-7.52702
-7.53196
-7.53703
-7.54222
-7.54752
-7.55293
-7.55844
-7.56403
-7.56971
-7.57547
-7.58129
-7.58718
-7.59312
-7.5991
-7.60512
-7.61116
-7.61723
-7.62331
-7.62939
-7.63546
-7.64153
-7.64757
-7.65358
-7.65955
-7.66548
-7.67136
-7.67718
-7.68294
-7.68862
-7.69422
-7.69973
-7.70516
-7.71048
-7.71571
-7.72082
-7.72583
-7.73071
-7.73548
-7.74011
-7.74462
-7.74899
-7.75323
-7.75733
-7.76128
-7.76509
-7.76875
-7.77225
-7.77561
-7.77881
-7.78185
-7.78474
-7.78746
-7.79003
-7.79243
-7.79467
-7.79674
-7.79865
-7.80039
-7.80197
-7.80338
-7.80462
-7.80569
-7.80659
-7.80733
-7.80789
-7.80829
-7.8085
-7.80856
-11.7749
-11.775
-11.7749
-11.7747
-11.7743
-11.7737
-11.7729
-11.7719
-11.7707
-11.7694
-11.7678
-11.7661
-11.7642
-11.7621
-11.7598
-11.7573
-11.7547
-11.7518
-11.7488
-11.7457
-11.7423
-11.7388
-11.7351
-11.7313
-11.7273
-11.7231
-11.7188
-11.7143
-11.7096
-11.7049
-11.6999
-11.6949
-11.6897
-11.6843
-11.6789
-11.6733
-11.6676
-11.6618
-11.6559
-11.6499
-11.6438
-11.6376
-11.6313
-11.625
-11.6186
-11.6122
-11.6057
-11.5991
-11.5926
-11.586
-11.5794
-11.5728
-11.5662
-11.5596
-11.553
-11.5465
-11.54
-11.5335
-11.5271
-11.5208
-11.5145
-11.5084
-11.5023
-11.4963
-11.4903
-11.4845
-11.4789
-11.4733
-11.4679
-11.4625
-11.4574
-11.4523
-11.4474
-11.4427
-11.4381
-11.4336
-11.4294
-11.4252
-11.4213
-11.4175
-11.4138
-11.4103
-11.407
-11.4039
-11.4009
-11.3981
-11.3954
-11.3929
-11.3906
-11.3884
-11.3864
-11.3846
-11.3829
-11.3814
-11.3801
-11.3789
-11.3779
-11.377
-11.3763
-11.3758
-11.3754
-11.3752
-11.3752
-11.3753
-11.3755
-11.376
-11.3766
-11.3773
-11.3783
-11.3794
-11.3806
-11.3821
-11.3837
-11.3854
-11.3874
-11.3895
-11.3918
-11.3942
-11.3968
-11.3996
-11.4026
-11.4057
-11.409
-11.4125
-11.4161
-11.4199
-11.4239
-11.428
-11.4322
-11.4366
-11.4412
-11.4459
-11.4507
-11.4557
-11.4607
-11.466
-11.4713
-11.4767
-11.4822
-11.4878
-11.4935
-11.4993
-11.5051
-11.5111
-11.517
-11.523
-11.5291
-11.5351
-11.5412
-11.5473
-11.5534
-11.5595
-11.5656
-11.5716
-11.5777
-11.5837
-11.5896
-11.5955
-11.6013
-11.6071
-11.6128
-11.6184
-11.624
-11.6294
-11.6347
-11.64
-11.6451
-11.6501
-11.655
-11.6598
-11.6644
-11.6689
-11.6733
-11.6776
-11.6817
-11.6856
-11.6895
-11.6931
-11.6966
-11.7
-11.7032
-11.7062
-11.7091
-11.7119
-11.7144
-11.7168
-11.7191
-11.7211
-11.7231
-11.7248
-11.7264
-11.7278
-11.729
-11.7301
-11.731
-11.7317
-11.7323
-11.7327
-11.7329
-11.733
-15.6999
-15.6999
-15.6997
-15.6995
-15.699
-15.6984
-15.6976
-15.6966
-15.6954
-15.694
-15.6925
-15.6907
-15.6888
-15.6867
-15.6844
-15.6819
-15.6793
-15.6765
-15.6734
-15.6703
-15.6669
-15.6634
-15.6597
-15.6558
-15.6518
-15.6476
-15.6433
-15.6388
-15.6342
-15.6294
-15.6244
-15.6193
-15.6141
-15.6088
-15.6033
-15.5977
-15.592
-15.5861
-15.5802
-15.5742
-15.5681
-15.5618
-15.5556
-15.5492
-15.5428
-15.5363
-15.5298
-15.5232
-15.5166
-15.51
-15.5034
-15.4968
-15.4901
-15.4835
-15.4769
-15.4704
-15.4638
-15.4574
-15.4509
-15.4446
-15.4383
-15.4321
-15.4259
-15.4199
-15.414
-15.4082
-15.4025
-15.3969
-15.3914
-15.3861
-15.3809
-15.3758
-15.3709
-15.3662
-15.3616
-15.3571
-15.3528
-15.3487
-15.3447
-15.3409
-15.3373
-15.3338
-15.3305
-15.3273
-15.3243
-15.3215
-15.3189
-15.3164
-15.314
-15.3119
-15.3099
-15.3081
-15.3064
-15.3049
-15.3035
-15.3024
-15.3013
-15.3005
-15.2998
-15.2993
-15.2989
-15.2987
-15.2986
-15.2987
-15.299
-15.2994
-15.3
-15.3008
-15.3017
-15.3028
-15.3041
-15.3055
-15.3071
-15.3089
-15.3108
-15.3129
-15.3152
-15.3176
-15.3203
-15.3231
-15.326
-15.3292
-15.3325
-15.3359
-15.3396
-15.3434
-15.3473
-15.3514
-15.3557
-15.3601
-15.3647
-15.3694
-15.3743
-15.3792
-15.3843
-15.3896
-15.3949
-15.4004
-15.4059
-15.4115
-15.4173
-15.4231
-15.4289
-15.4349
-15.4409
-15.4469
-15.453
-15.4591
-15.4652
-15.4713
-15.4774
-15.4835
-15.4897
-15.4957
-15.5018
-15.5078
-15.5138
-15.5197
-15.5256
-15.5314
-15.5371
-15.5427
-15.5483
-15.5537
-15.5591
-15.5643
-15.5695
-15.5745
-15.5794
-15.5842
-15.5889
-15.5934
-15.5978
-15.6021
-15.6062
-15.6101
-15.614
-15.6176
-15.6212
-15.6245
-15.6277
-15.6308
-15.6337
-15.6364
-15.639
-15.6414
-15.6436
-15.6457
-15.6476
-15.6494
-15.6509
-15.6524
-15.6536
-15.6547
-15.6556
-15.6563
-15.6569
-15.6573
-15.6575
-15.6576
-19.6249
-19.6249
-19.6248
-19.6244
-19.624
-19.6233
-19.6225
-19.6215
-19.6203
-19.6189
-19.6173
-19.6156
-19.6136
-19.6115
-19.6092
-19.6067
-19.6041
-19.6012
-19.5982
-19.595
-19.5917
-19.5881
-19.5844
-19.5806
-19.5765
-19.5723
-19.568
-19.5635
-19.5588
-19.554
-19.549
-19.5439
-19.5387
-19.5333
-19.5278
-19.5222
-19.5165
-19.5106
-19.5046
-19.4986
-19.4924
-19.4862
-19.4799
-19.4735
-19.467
-19.4605
-19.454
-19.4474
-19.4407
-19.4341
-19.4274
-19.4208
-19.4141
-19.4074
-19.4008
-19.3942
-19.3876
-19.3811
-19.3747
-19.3683
-19.3619
-19.3557
-19.3495
-19.3435
-19.3375
-19.3317
-19.3259
-19.3203
-19.3148
-19.3095
-19.3043
-19.2992
-19.2943
-19.2895
-19.2849
-19.2804
-19.2761
-19.272
-19.268
-19.2642
-19.2605
-19.2571
-19.2537
-19.2506
-19.2476
-19.2448
-19.2421
-19.2396
-19.2373
-19.2352
-19.2332
-19.2313
-19.2297
-19.2282
-19.2268
-19.2257
-19.2246
-19.2238
-19.2231
-19.2225
-19.2222
-19.222
-19.2219
-19.222
-19.2223
-19.2227
-19.2233
-19.2241
-19.225
-19.2261
-19.2273
-19.2287
-19.2303
-19.2321
-19.234
-19.2362
-19.2384
-19.2409
-19.2435
-19.2463
-19.2493
-19.2524
-19.2557
-19.2592
-19.2628
-19.2667
-19.2706
-19.2748
-19.279
-19.2835
-19.2881
-19.2928
-19.2977
-19.3027
-19.3078
-19.3131
-19.3184
-19.3239
-19.3295
-19.3352
-19.3409
-19.3468
-19.3527
-19.3586
-19.3647
-19.3707
-19.3768
-19.383
-19.3891
-19.3953
-19.4014
-19.4076
-19.4138
-19.4199
-19.426
-19.432
-19.438
-19.444
-19.4499
-19.4557
-19.4614
-19.4671
-19.4727
-19.4782
-19.4836
-19.4888
-19.494
-19.499
-19.504
-19.5088
-19.5135
-19.518
-19.5224
-19.5267
-19.5308
-19.5348
-19.5386
-19.5423
-19.5458
-19.5492
-19.5524
-19.5555
-19.5584
-19.5611
-19.5637
-19.5661
-19.5684
-19.5704
-19.5724
-19.5741
-19.5757
-19.5771
-19.5783
-19.5794
-19.5803
-19.5811
-19.5816
-19.582
-19.5822
-19.5823
-23.5501
-23.5501
-23.5499
-23.5496
-23.5491
-23.5484
-23.5476
-23.5465
-23.5453
-23.5439
-23.5423
-23.5406
-23.5386
-23.5365
-23.5342
-23.5317
-23.529
-23.5262
-23.5232
-23.52
-23.5166
-23.5131
-23.5093
-23.5055
-23.5014
-23.4972
-23.4928
-23.4883
-23.4836
-23.4788
-23.4738
-23.4687
-23.4634
-23.458
-23.4525
-23.4468
-23.4411
-23.4352
-23.4292
-23.4231
-23.4169
-23.4106
-23.4043
-23.3978
-23.3913
-23.3848
-23.3782
-23.3715
-23.3649
-23.3582
-23.3515
-23.3447
-23.338
-23.3313
-23.3247
-23.318
-23.3114
-23.3048
-23.2983
-23.2919
-23.2855
-23.2792
-23.273
-23.2669
-23.2609
-23.2551
-23.2493
-23.2437
-23.2381
-23.2328
-23.2275
-23.2224
-23.2175
-23.2127
-23.2081
-23.2036
-23.1993
-23.1951
-23.1911
-23.1873
-23.1837
-23.1802
-23.1768
-23.1737
-23.1707
-23.1679
-23.1652
-23.1628
-23.1604
-23.1583
-23.1563
-23.1545
-23.1528
-23.1513
-23.15
-23.1488
-23.1478
-23.1469
-23.1462
-23.1457
-23.1453
-23.1451
-23.145
-23.1451
-23.1454
-23.1458
-23.1464
-23.1472
-23.1481
-23.1492
-23.1504
-23.1518
-23.1534
-23.1552
-23.1571
-23.1592
-23.1615
-23.164
-23.1666
-23.1694
-23.1724
-23.1755
-23.1788
-23.1823
-23.186
-23.1898
-23.1938
-23.1979
-23.2022
-23.2067
-23.2113
-23.2161
-23.221
-23.226
-23.2312
-23.2365
-23.2419
-23.2474
-23.253
-23.2587
-23.2645
-23.2704
-23.2763
-23.2823
-23.2884
-23.2945
-23.3007
-23.3069
-23.3131
-23.3193
-23.3255
-23.3317
-23.3379
-23.344
-23.3502
-23.3563
-23.3623
-23.3683
-23.3742
-23.3801
-23.3859
-23.3916
-23.3972
-23.4027
-23.4081
-23.4134
-23.4186
-23.4237
-23.4287
-23.4335
-23.4382
-23.4427
-23.4472
-23.4515
-23.4556
-23.4596
-23.4634
-23.4671
-23.4707
-23.4741
-23.4773
-23.4804
-23.4833
-23.486
-23.4886
-23.491
-23.4933
-23.4953
-23.4973
-23.499
-23.5006
-23.502
-23.5033
-23.5043
-23.5052
-23.506
-23.5065
-23.5069
-23.5072
-23.5072
-27.4755
-27.4754
-27.4753
-27.4749
-27.4744
-27.4737
-27.4728
-27.4718
-27.4705
-27.4691
-27.4675
-27.4658
-27.4638
-27.4617
-27.4594
-27.4569
-27.4542
-27.4513
-27.4483
-27.4451
-27.4417
-27.4381
-27.4344
-27.4305
-27.4265
-27.4222
-27.4178
-27.4133
-27.4086
-27.4037
-27.3987
-27.3936
-27.3883
-27.3828
-27.3773
-27.3716
-27.3658
-27.3598
-27.3538
-27.3477
-27.3414
-27.3351
-27.3287
-27.3222
-27.3157
-27.3091
-27.3024
-27.2957
-27.289
-27.2823
-27.2755
-27.2687
-27.262
-27.2552
-27.2485
-27.2418
-27.2351
-27.2285
-27.2219
-27.2154
-27.209
-27.2027
-27.1964
-27.1903
-27.1843
-27.1783
-27.1725
-27.1669
-27.1613
-27.1559
-27.1506
-27.1455
-27.1406
-27.1357
-27.1311
-27.1266
-27.1223
-27.1181
-27.1141
-27.1103
-27.1066
-27.1031
-27.0998
-27.0966
-27.0936
-27.0908
-27.0882
-27.0857
-27.0834
-27.0812
-27.0792
-27.0774
-27.0758
-27.0743
-27.0729
-27.0718
-27.0707
-27.0699
-27.0692
-27.0686
-27.0683
-27.068
-27.068
-27.0681
-27.0683
-27.0688
-27.0693
-27.0701
-27.071
-27.0721
-27.0733
-27.0748
-27.0763
-27.0781
-27.08
-27.0821
-27.0844
-27.0869
-27.0895
-27.0923
-27.0953
-27.0984
-27.1017
-27.1052
-27.1089
-27.1128
-27.1168
-27.1209
-27.1253
-27.1298
-27.1344
-27.1392
-27.1441
-27.1492
-27.1544
-27.1597
-27.1652
-27.1707
-27.1764
-27.1822
-27.188
-27.1939
-27.1999
-27.206
-27.2121
-27.2183
-27.2245
-27.2307
-27.237
-27.2433
-27.2495
-27.2558
-27.262
-27.2682
-27.2744
-27.2806
-27.2867
-27.2927
-27.2987
-27.3046
-27.3104
-27.3161
-27.3218
-27.3273
-27.3328
-27.3381
-27.3434
-27.3485
-27.3534
-27.3583
-27.363
-27.3676
-27.3721
-27.3764
-27.3805
-27.3845
-27.3884
-27.3921
-27.3957
-27.3991
-27.4023
-27.4054
-27.4083
-27.4111
-27.4136
-27.4161
-27.4183
-27.4204
-27.4223
-27.4241
-27.4257
-27.4271
-27.4283
-27.4294
-27.4303
-27.4311
-27.4316
-27.432
-27.4323
-27.4323
-31.401
-31.4009
-31.4007
-31.4004
-31.3998
-31.3991
-31.3983
-31.3972
-31.396
-31.3945
-31.3929
-31.3912
-31.3892
-31.387
-31.3847
-31.3822
-31.3795
-31.3766
-31.3736
-31.3704
-31.367
-31.3634
-31.3597
-31.3557
-31.3517
-31.3474
-31.343
-31.3384
-31.3337
-31.3288
-31.3238
-31.3186
-31.3133
-31.3078
-31.3022
-31.2965
-31.2906
-31.2846
-31.2786
-31.2724
-31.2661
-31.2597
-31.2533
-31.2467
-31.2401
-31.2335
-31.2267
-31.22
-31.2132
-31.2064
-31.1995
-31.1927
-31.1859
-31.179
-31.1722
-31.1655
-31.1588
-31.1521
-31.1455
-31.1389
-31.1324
-31.126
-31.1197
-31.1135
-31.1075
-31.1015
-31.0956
-31.0899
-31.0843
-31.0789
-31.0736
-31.0684
-31.0634
-31.0586
-31.0539
-31.0494
-31.0451
-31.0409
-31.0369
-31.033
-31.0294
-31.0259
-31.0226
-31.0194
-31.0164
-31.0136
-31.011
-31.0085
-31.0062
-31.004
-31.002
-31.0002
-30.9986
-30.9971
-30.9957
-30.9946
-30.9935
-30.9927
-30.992
-30.9915
-30.9911
-30.9909
-30.9908
-30.9909
-30.9911
-30.9916
-30.9921
-30.9929
-30.9938
-30.9949
-30.9961
-30.9975
-30.9991
-31.0008
-31.0028
-31.0049
-31.0071
-31.0096
-31.0122
-31.015
-31.018
-31.0212
-31.0245
-31.028
-31.0317
-31.0356
-31.0396
-31.0438
-31.0481
-31.0527
-31.0573
-31.0622
-31.0671
-31.0723
-31.0775
-31.0829
-31.0884
-31.094
-31.0997
-31.1055
-31.1114
-31.1174
-31.1235
-31.1296
-31.1358
-31.142
-31.1483
-31.1546
-31.1609
-31.1672
-31.1736
-31.1799
-31.1862
-31.1925
-31.1987
-31.2049
-31.2111
-31.2172
-31.2232
-31.2291
-31.235
-31.2408
-31.2465
-31.2521
-31.2576
-31.263
-31.2682
-31.2734
-31.2784
-31.2833
-31.288
-31.2926
-31.2971
-31.3014
-31.3056
-31.3096
-31.3135
-31.3173
-31.3208
-31.3242
-31.3275
-31.3306
-31.3335
-31.3363
-31.3389
-31.3413
-31.3436
-31.3456
-31.3476
-31.3493
-31.3509
-31.3523
-31.3536
-31.3547
-31.3556
-31.3563
-31.3569
-31.3573
-31.3575
-31.3576
-35.3267
-35.3266
-35.3264
-35.326
-35.3255
-35.3248
-35.3239
-35.3228
-35.3216
-35.3201
-35.3185
-35.3167
-35.3147
-35.3126
-35.3102
-35.3077
-35.305
-35.3021
-35.2991
-35.2958
-35.2924
-35.2888
-35.2851
-35.2811
-35.277
-35.2728
-35.2683
-35.2637
-35.259
-35.254
-35.249
-35.2437
-35.2384
-35.2329
-35.2272
-35.2215
-35.2156
-35.2095
-35.2034
-35.1972
-35.1908
-35.1844
-35.1779
-35.1713
-35.1646
-35.1579
-35.1511
-35.1442
-35.1374
-35.1305
-35.1236
-35.1167
-35.1098
-35.1029
-35.096
-35.0892
-35.0824
-35.0756
-35.0689
-35.0623
-35.0558
-35.0493
-35.0429
-35.0367
-35.0305
-35.0245
-35.0186
-35.0129
-35.0072
-35.0017
-34.9964
-34.9912
-34.9862
-34.9813
-34.9766
-34.9721
-34.9677
-34.9635
-34.9595
-34.9557
-34.952
-34.9485
-34.9452
-34.942
-34.939
-34.9362
-34.9336
-34.9311
-34.9288
-34.9266
-34.9247
-34.9229
-34.9212
-34.9197
-34.9184
-34.9172
-34.9162
-34.9153
-34.9146
-34.9141
-34.9137
-34.9135
-34.9134
-34.9135
-34.9138
-34.9142
-34.9148
-34.9155
-34.9164
-34.9174
-34.9187
-34.9201
-34.9217
-34.9234
-34.9253
-34.9274
-34.9297
-34.9321
-34.9348
-34.9376
-34.9406
-34.9437
-34.9471
-34.9506
-34.9543
-34.9582
-34.9622
-34.9665
-34.9709
-34.9754
-34.9801
-34.985
-34.99
-34.9952
-35.0005
-35.0059
-35.0115
-35.0171
-35.0229
-35.0288
-35.0348
-35.0408
-35.047
-35.0532
-35.0594
-35.0657
-35.0721
-35.0784
-35.0848
-35.0912
-35.0976
-35.104
-35.1104
-35.1167
-35.123
-35.1293
-35.1355
-35.1417
-35.1478
-35.1538
-35.1597
-35.1655
-35.1713
-35.1769
-35.1825
-35.1879
-35.1932
-35.1984
-35.2034
-35.2083
-35.2131
-35.2178
-35.2223
-35.2266
-35.2308
-35.2349
-35.2388
-35.2425
-35.2461
-35.2496
-35.2528
-35.2559
-35.2589
-35.2616
-35.2642
-35.2667
-35.2689
-35.271
-35.273
-35.2747
-35.2763
-35.2778
-35.279
-35.2801
-35.281
-35.2818
-35.2823
-35.2827
-35.2829
-35.283
-39.2525
-39.2524
-39.2522
-39.2519
-39.2513
-39.2506
-39.2497
-39.2486
-39.2473
-39.2459
-39.2443
-39.2425
-39.2405
-39.2383
-39.236
-39.2334
-39.2307
-39.2278
-39.2247
-39.2215
-39.2181
-39.2144
-39.2107
-39.2067
-39.2026
-39.1983
-39.1938
-39.1892
-39.1844
-39.1794
-39.1743
-39.1691
-39.1636
-39.1581
-39.1524
-39.1466
-39.1406
-39.1345
-39.1283
-39.122
-39.1156
-39.1091
-39.1025
-39.0959
-39.0891
-39.0823
-39.0755
-39.0686
-39.0616
-39.0546
-39.0476
-39.0407
-39.0337
-39.0267
-39.0197
-39.0128
-39.0059
-38.9991
-38.9923
-38.9856
-38.979
-38.9725
-38.966
-38.9597
-38.9535
-38.9474
-38.9415
-38.9356
-38.93
-38.9244
-38.9191
-38.9138
-38.9088
-38.9039
-38.8991
-38.8946
-38.8902
-38.886
-38.882
-38.8781
-38.8744
-38.8709
-38.8676
-38.8644
-38.8614
-38.8586
-38.856
-38.8535
-38.8512
-38.8491
-38.8471
-38.8453
-38.8437
-38.8422
-38.8409
-38.8397
-38.8387
-38.8378
-38.8371
-38.8366
-38.8362
-38.836
-38.8359
-38.836
-38.8362
-38.8366
-38.8372
-38.8379
-38.8388
-38.8399
-38.8411
-38.8425
-38.8441
-38.8458
-38.8477
-38.8498
-38.8521
-38.8545
-38.8571
-38.86
-38.8629
-38.8661
-38.8695
-38.873
-38.8768
-38.8807
-38.8847
-38.889
-38.8934
-38.898
-38.9028
-38.9077
-38.9128
-38.918
-38.9233
-38.9288
-38.9344
-38.9402
-38.946
-38.952
-38.958
-38.9642
-38.9704
-38.9767
-38.983
-38.9894
-38.9958
-39.0022
-39.0087
-39.0152
-39.0217
-39.0281
-39.0346
-39.041
-39.0474
-39.0537
-39.06
-39.0663
-39.0724
-39.0785
-39.0845
-39.0904
-39.0962
-39.1019
-39.1075
-39.1129
-39.1183
-39.1235
-39.1286
-39.1336
-39.1384
-39.1431
-39.1476
-39.152
-39.1562
-39.1603
-39.1642
-39.168
-39.1716
-39.175
-39.1783
-39.1814
-39.1844
-39.1872
-39.1898
-39.1922
-39.1945
-39.1966
-39.1986
-39.2003
-39.2019
-39.2034
-39.2046
-39.2057
-39.2066
-39.2074
-39.2079
-39.2083
-39.2086
-39.2086
-43.1785
-43.1785
-43.1782
-43.1779
-43.1773
-43.1766
-43.1756
-43.1746
-43.1733
-43.1718
-43.1702
-43.1684
-43.1664
-43.1642
-43.1618
-43.1593
-43.1566
-43.1537
-43.1506
-43.1473
-43.1439
-43.1402
-43.1364
-43.1324
-43.1283
-43.124
-43.1195
-43.1148
-43.11
-43.105
-43.0998
-43.0945
-43.0891
-43.0835
-43.0777
-43.0718
-43.0658
-43.0597
-43.0534
-43.047
-43.0406
-43.034
-43.0273
-43.0206
-43.0137
-43.0068
-42.9999
-42.9929
-42.9859
-42.9788
-42.9717
-42.9646
-42.9575
-42.9505
-42.9434
-42.9364
-42.9294
-42.9225
-42.9156
-42.9089
-42.9022
-42.8955
-42.889
-42.8826
-42.8764
-42.8702
-42.8642
-42.8583
-42.8526
-42.847
-42.8416
-42.8363
-42.8312
-42.8263
-42.8215
-42.8169
-42.8125
-42.8083
-42.8042
-42.8004
-42.7967
-42.7932
-42.7898
-42.7867
-42.7837
-42.7809
-42.7783
-42.7758
-42.7735
-42.7714
-42.7694
-42.7676
-42.766
-42.7645
-42.7632
-42.762
-42.761
-42.7602
-42.7595
-42.7589
-42.7586
-42.7583
-42.7582
-42.7583
-42.7586
-42.759
-42.7595
-42.7602
-42.7611
-42.7621
-42.7633
-42.7647
-42.7663
-42.768
-42.7699
-42.772
-42.7743
-42.7767
-42.7793
-42.7821
-42.7851
-42.7883
-42.7917
-42.7953
-42.799
-42.8029
-42.8071
-42.8113
-42.8158
-42.8204
-42.8252
-42.8302
-42.8353
-42.8406
-42.846
-42.8516
-42.8573
-42.8631
-42.869
-42.8751
-42.8812
-42.8874
-42.8937
-42.9001
-42.9065
-42.913
-42.9195
-42.926
-42.9326
-42.9392
-42.9457
-42.9523
-42.9588
-42.9654
-42.9718
-42.9782
-42.9846
-42.9909
-42.9971
-43.0033
-43.0094
-43.0153
-43.0212
-43.0269
-43.0326
-43.0381
-43.0435
-43.0488
-43.0539
-43.0589
-43.0638
-43.0685
-43.0731
-43.0775
-43.0818
-43.0859
-43.0898
-43.0936
-43.0972
-43.1007
-43.104
-43.1071
-43.1101
-43.1129
-43.1155
-43.118
-43.1202
-43.1224
-43.1243
-43.1261
-43.1277
-43.1291
-43.1304
-43.1315
-43.1324
-43.1331
-43.1337
-43.1341
-43.1343
-43.1344
-47.1047
-47.1046
-47.1044
-47.104
-47.1035
-47.1027
-47.1018
-47.1007
-47.0994
-47.098
-47.0963
-47.0945
-47.0925
-47.0903
-47.0879
-47.0854
-47.0826
-47.0797
-47.0766
-47.0733
-47.0698
-47.0662
-47.0624
-47.0584
-47.0542
-47.0498
-47.0453
-47.0406
-47.0357
-47.0307
-47.0255
-47.0201
-47.0146
-47.009
-47.0032
-46.9972
-46.9911
-46.9849
-46.9786
-46.9721
-46.9656
-46.9589
-46.9522
-46.9453
-46.9384
-46.9314
-46.9244
-46.9173
-46.9101
-46.903
-46.8958
-46.8886
-46.8814
-46.8742
-46.8671
-46.86
-46.8529
-46.8459
-46.8389
-46.832
-46.8252
-46.8185
-46.8119
-46.8054
-46.7991
-46.7929
-46.7868
-46.7808
-46.775
-46.7694
-46.7639
-46.7586
-46.7534
-46.7485
-46.7437
-46.7391
-46.7346
-46.7304
-46.7263
-46.7225
-46.7188
-46.7152
-46.7119
-46.7088
-46.7058
-46.703
-46.7004
-46.6979
-46.6956
-46.6935
-46.6916
-46.6898
-46.6881
-46.6867
-46.6854
-46.6842
-46.6832
-46.6824
-46.6817
-46.6811
-46.6807
-46.6805
-46.6804
-46.6805
-46.6807
-46.6811
-46.6816
-46.6823
-46.6832
-46.6842
-46.6854
-46.6868
-46.6883
-46.69
-46.6919
-46.694
-46.6963
-46.6987
-46.7013
-46.7042
-46.7072
-46.7104
-46.7137
-46.7173
-46.7211
-46.725
-46.7292
-46.7335
-46.738
-46.7427
-46.7476
-46.7526
-46.7578
-46.7631
-46.7686
-46.7743
-46.78
-46.7859
-46.7919
-46.7981
-46.8043
-46.8106
-46.817
-46.8235
-46.83
-46.8366
-46.8432
-46.8498
-46.8565
-46.8632
-46.8698
-46.8765
-46.8831
-46.8897
-46.8963
-46.9028
-46.9093
-46.9156
-46.922
-46.9282
-46.9343
-46.9404
-46.9463
-46.9521
-46.9578
-46.9634
-46.9689
-46.9742
-46.9794
-46.9844
-46.9893
-46.9941
-46.9987
-47.0032
-47.0075
-47.0116
-47.0156
-47.0194
-47.023
-47.0265
-47.0298
-47.033
-47.0359
-47.0388
-47.0414
-47.0439
-47.0462
-47.0483
-47.0502
-47.052
-47.0536
-47.0551
-47.0563
-47.0574
-47.0583
-47.0591
-47.0596
-47.06
-47.0603
-47.0603
-51.031
-51.031
-51.0308
-51.0304
-51.0298
-51.0291
-51.0281
-51.027
-51.0257
-51.0243
-51.0226
-51.0208
-51.0188
-51.0166
-51.0142
-51.0116
-51.0089
-51.0059
-51.0028
-50.9995
-50.996
-50.9923
-50.9885
-50.9844
-50.9802
-50.9758
-50.9713
-50.9665
-50.9616
-50.9565
-50.9513
-50.9459
-50.9403
-50.9346
-50.9287
-50.9227
-50.9166
-50.9103
-50.9039
-50.8973
-50.8907
-50.8839
-50.8771
-50.8702
-50.8631
-50.856
-50.8489
-50.8417
-50.8344
-50.8272
-50.8199
-50.8126
-50.8053
-50.798
-50.7907
-50.7835
-50.7763
-50.7691
-50.7621
-50.7551
-50.7482
-50.7414
-50.7347
-50.7281
-50.7217
-50.7154
-50.7092
-50.7032
-50.6973
-50.6916
-50.6861
-50.6807
-50.6755
-50.6705
-50.6657
-50.661
-50.6566
-50.6523
-50.6482
-50.6444
-50.6407
-50.6371
-50.6338
-50.6307
-50.6277
-50.6249
-50.6223
-50.6198
-50.6176
-50.6155
-50.6135
-50.6118
-50.6101
-50.6087
-50.6074
-50.6062
-50.6052
-50.6044
-50.6037
-50.6032
-50.6028
-50.6025
-50.6024
-50.6025
-50.6027
-50.6031
-50.6036
-50.6043
-50.6051
-50.6061
-50.6073
-50.6087
-50.6102
-50.6119
-50.6138
-50.6158
-50.6181
-50.6205
-50.6232
-50.626
-50.629
-50.6322
-50.6356
-50.6392
-50.643
-50.647
-50.6511
-50.6555
-50.6601
-50.6648
-50.6697
-50.6748
-50.6801
-50.6855
-50.691
-50.6968
-50.7026
-50.7086
-50.7147
-50.721
-50.7273
-50.7337
-50.7402
-50.7468
-50.7534
-50.7601
-50.7668
-50.7736
-50.7804
-50.7871
-50.7939
-50.8007
-50.8074
-50.8141
-50.8208
-50.8274
-50.834
-50.8404
-50.8468
-50.8532
-50.8594
-50.8655
-50.8715
-50.8774
-50.8832
-50.8888
-50.8944
-50.8997
-50.905
-50.9101
-50.915
-50.9198
-50.9245
-50.929
-50.9333
-50.9375
-50.9415
-50.9453
-50.949
-50.9525
-50.9558
-50.959
-50.962
-50.9648
-50.9675
-50.9699
-50.9722
-50.9744
-50.9763
-50.9781
-50.9797
-50.9812
-50.9824
-50.9835
-50.9844
-50.9852
-50.9858
-50.9862
-50.9864
-50.9865
-54.9576
-54.9575
-54.9573
-54.9569
-54.9563
-54.9556
-54.9546
-54.9535
-54.9522
-54.9508
-54.9491
-54.9473
-54.9452
-54.943
-54.9406
-54.938
-54.9353
-54.9323
-54.9292
-54.9259
-54.9223
-54.9187
-54.9148
-54.9107
-54.9065
-54.902
-54.8974
-54.8927
-54.8877
-54.8826
-54.8773
-54.8718
-54.8662
-54.8604
-54.8545
-54.8484
-54.8422
-54.8358
-54.8293
-54.8227
-54.8159
-54.8091
-54.8021
-54.7951
-54.7879
-54.7807
-54.7735
-54.7661
-54.7588
-54.7514
-54.744
-54.7365
-54.7291
-54.7217
-54.7143
-54.7069
-54.6996
-54.6924
-54.6852
-54.6781
-54.6711
-54.6642
-54.6574
-54.6507
-54.6441
-54.6377
-54.6315
-54.6254
-54.6194
-54.6137
-54.6081
-54.6026
-54.5974
-54.5924
-54.5875
-54.5828
-54.5784
-54.5741
-54.57
-54.5661
-54.5624
-54.5589
-54.5555
-54.5524
-54.5494
-54.5466
-54.544
-54.5416
-54.5394
-54.5373
-54.5353
-54.5336
-54.532
-54.5305
-54.5292
-54.5281
-54.5271
-54.5263
-54.5256
-54.525
-54.5247
-54.5244
-54.5243
-54.5244
-54.5246
-54.5249
-54.5254
-54.5261
-54.5269
-54.5279
-54.5291
-54.5304
-54.5319
-54.5336
-54.5354
-54.5375
-54.5397
-54.5422
-54.5448
-54.5476
-54.5506
-54.5538
-54.5572
-54.5609
-54.5647
-54.5687
-54.5729
-54.5773
-54.5819
-54.5867
-54.5917
-54.5969
-54.6022
-54.6077
-54.6133
-54.6191
-54.6251
-54.6312
-54.6374
-54.6437
-54.6502
-54.6567
-54.6633
-54.67
-54.6768
-54.6836
-54.6904
-54.6973
-54.7042
-54.7111
-54.718
-54.7249
-54.7318
-54.7386
-54.7454
-54.7521
-54.7587
-54.7653
-54.7718
-54.7782
-54.7845
-54.7908
-54.7969
-54.8028
-54.8087
-54.8144
-54.82
-54.8254
-54.8307
-54.8359
-54.8409
-54.8457
-54.8504
-54.855
-54.8593
-54.8635
-54.8676
-54.8714
-54.8751
-54.8786
-54.882
-54.8852
-54.8882
-54.891
-54.8937
-54.8962
-54.8985
-54.9006
-54.9026
-54.9044
-54.906
-54.9075
-54.9087
-54.9098
-54.9107
-54.9115
-54.9121
-54.9125
-54.9127
-54.9128
-58.8843
-58.8842
-58.884
-58.8836
-58.883
-58.8823
-58.8813
-58.8802
-58.8789
-58.8774
-58.8758
-58.8739
-58.8719
-58.8697
-58.8673
-58.8647
-58.8619
-58.8589
-58.8558
-58.8524
-58.8489
-58.8452
-58.8413
-58.8372
-58.8329
-58.8284
-58.8238
-58.819
-58.814
-58.8088
-58.8034
-58.7979
-58.7922
-58.7864
-58.7803
-58.7742
-58.7679
-58.7614
-58.7548
-58.7481
-58.7413
-58.7343
-58.7272
-58.7201
-58.7128
-58.7055
-58.6981
-58.6907
-58.6832
-58.6756
-58.6681
-58.6605
-58.6529
-58.6454
-58.6378
-58.6303
-58.6229
-58.6155
-58.6082
-58.601
-58.5938
-58.5868
-58.5799
-58.5731
-58.5665
-58.56
-58.5536
-58.5474
-58.5414
-58.5356
-58.5299
-58.5244
-58.5191
-58.514
-58.5091
-58.5044
-58.4999
-58.4956
-58.4915
-58.4876
-58.4839
-58.4804
-58.477
-58.4739
-58.471
-58.4682
-58.4656
-58.4632
-58.461
-58.4589
-58.457
-58.4553
-58.4537
-58.4522
-58.451
-58.4498
-58.4489
-58.448
-58.4473
-58.4468
-58.4464
-58.4461
-58.446
-58.4461
-58.4462
-58.4466
-58.4471
-58.4477
-58.4485
-58.4495
-58.4506
-58.4519
-58.4534
-58.4551
-58.4569
-58.459
-58.4612
-58.4636
-58.4662
-58.469
-58.472
-58.4753
-58.4787
-58.4823
-58.4862
-58.4902
-58.4945
-58.4989
-58.5036
-58.5085
-58.5135
-58.5187
-58.5241
-58.5297
-58.5355
-58.5414
-58.5474
-58.5536
-58.56
-58.5664
-58.573
-58.5797
-58.5864
-58.5932
-58.6001
-58.6071
-58.614
-58.621
-58.6281
-58.6351
-58.6421
-58.6492
-58.6561
-58.6631
-58.67
-58.6768
-58.6836
-58.6903
-58.6969
-58.7034
-58.7098
-58.7161
-58.7223
-58.7284
-58.7343
-58.7401
-58.7458
-58.7513
-58.7566
-58.7618
-58.7669
-58.7718
-58.7765
-58.7811
-58.7855
-58.7897
-58.7938
-58.7977
-58.8014
-58.805
-58.8083
-58.8115
-58.8146
-58.8174
-58.8201
-58.8226
-58.8249
-58.8271
-58.829
-58.8308
-58.8325
-58.8339
-58.8352
-58.8363
-58.8372
-58.838
-58.8385
-58.8389
-58.8392
-58.8392
-62.8112
-62.8111
-62.8109
-62.8105
-62.8099
-62.8092
-62.8082
-62.8071
-62.8058
-62.8043
-62.8026
-62.8008
-62.7987
-62.7965
-62.7941
-62.7915
-62.7887
-62.7857
-62.7825
-62.7792
-62.7756
-62.7719
-62.7679
-62.7638
-62.7595
-62.755
-62.7503
-62.7454
-62.7404
-62.7352
-62.7297
-62.7242
-62.7184
-62.7125
-62.7064
-62.7001
-62.6937
-62.6872
-62.6805
-62.6737
-62.6667
-62.6596
-62.6524
-62.6452
-62.6378
-62.6303
-62.6228
-62.6152
-62.6076
-62.5999
-62.5922
-62.5845
-62.5767
-62.569
-62.5614
-62.5537
-62.5461
-62.5386
-62.5311
-62.5238
-62.5165
-62.5093
-62.5023