/*--------------------------------*- C++ -*----------------------------------*\
| =========                 |                                                 |
| \\      /  F ield         | OpenFOAM: The Open Source CFD Toolbox           |
|  \\    /   O peration     | Version:  2412                                  |
|   \\  /    A nd           | Website:  www.openfoam.com                      |
|    \\/     M anipulation  |                                                 |
\*---------------------------------------------------------------------------*/
FoamFile
{
    version     2.0;
    format      ascii;
    arch        "LSB;label=32;scalar=64";
    class       volScalarField;
    location    "1.7";
    object      p_rgh;
}
// * * * * * * * * * * * * * * * * * * * * * * * * * * * * * * * * * * * * * //

dimensions      [1 -1 -2 0 0 0 0];

internalField   nonuniform List<scalar> 
40000
(
1.962
1.96098
1.96056
1.96053
1.96079
1.9613
1.96203
1.96297
1.96411
1.96545
1.96699
1.96871
1.97062
1.97272
1.975
1.97746
1.98009
1.98291
1.9859
1.98907
1.99241
1.99591
1.99959
2.00343
2.00743
2.01159
2.01591
2.02038
2.02501
2.02977
2.03469
2.03974
2.04492
2.05024
2.05568
2.06124
2.06691
2.07269
2.07858
2.08456
2.09063
2.09678
2.10301
2.10931
2.11567
2.12208
2.12854
2.13503
2.14156
2.14811
2.15467
2.16123
2.16779
2.17434
2.18087
2.18737
2.19383
2.20025
2.20661
2.21291
2.21914
2.22529
2.23136
2.23734
2.24321
2.24898
2.25464
2.26019
2.26561
2.2709
2.27605
2.28107
2.28595
2.29068
2.29526
2.29969
2.30397
2.30809
2.31205
2.31585
2.31949
2.32297
2.32628
2.32943
2.33241
2.33523
2.33789
2.34038
2.3427
2.34486
2.34686
2.34869
2.35036
2.35187
2.35322
2.3544
2.35542
2.35628
2.35698
2.35751
2.35789
2.3581
2.35815
2.35804
2.35776
2.35732
2.35672
2.35595
2.35501
2.35391
2.35265
2.35121
2.34961
2.34784
2.34589
2.34378
2.3415
2.33905
2.33643
2.33364
2.33068
2.32756
2.32426
2.32081
2.31719
2.31341
2.30948
2.30538
2.30114
2.29675
2.29222
2.28755
2.28274
2.2778
2.27274
2.26757
2.26228
2.25689
2.2514
2.24582
2.24015
2.23441
2.2286
2.22273
2.21681
2.21084
2.20484
2.19881
2.19276
2.1867
2.18064
2.17458
2.16853
2.1625
2.15651
2.15055
2.14463
2.13876
2.13296
2.12722
2.12155
2.11596
2.11046
2.10504
2.09972
2.09451
2.0894
2.08441
2.07953
2.07477
2.07014
2.06564
2.06127
2.05704
2.05295
2.049
2.0452
2.04154
2.03804
2.03468
2.03149
2.02845
2.02556
2.02284
2.02028
2.01788
2.01564
2.01357
2.01166
2.00992
2.00834
2.00693
2.00569
2.00462
2.00371
2.00297
2.0024
2.002
2.00176
2.00171
1.96088
1.9605
1.96031
1.96036
1.96066
1.96118
1.96193
1.96287
1.96402
1.96536
1.9669
1.96863
1.97054
1.97263
1.97491
1.97737
1.98001
1.98283
1.98582
1.98899
1.99233
1.99584
1.99951
2.00335
2.00735
2.01152
2.01584
2.02031
2.02493
2.0297
2.03462
2.03967
2.04485
2.05017
2.05561
2.06117
2.06685
2.07263
2.07852
2.0845
2.09058
2.09673
2.10296
2.10927
2.11563
2.12204
2.12851
2.13501
2.14154
2.14809
2.15465
2.16122
2.16779
2.17434
2.18088
2.18738
2.19384
2.20026
2.20663
2.21293
2.21917
2.22533
2.2314
2.23738
2.24326
2.24903
2.25469
2.26024
2.26566
2.27095
2.27611
2.28113
2.28601
2.29075
2.29533
2.29976
2.30404
2.30816
2.31212
2.31592
2.31956
2.32304
2.32635
2.3295
2.33249
2.3353
2.33796
2.34045
2.34277
2.34494
2.34693
2.34877
2.35044
2.35194
2.35329
2.35447
2.35549
2.35635
2.35705
2.35758
2.35796
2.35817
2.35822
2.35811
2.35783
2.3574
2.35679
2.35602
2.35509
2.35399
2.35272
2.35129
2.34969
2.34791
2.34597
2.34386
2.34158
2.33913
2.33651
2.33372
2.33076
2.32764
2.32434
2.32089
2.31727
2.31349
2.30955
2.30546
2.30121
2.29682
2.29228
2.28761
2.2828
2.27786
2.2728
2.26762
2.26233
2.25693
2.25144
2.24585
2.24018
2.23444
2.22863
2.22275
2.21683
2.21086
2.20485
2.19881
2.19276
2.1867
2.18063
2.17456
2.16851
2.16248
2.15648
2.15052
2.1446
2.13873
2.13292
2.12718
2.1215
2.11591
2.1104
2.10499
2.09967
2.09445
2.08934
2.08435
2.07947
2.07471
2.07008
2.06557
2.0612
2.05697
2.05288
2.04893
2.04512
2.04147
2.03796
2.03461
2.03141
2.02837
2.02549
2.02277
2.0202
2.0178
2.01557
2.01349
2.01158
2.00984
2.00827
2.00686
2.00562
2.00455
2.00364
2.00291
2.00234
2.00195
2.00172
2.00167
1.95998
1.95984
1.9598
1.95995
1.9603
1.96086
1.96162
1.96258
1.96374
1.96509
1.96663
1.96836
1.97028
1.97238
1.97466
1.97712
1.97976
1.98258
1.98558
1.98874
1.99209
1.9956
1.99927
2.00312
2.00712
2.01129
2.01561
2.02009
2.02472
2.02949
2.03441
2.03947
2.04466
2.04999
2.05543
2.061
2.06669
2.07248
2.07837
2.08437
2.09045
2.09661
2.10286
2.10917
2.11554
2.12197
2.12844
2.13495
2.1415
2.14806
2.15464
2.16122
2.1678
2.17436
2.18091
2.18742
2.1939
2.20033
2.20671
2.21303
2.21927
2.22544
2.23152
2.23751
2.2434
2.24918
2.25486
2.26041
2.26584
2.27114
2.2763
2.28133
2.28622
2.29095
2.29554
2.29998
2.30426
2.30838
2.31235
2.31615
2.31979
2.32327
2.32658
2.32973
2.33272
2.33553
2.33819
2.34068
2.343
2.34516
2.34716
2.34899
2.35066
2.35217
2.35351
2.35469
2.35572
2.35657
2.35727
2.35781
2.35818
2.3584
2.35845
2.35834
2.35806
2.35762
2.35702
2.35626
2.35532
2.35423
2.35296
2.35153
2.34992
2.34815
2.34621
2.3441
2.34182
2.33937
2.33675
2.33396
2.331
2.32787
2.32458
2.32112
2.3175
2.31371
2.30977
2.30567
2.30142
2.29703
2.29248
2.2878
2.28298
2.27804
2.27297
2.26778
2.26248
2.25707
2.25156
2.24597
2.24029
2.23453
2.22871
2.22282
2.21688
2.2109
2.20488
2.19884
2.19277
2.18669
2.18061
2.17454
2.16847
2.16243
2.15642
2.15045
2.14452
2.13864
2.13282
2.12706
2.12138
2.11578
2.11027
2.10484
2.09952
2.09429
2.08918
2.08417
2.07929
2.07452
2.06989
2.06538
2.06101
2.05677
2.05267
2.04872
2.04491
2.04125
2.03775
2.03439
2.03119
2.02815
2.02526
2.02254
2.01997
2.01757
2.01533
2.01326
2.01135
2.00961
2.00803
2.00662
2.00538
2.00431
2.00341
2.00267
2.00211
2.00171
2.0015
2.00144
1.9591
1.95905
1.95911
1.95933
1.95973
1.96032
1.96111
1.96209
1.96326
1.96462
1.96617
1.9679
1.96982
1.97193
1.97422
1.97668
1.97933
1.98215
1.98515
1.98832
1.99167
1.99519
1.99887
2.00272
2.00673
2.0109
2.01523
2.01972
2.02436
2.02914
2.03407
2.03914
2.04434
2.04968
2.05514
2.06072
2.06641
2.07222
2.07813
2.08414
2.09024
2.09642
2.10268
2.10901
2.1154
2.12185
2.12834
2.13487
2.14144
2.14802
2.15462
2.16122
2.16782
2.17441
2.18097
2.18751
2.19401
2.20046
2.20686
2.21319
2.21946
2.22564
2.23174
2.23775
2.24365
2.24945
2.25514
2.2607
2.26615
2.27146
2.27663
2.28167
2.28657
2.29131
2.29591
2.30035
2.30464
2.30877
2.31273
2.31654
2.32018
2.32366
2.32698
2.33013
2.33311
2.33593
2.33858
2.34107
2.3434
2.34556
2.34755
2.34938
2.35105
2.35256
2.3539
2.35508
2.3561
2.35696
2.35766
2.3582
2.35857
2.35879
2.35884
2.35873
2.35846
2.35802
2.35742
2.35666
2.35573
2.35463
2.35336
2.35193
2.35033
2.34856
2.34662
2.34451
2.34223
2.33978
2.33716
2.33437
2.33141
2.32828
2.32498
2.32151
2.31789
2.3141
2.31015
2.30604
2.30178
2.29738
2.29282
2.28813
2.2833
2.27834
2.27325
2.26805
2.26273
2.25731
2.25179
2.24617
2.24047
2.2347
2.22885
2.22295
2.21699
2.21099
2.20495
2.19888
2.19279
2.1867
2.1806
2.1745
2.16842
2.16236
2.15633
2.15033
2.14438
2.13849
2.13265
2.12688
2.12119
2.11557
2.11004
2.1046
2.09926
2.09403
2.0889
2.08388
2.07899
2.07421
2.06957
2.06505
2.06067
2.05642
2.05232
2.04836
2.04455
2.04088
2.03737
2.03401
2.03081
2.02776
2.02487
2.02214
2.01958
2.01717
2.01493
2.01286
2.01095
2.0092
2.00763
2.00622
2.00498
2.00391
2.003
2.00227
2.0017
2.00131
2.00109
2.00103
1.95814
1.95814
1.95825
1.95853
1.95897
1.9596
1.96041
1.9614
1.96259
1.96396
1.96552
1.96726
1.96919
1.9713
1.97359
1.97606
1.97872
1.98155
1.98455
1.98773
1.99108
1.99461
1.9983
2.00215
2.00618
2.01036
2.0147
2.0192
2.02385
2.02864
2.03359
2.03867
2.04389
2.04924
2.05472
2.06032
2.06603
2.07186
2.07779
2.08382
2.08994
2.09615
2.10244
2.10879
2.11521
2.12168
2.1282
2.13476
2.14136
2.14797
2.1546
2.16123
2.16786
2.17447
2.18107
2.18763
2.19416
2.20064
2.20707
2.21343
2.21972
2.22593
2.23205
2.23808
2.24401
2.24983
2.25554
2.26112
2.26658
2.27191
2.2771
2.28216
2.28706
2.29182
2.29643
2.30088
2.30517
2.30931
2.31328
2.31709
2.32074
2.32422
2.32754
2.33069
2.33367
2.33649
2.33915
2.34163
2.34396
2.34611
2.34811
2.34994
2.3516
2.35311
2.35445
2.35563
2.35665
2.35751
2.35821
2.35875
2.35912
2.35934
2.35939
2.35928
2.35901
2.35858
2.35798
2.35722
2.35629
2.3552
2.35394
2.35251
2.35091
2.34914
2.3472
2.34509
2.34281
2.34036
2.33774
2.33495
2.33198
2.32885
2.32555
2.32208
2.31844
2.31464
2.31068
2.30657
2.30229
2.29787
2.2933
2.28859
2.28374
2.27876
2.27366
2.26843
2.26309
2.25765
2.2521
2.24646
2.24074
2.23493
2.22906
2.22313
2.21714
2.21111
2.20504
2.19895
2.19283
2.1867
2.18058
2.17445
2.16834
2.16225
2.1562
2.15018
2.1442
2.13828
2.13242
2.12663
2.12091
2.11527
2.10972
2.10427
2.09891
2.09365
2.08851
2.08348
2.07857
2.07378
2.06912
2.06459
2.06019
2.05594
2.05183
2.04786
2.04404
2.04036
2.03684
2.03348
2.03027
2.02722
2.02432
2.02159
2.01902
2.01661
2.01437
2.01229
2.01038
2.00863
2.00705
2.00564
2.0044
2.00333
2.00242
2.00169
2.00112
2.00073
2.00051
2.00044
1.95707
1.95709
1.95724
1.95755
1.95803
1.95868
1.95951
1.96053
1.96173
1.96311
1.96468
1.96643
1.96837
1.97049
1.97279
1.97527
1.97793
1.98076
1.98378
1.98696
1.99033
1.99386
1.99756
2.00143
2.00546
2.00966
2.01401
2.01852
2.02319
2.028
2.03296
2.03806
2.0433
2.04868
2.05418
2.0598
2.06554
2.0714
2.07736
2.08342
2.08957
2.09581
2.10212
2.10851
2.11496
2.12147
2.12803
2.13463
2.14125
2.1479
2.15457
2.16124
2.16791
2.17456
2.18119
2.1878
2.19436
2.20088
2.20734
2.21374
2.22006
2.22631
2.23246
2.23852
2.24448
2.25033
2.25606
2.26167
2.26715
2.2725
2.27771
2.28278
2.28771
2.29248
2.2971
2.30156
2.30587
2.31001
2.31399
2.31781
2.32146
2.32495
2.32826
2.33142
2.3344
2.33722
2.33987
2.34236
2.34468
2.34683
2.34883
2.35065
2.35232
2.35382
2.35516
2.35634
2.35736
2.35822
2.35892
2.35946
2.35983
2.36005
2.36011
2.36
2.35973
2.3593
2.35871
2.35795
2.35702
2.35593
2.35468
2.35325
2.35165
2.34989
2.34795
2.34585
2.34357
2.34112
2.33849
2.33569
2.33273
2.32959
2.32628
2.3228
2.31916
2.31535
2.31137
2.30724
2.30295
2.29851
2.29392
2.28919
2.28432
2.27932
2.27418
2.26893
2.26356
2.25808
2.25251
2.24683
2.24108
2.23524
2.22933
2.22336
2.21734
2.21127
2.20517
2.19903
2.19288
2.18672
2.18055
2.17439
2.16824
2.16212
2.15603
2.14998
2.14397
2.13802
2.13213
2.1263
2.12056
2.11489
2.10931
2.10383
2.09845
2.09317
2.088
2.08295
2.07802
2.07321
2.06854
2.06399
2.05958
2.05531
2.05119
2.04721
2.04337
2.03969
2.03616
2.03279
2.02957
2.02651
2.02361
2.02087
2.0183
2.01588
2.01364
2.01156
2.00964
2.00789
2.00631
2.0049
2.00366
2.00258
2.00168
2.00094
2.00038
1.99998
1.99976
1.99969
1.95587
1.9559
1.95608
1.95641
1.95691
1.95758
1.95844
1.95947
1.96068
1.96208
1.96366
1.96542
1.96736
1.96949
1.9718
1.97429
1.97696
1.9798
1.98283
1.98602
1.9894
1.99294
1.99665
2.00054
2.00458
2.0088
2.01317
2.0177
2.02238
2.02722
2.0322
2.03732
2.04259
2.04799
2.05352
2.05917
2.06494
2.07083
2.07682
2.08292
2.08911
2.09538
2.10174
2.10817
2.11466
2.12121
2.12781
2.13446
2.14113
2.14783
2.15454
2.16126
2.16797
2.17467
2.18135
2.188
2.19461
2.20117
2.20768
2.21412
2.22048
2.22677
2.23296
2.23906
2.24505
2.25094
2.2567
2.26234
2.26785
2.27323
2.27847
2.28356
2.2885
2.29329
2.29793
2.30241
2.30672
2.31088
2.31487
2.31869
2.32235
2.32584
2.32916
2.33231
2.3353
2.33811
2.34076
2.34325
2.34557
2.34772
2.34971
2.35153
2.3532
2.3547
2.35603
2.35721
2.35823
2.35909
2.35979
2.36033
2.3607
2.36092
2.36098
2.36088
2.36061
2.36019
2.3596
2.35884
2.35792
2.35684
2.35558
2.35416
2.35257
2.35081
2.34888
2.34677
2.34449
2.34204
2.33941
2.33662
2.33364
2.3305
2.32718
2.32369
2.32004
2.31621
2.31222
2.30807
2.30377
2.2993
2.29469
2.28993
2.28503
2.28
2.27483
2.26954
2.26414
2.25862
2.25301
2.24729
2.24149
2.23562
2.22966
2.22365
2.21758
2.21147
2.20532
2.19914
2.19294
2.18673
2.18052
2.17432
2.16813
2.16196
2.15582
2.14973
2.14368
2.13769
2.13176
2.1259
2.12012
2.11442
2.10881
2.10329
2.09788
2.09258
2.08738
2.08231
2.07735
2.07252
2.06782
2.06326
2.05883
2.05454
2.0504
2.04641
2.04256
2.03886
2.03532
2.03194
2.02871
2.02564
2.02274
2.01999
2.01741
2.01499
2.01274
2.01066
2.00874
2.00699
2.0054
2.00399
2.00274
2.00167
2.00076
2.00002
1.99946
1.99906
1.99884
1.99877
1.95452
1.95456
1.95475
1.9551
1.95562
1.95631
1.95718
1.95822
1.95945
1.96086
1.96245
1.96422
1.96618
1.96832
1.97063
1.97313
1.97581
1.97867
1.9817
1.98491
1.9883
1.99185
1.99558
1.99948
2.00354
2.00777
2.01216
2.01672
2.02142
2.02628
2.03129
2.03644
2.04174
2.04717
2.05273
2.05842
2.06423
2.07015
2.07619
2.08232
2.08856
2.09488
2.10128
2.10776
2.1143
2.12091
2.12756
2.13426
2.14098
2.14773
2.1545
2.16127
2.16804
2.1748
2.18154
2.18824
2.1949
2.20152
2.20808
2.21457
2.22099
2.22732
2.23356
2.2397
2.24574
2.25166
2.25747
2.26315
2.26869
2.2741
2.27936
2.28448
2.28945
2.29426
2.29892
2.30341
2.30774
2.31191
2.31591
2.31974
2.3234
2.32689
2.33022
2.33337
2.33636
2.33917
2.34182
2.3443
2.34662
2.34877
2.35075
2.35257
2.35423
2.35573
2.35707
2.35824
2.35926
2.36012
2.36082
2.36136
2.36174
2.36196
2.36202
2.36192
2.36166
2.36124
2.36065
2.3599
2.35899
2.35791
2.35666
2.35524
2.35366
2.3519
2.34997
2.34787
2.34559
2.34314
2.34051
2.33771
2.33473
2.33158
2.32825
2.32475
2.32108
2.31724
2.31323
2.30906
2.30473
2.30024
2.2956
2.29081
2.28588
2.28081
2.2756
2.27027
2.26483
2.25927
2.2536
2.24784
2.24199
2.23606
2.23006
2.22399
2.21787
2.2117
2.2055
2.19926
2.19301
2.18675
2.18048
2.17422
2.16798
2.16177
2.15558
2.14944
2.14334
2.1373
2.13133
2.12542
2.1196
2.11386
2.10821
2.10266
2.09721
2.09187
2.08664
2.08154
2.07655
2.0717
2.06697
2.06239
2.05794
2.05363
2.04947
2.04546
2.04159
2.03788
2.03433
2.03093
2.0277
2.02462
2.0217
2.01895
2.01636
2.01394
2.01168
2.00959
2.00767
2.00591
2.00432
2.00291
2.00166
2.00058
1.99967
1.99894
1.99837
1.99797
1.99775
1.99768
1.95301
1.95306
1.95325
1.95362
1.95415
1.95486
1.95574
1.9568
1.95804
1.95946
1.96106
1.96284
1.96481
1.96696
1.96929
1.97179
1.97448
1.97735
1.9804
1.98362
1.98702
1.99059
1.99434
1.99825
2.00234
2.00659
2.011
2.01558
2.02031
2.0252
2.03023
2.03542
2.04075
2.04621
2.05181
2.05754
2.0634
2.06937
2.07545
2.08163
2.08792
2.09429
2.10075
2.10728
2.11389
2.12055
2.12726
2.13402
2.14081
2.14763
2.15446
2.1613
2.16813
2.17495
2.18175
2.18852
2.19525
2.20193
2.20855
2.2151
2.22157
2.22796
2.23426
2.24045
2.24654
2.25251
2.25836
2.26408
2.26966
2.27511
2.28041
2.28556
2.29055
2.29539
2.30006
2.30458
2.30892
2.3131
2.31711
2.32095
2.32462
2.32812
2.33145
2.3346
2.33759
2.3404
2.34305
2.34553
2.34784
2.34998
2.35196
2.35378
2.35543
2.35693
2.35826
2.35944
2.36045
2.36131
2.362
2.36254
2.36293
2.36315
2.36321
2.36312
2.36286
2.36245
2.36187
2.36112
2.36022
2.35914
2.3579
2.35649
2.35491
2.35316
2.35124
2.34914
2.34686
2.34441
2.34178
2.33898
2.33599
2.33283
2.3295
2.32598
2.3223
2.31844
2.31441
2.31021
2.30585
2.30133
2.29666
2.29183
2.28686
2.28175
2.2765
2.27112
2.26562
2.26001
2.25429
2.24848
2.24257
2.23658
2.23052
2.22439
2.2182
2.21197
2.20571
2.19941
2.19309
2.18677
2.18044
2.17412
2.16782
2.16154
2.15529
2.14909
2.14294
2.13685
2.13082
2.12487
2.11899
2.11321
2.10751
2.10192
2.09643
2.09105
2.08579
2.08064
2.07563
2.07074
2.06599
2.06138
2.0569
2.05257
2.04839
2.04436
2.04048
2.03675
2.03318
2.02977
2.02652
2.02343
2.0205
2.01774
2.01514
2.01271
2.01045
2.00835
2.00643
2.00467
2.00308
2.00166
2.00041
1.99933
1.99842
1.99768
1.99711
1.99671
1.99649
1.99642
1.95134
1.95139
1.95159
1.95197
1.95251
1.95323
1.95412
1.9552
1.95645
1.95788
1.95949
1.96128
1.96326
1.96542
1.96776
1.97028
1.97298
1.97586
1.97892
1.98216
1.98557
1.98916
1.99293
1.99686
2.00097
2.00524
2.00968
2.01428
2.01904
2.02396
2.02903
2.03425
2.03962
2.04513
2.05077
2.05655
2.06245
2.06847
2.0746
2.08085
2.08719
2.09362
2.10014
2.10675
2.11341
2.12014
2.12693
2.13375
2.14062
2.1475
2.15441
2.16132
2.16823
2.17512
2.182
2.18884
2.19564
2.20239
2.20908
2.2157
2.22224
2.2287
2.23506
2.24131
2.24746
2.25348
2.25938
2.26515
2.27078
2.27626
2.2816
2.28678
2.29181
2.29667
2.30138
2.30591
2.31027
2.31447
2.31849
2.32234
2.32601
2.32952
2.33285
2.336
2.33899
2.3418
2.34444
2.34691
2.34922
2.35136
2.35334
2.35515
2.3568
2.35829
2.35962
2.36079
2.3618
2.36265
2.36335
2.36389
2.36427
2.3645
2.36457
2.36448
2.36423
2.36382
2.36325
2.36251
2.36161
2.36055
2.35932
2.35792
2.35634
2.3546
2.35268
2.35058
2.34831
2.34586
2.34323
2.34042
2.33743
2.33427
2.33091
2.32739
2.32368
2.3198
2.31575
2.31153
2.30714
2.30258
2.29787
2.293
2.28798
2.28282
2.27752
2.27209
2.26654
2.26087
2.25508
2.2492
2.24323
2.23717
2.23104
2.22484
2.21859
2.21228
2.20594
2.19957
2.19318
2.18679
2.18039
2.174
2.16762
2.16128
2.15497
2.1487
2.14248
2.13633
2.13024
2.12423
2.1183
2.11246
2.10671
2.10107
2.09554
2.09011
2.08481
2.07963
2.07457
2.06965
2.06487
2.06022
2.05572
2.05137
2.04716
2.0431
2.0392
2.03546
2.03187
2.02844
2.02518
2.02208
2.01914
2.01637
2.01376
2.01132
2.00905
2.00695
2.00502
2.00325
2.00166
2.00023
1.99898
1.9979
1.99699
1.99625
1.99568
1.99528
1.99505
1.99499
1.9495
1.94955
1.94976
1.95014
1.9507
1.95142
1.95233
1.95341
1.95467
1.95611
1.95774
1.95954
1.96153
1.9637
1.96605
1.96858
1.97129
1.97419
1.97726
1.98052
1.98395
1.98756
1.99134
1.9953
1.99943
2.00372
2.00819
2.01282
2.01762
2.02257
2.02768
2.03294
2.03835
2.04391
2.0496
2.05543
2.06138
2.06746
2.07365
2.07996
2.08636
2.09287
2.09946
2.10613
2.11287
2.11968
2.12654
2.13345
2.14039
2.14736
2.15435
2.16135
2.16834
2.17532
2.18228
2.1892
2.19608
2.20292
2.20968
2.21638
2.223
2.22953
2.23596
2.24228
2.24849
2.25457
2.26053
2.26635
2.27203
2.27757
2.28295
2.28817
2.29323
2.29812
2.30285
2.30741
2.31179
2.316
2.32004
2.3239
2.32758
2.33109
2.33442
2.33757
2.34056
2.34336
2.346
2.34847
2.35077
2.3529
2.35487
2.35668
2.35832
2.3598
2.36113
2.3623
2.3633
2.36416
2.36485
2.36539
2.36578
2.36601
2.36608
2.366
2.36576
2.36535
2.36479
2.36407
2.36318
2.36212
2.3609
2.35951
2.35795
2.35621
2.3543
2.35221
2.34994
2.34749
2.34486
2.34205
2.33905
2.33587
2.33251
2.32897
2.32524
2.32134
2.31726
2.31301
2.30858
2.30399
2.29923
2.29432
2.28925
2.28403
2.27867
2.27318
2.26756
2.26183
2.25597
2.25002
2.24397
2.23784
2.23163
2.22535
2.21901
2.21263
2.20621
2.19976
2.19328
2.18681
2.18033
2.17386
2.1674
2.16098
2.1546
2.14826
2.14197
2.13574
2.12959
2.12351
2.11752
2.11162
2.10582
2.10012
2.09453
2.08906
2.08371
2.07848
2.07339
2.06843
2.06361
2.05893
2.0544
2.05001
2.04578
2.0417
2.03777
2.03401
2.0304
2.02696
2.02368
2.02056
2.01761
2.01483
2.01221
2.00977
2.00749
2.00538
2.00344
2.00167
2.00007
1.99864
1.99739
1.9963
1.99539
1.99465
1.99407
1.99368
1.99345
1.99339
1.94749
1.94755
1.94776
1.94815
1.94871
1.94944
1.95036
1.95145
1.95272
1.95417
1.9558
1.95762
1.95961
1.96179
1.96416
1.9667
1.96943
1.97234
1.97543
1.9787
1.98214
1.98577
1.98958
1.99356
1.99771
2.00204
2.00654
2.0112
2.01603
2.02103
2.02618
2.03148
2.03694
2.04255
2.04829
2.05418
2.06019
2.06633
2.07259
2.07897
2.08545
2.09202
2.09869
2.10545
2.11227
2.11917
2.12611
2.13311
2.14014
2.14721
2.15429
2.16138
2.16846
2.17554
2.18259
2.1896
2.19658
2.2035
2.21036
2.21714
2.22384
2.23045
2.23696
2.24336
2.24964
2.2558
2.26182
2.2677
2.27344
2.27902
2.28445
2.28971
2.29481
2.29974
2.3045
2.30908
2.31349
2.31772
2.32176
2.32563
2.32932
2.33283
2.33616
2.33932
2.3423
2.3451
2.34773
2.3502
2.35249
2.35461
2.35657
2.35837
2.36001
2.36148
2.3628
2.36396
2.36497
2.36582
2.36651
2.36705
2.36744
2.36767
2.36775
2.36768
2.36744
2.36705
2.3665
2.36578
2.36491
2.36387
2.36266
2.36128
2.35972
2.358
2.35609
2.35401
2.35175
2.3493
2.34667
2.34385
2.34085
2.33767
2.33429
2.33073
2.32698
2.32306
2.31895
2.31466
2.31019
2.30556
2.30075
2.29578
2.29066
2.28538
2.27996
2.2744
2.26871
2.2629
2.25697
2.25093
2.2448
2.23858
2.23228
2.22591
2.21949
2.21301
2.2065
2.19996
2.1934
2.18683
2.18026
2.1737
2.16716
2.16065
2.15418
2.14776
2.14139
2.13509
2.12886
2.12271
2.11665
2.11068
2.10481
2.09905
2.09341
2.08788
2.08248
2.07721
2.07207
2.06707
2.06221
2.05749
2.05292
2.0485
2.04424
2.04013
2.03619
2.0324
2.02877
2.02531
2.02201
2.01888
2.01592
2.01312
2.01049
2.00804
2.00575
2.00363
2.00169
1.99991
1.99831
1.99688
1.99562
1.99453
1.99361
1.99287
1.9923
1.9919
1.99167
1.99161
1.94531
1.94537
1.94558
1.94597
1.94654
1.94728
1.9482
1.9493
1.95058
1.95204
1.95368
1.95551
1.95752
1.95971
1.96208
1.96464
1.96738
1.9703
1.97341
1.97669
1.98016
1.98381
1.98764
1.99165
1.99583
2.00019
2.00472
2.00942
2.01429
2.01932
2.02452
2.02987
2.03538
2.04104
2.04685
2.05279
2.05887
2.06509
2.07142
2.07787
2.08443
2.09109
2.09785
2.10469
2.11161
2.11859
2.12564
2.13273
2.13987
2.14703
2.15421
2.16141
2.1686
2.17577
2.18293
2.19005
2.19713
2.20415
2.2111
2.21798
2.22478
2.23148
2.23808
2.24456
2.25092
2.25715
2.26324
2.26919
2.27499
2.28063
2.28611
2.29142
2.29656
2.30153
2.30632
2.31093
2.31536
2.3196
2.32367
2.32755
2.33124
2.33476
2.33809
2.34124
2.34421
2.34701
2.34964
2.35209
2.35437
2.35649
2.35844
2.36022
2.36185
2.36332
2.36463
2.36578
2.36678
2.36763
2.36833
2.36887
2.36926
2.3695
2.36958
2.36951
2.36929
2.36891
2.36837
2.36767
2.3668
2.36578
2.36458
2.36321
2.36168
2.35996
2.35807
2.35599
2.35374
2.35129
2.34866
2.34585
2.34284
2.33964
2.33625
2.33268
2.32891
2.32495
2.32081
2.31648
2.31197
2.30729
2.30243
2.29741
2.29222
2.28688
2.28139
2.27575
2.26998
2.26408
2.25807
2.25194
2.24572
2.2394
2.23301
2.22654
2.22001
2.21344
2.20682
2.20018
2.19352
2.18684
2.18018
2.17352
2.16688
2.16028
2.15372
2.1472
2.14075
2.13436
2.12805
2.12182
2.11568
2.10964
2.1037
2.09788
2.09217
2.08658
2.08112
2.0758
2.07061
2.06556
2.06066
2.0559
2.0513
2.04684
2.04255
2.03841
2.03444
2.03062
2.02698
2.02349
2.02018
2.01703
2.01405
2.01124
2.00861
2.00614
2.00384
2.00172
1.99976
1.99798
1.99638
1.99494
1.99368
1.99259
1.99167
1.99092
1.99035
1.98995
1.98973
1.98966
1.94296
1.94301
1.94323
1.94362
1.94419
1.94494
1.94587
1.94698
1.94826
1.94973
1.95138
1.95322
1.95523
1.95744
1.95982
1.96239
1.96514
1.96808
1.97121
1.97451
1.978
1.98167
1.98552
1.98956
1.99377
1.99816
2.00273
2.00746
2.01238
2.01745
2.0227
2.02811
2.03367
2.03939
2.04526
2.05128
2.05743
2.06372
2.07013
2.07666
2.08331
2.09006
2.09691
2.10385
2.11087
2.11796
2.12511
2.13231
2.13956
2.14683
2.15413
2.16144
2.16874
2.17604
2.1833
2.19054
2.19773
2.20486
2.21192
2.21891
2.22581
2.23261
2.2393
2.24588
2.25233
2.25864
2.26481
2.27083
2.2767
2.2824
2.28794
2.2933
2.29849
2.3035
2.30832
2.31296
2.31741
2.32168
2.32575
2.32964
2.33334
2.33686
2.34019
2.34334
2.34631
2.3491
2.35171
2.35415
2.35642
2.35853
2.36046
2.36224
2.36385
2.36531
2.36661
2.36776
2.36876
2.3696
2.37029
2.37083
2.37123
2.37147
2.37156
2.3715
2.37129
2.37092
2.3704
2.36971
2.36886
2.36785
2.36667
2.36532
2.3638
2.3621
2.36022
2.35816
2.35591
2.35347
2.35085
2.34803
2.34502
2.34181
2.33841
2.33481
2.33102
2.32703
2.32285
2.31849
2.31393
2.3092
2.30428
2.29919
2.29394
2.28852
2.28295
2.27723
2.27137
2.26538
2.25927
2.25305
2.24672
2.2403
2.2338
2.22722
2.22059
2.2139
2.20717
2.20042
2.19364
2.18686
2.18008
2.17332
2.16658
2.15987
2.1532
2.14659
2.14004
2.13356
2.12715
2.12084
2.11462
2.1085
2.10248
2.09659
2.09081
2.08516
2.07964
2.07425
2.06901
2.06391
2.05896
2.05416
2.04951
2.04503
2.0407
2.03653
2.03253
2.02869
2.02502
2.02151
2.01818
2.01501
2.01202
2.0092
2.00655
2.00407
2.00176
1.99963
1.99767
1.99588
1.99427
1.99283
1.99156
1.99047
1.98955
1.9888
1.98823
1.98783
1.9876
1.98754
1.94042
1.94048
1.9407
1.94109
1.94167
1.94242
1.94335
1.94447
1.94576
1.94724
1.9489
1.95074
1.95277
1.95498
1.95738
1.95996
1.96273
1.96568
1.96882
1.97214
1.97565
1.97935
1.98323
1.98729
1.99153
1.99596
2.00056
2.00534
2.01029
2.01542
2.02072
2.02618
2.03181
2.03759
2.04353
2.04962
2.05585
2.06222
2.06872
2.07534
2.08208
2.08893
2.09589
2.10293
2.11006
2.11726
2.12453
2.13185
2.13922
2.14662
2.15404
2.16147
2.1689
2.17632
2.18371
2.19107
2.19838
2.20564
2.21282
2.21993
2.22694
2.23385
2.24064
2.24732
2.25386
2.26027
2.26653
2.27263
2.27857
2.28434
2.28994
2.29536
2.30059
2.30564
2.3105
2.31517
2.31965
2.32393
2.32803
2.33192
2.33563
2.33915
2.34248
2.34562
2.34858
2.35136
2.35396
2.35639
2.35864
2.36073
2.36265
2.36441
2.36601
2.36746
2.36875
2.36989
2.37088
2.37172
2.37241
2.37295
2.37335
2.3736
2.3737
2.37365
2.37345
2.37309
2.37258
2.37192
2.37109
2.3701
2.36894
2.36761
2.3661
2.36442
2.36256
2.36051
2.35827
2.35584
2.35322
2.3504
2.34739
2.34417
2.34075
2.33714
2.33332
2.3293
2.32509
2.32068
2.31607
2.31128
2.3063
2.30115
2.29582
2.29032
2.28466
2.27885
2.2729
2.26681
2.26059
2.25426
2.24782
2.24128
2.23466
2.22797
2.22121
2.2144
2.20755
2.20068
2.19378
2.18688
2.17998
2.17309
2.16623
2.15941
2.15263
2.14591
2.13926
2.13267
2.12617
2.11976
2.11345
2.10724
2.10115
2.09517
2.08932
2.0836
2.07801
2.07257
2.06727
2.06211
2.05711
2.05227
2.04758
2.04305
2.03868
2.03448
2.03045
2.02658
2.02289
2.01936
2.01601
2.01282
2.00981
2.00698
2.00431
2.00182
1.99951
1.99737
1.9954
1.99361
1.99199
1.99054
1.98928
1.98818
1.98726
1.98651
1.98594
1.98553
1.98531
1.98525
1.93771
1.93777
1.93799
1.93839
1.93897
1.93972
1.94066
1.94178
1.94308
1.94456
1.94623
1.94808
1.95011
1.95234
1.95474
1.95734
1.96012
1.96309
1.96625
1.96959
1.97312
1.97684
1.98074
1.98484
1.98911
1.99357
1.99821
2.00304
2.00804
2.01322
2.01857
2.0241
2.02979
2.03564
2.04165
2.04782
2.05413
2.06059
2.06718
2.0739
2.08075
2.08771
2.09477
2.10193
2.10918
2.1165
2.1239
2.13135
2.13885
2.14638
2.15393
2.1615
2.16907
2.17663
2.18416
2.19165
2.1991
2.20649
2.2138
2.22103
2.22817
2.2352
2.24211
2.24889
2.25554
2.26205
2.2684
2.27458
2.2806
2.28645
2.29211
2.29759
2.30288
2.30798
2.31288
2.31758
2.32208
2.32639
2.33049
2.3344
2.33811
2.34163
2.34495
2.34808
2.35103
2.3538
2.35638
2.35879
2.36103
2.3631
2.365
2.36675
2.36833
2.36976
2.37104
2.37217
2.37315
2.37398
2.37467
2.37522
2.37562
2.37587
2.37598
2.37594
2.37576
2.37542
2.37493
2.37428
2.37348
2.37251
2.37137
2.37007
2.36858
2.36692
2.36508
2.36305
2.36082
2.35841
2.35579
2.35297
2.34996
2.34673
2.3433
2.33967
2.33582
2.33177
2.32752
2.32306
2.3184
2.31355
2.3085
2.30327
2.29786
2.29228
2.28652
2.28061
2.27455
2.26835
2.26202
2.25557
2.24901
2.24235
2.2356
2.22878
2.22189
2.21495
2.20796
2.20095
2.19392
2.18689
2.17986
2.17284
2.16586
2.15891
2.15201
2.14517
2.1384
2.13171
2.1251
2.11859
2.11218
2.10588
2.09969
2.09363
2.0877
2.08191
2.07625
2.07074
2.06537
2.06016
2.05511
2.05021
2.04548
2.04091
2.0365
2.03227
2.0282
2.02431
2.02059
2.01704
2.01366
2.01046
2.00743
2.00458
2.00191
1.9994
1.99708
1.99493
1.99296
1.99116
1.98953
1.98809
1.98681
1.98571
1.98479
1.98404
1.98347
1.98306
1.98284
1.98278
1.93482
1.93488
1.9351
1.9355
1.93608
1.93684
1.93778
1.9389
1.94021
1.9417
1.94337
1.94523
1.94728
1.94951
1.95193
1.95453
1.95733
1.96031
1.96348
1.96685
1.9704
1.97414
1.97808
1.9822
1.98651
1.99101
1.99569
2.00056
2.00561
2.01084
2.01625
2.02184
2.0276
2.03353
2.03962
2.04587
2.05227
2.05882
2.06552
2.07234
2.0793
2.08637
2.09356
2.10084
2.10822
2.11568
2.12321
2.1308
2.13844
2.14612
2.15382
2.16153
2.16925
2.17696
2.18464
2.19228
2.19987
2.2074
2.21486
2.22223
2.2295
2.23666
2.2437
2.2506
2.25736
2.26398
2.27043
2.27671
2.28281
2.28874
2.29447
2.30002
2.30536
2.3105
2.31544
2.32018
2.32471
2.32903
2.33315
2.33707
2.34078
2.34429
2.34761
2.35073
2.35367
2.35642
2.35898
2.36137
2.36359
2.36563
2.36752
2.36924
2.3708
2.37222
2.37348
2.37459
2.37557
2.37639
2.37708
2.37762
2.37803
2.37829
2.37841
2.37839
2.37822
2.3779
2.37743
2.37681
2.37603
2.37509
2.37398
2.3727
2.37124
2.36961
2.36779
2.36577
2.36357
2.36117
2.35856
2.35575
2.35273
2.3495
2.34606
2.3424
2.33853
2.33445
2.33015
2.32564
2.32093
2.31601
2.31089
2.30558
2.30008
2.2944
2.28854
2.28253
2.27635
2.27003
2.26358
2.25699
2.2503
2.2435
2.23661
2.22965
2.22261
2.21553
2.2084
2.20124
2.19407
2.18689
2.17972
2.17256
2.16544
2.15836
2.15133
2.14436
2.13747
2.13066
2.12394
2.11731
2.1108
2.1044
2.09812
2.09197
2.08595
2.08007
2.07434
2.06876
2.06333
2.05806
2.05294
2.048
2.04321
2.0386
2.03416
2.02989
2.02579
2.02186
2.01811
2.01454
2.01114
2.00792
2.00488
2.00201
1.99932
1.99681
1.99448
1.99232
1.99034
1.98853
1.9869
1.98545
1.98417
1.98307
1.98215
1.9814
1.98082
1.98042
1.98019
1.98013
1.93176
1.93181
1.93203
1.93243
1.93301
1.93378
1.93472
1.93585
1.93716
1.93865
1.94033
1.9422
1.94425
1.94649
1.94892
1.95153
1.95434
1.95734
1.96053
1.96392
1.96749
1.97126
1.97522
1.97937
1.98372
1.98825
1.99298
1.99789
2.003
2.00829
2.01376
2.01941
2.02524
2.03125
2.03742
2.04376
2.05026
2.05692
2.06371
2.07065
2.07773
2.08492
2.09224
2.09966
2.10717
2.11478
2.12245
2.1302
2.13799
2.14583
2.15369
2.16156
2.16944
2.17731
2.18515
2.19296
2.20071
2.2084
2.21601
2.22352
2.23094
2.23824
2.24541
2.25245
2.25934
2.26606
2.27262
2.27901
2.28521
2.29121
2.29703
2.30264
2.30804
2.31323
2.31822
2.32299
2.32754
2.33189
2.33602
2.33994
2.34365
2.34716
2.35047
2.35357
2.35649
2.35921
2.36176
2.36412
2.36631
2.36833
2.37019
2.37189
2.37343
2.37482
2.37607
2.37717
2.37813
2.37895
2.37963
2.38017
2.38058
2.38085
2.38098
2.38098
2.38083
2.38053
2.38009
2.3795
2.37874
2.37783
2.37675
2.37551
2.37408
2.37248
2.37068
2.3687
2.36651
2.36413
2.36153
2.35873
2.35571
2.35248
2.34902
2.34535
2.34145
2.33733
2.33299
2.32843
2.32365
2.31866
2.31347
2.30807
2.30247
2.29669
2.29073
2.28459
2.27829
2.27184
2.26525
2.25853
2.25169
2.24474
2.2377
2.23058
2.22339
2.21615
2.20886
2.20155
2.19422
2.18688
2.17956
2.17226
2.16498
2.15776
2.15059
2.14348
2.13646
2.12952
2.12267
2.11593
2.1093
2.10279
2.09641
2.09016
2.08406
2.07809
2.07228
2.06662
2.06113
2.05579
2.05062
2.04562
2.04078
2.03612
2.03164
2.02733
2.0232
2.01924
2.01546
2.01187
2.00845
2.00521
2.00215
1.99926
1.99656
1.99404
1.99169
1.98953
1.98754
1.98573
1.9841
1.98264
1.98136
1.98026
1.97933
1.97858
1.978
1.9776
1.97737
1.97731
1.92851
1.92856
1.92878
1.92918
1.92977
1.93053
1.93148
1.93261
1.93392
1.93542
1.9371
1.93897
1.94103
1.94328
1.94572
1.94835
1.95117
1.95418
1.95739
1.96079
1.96439
1.96818
1.97217
1.97635
1.98073
1.98531
1.99008
1.99504
2.0002
2.00555
2.01108
2.01681
2.02272
2.0288
2.03507
2.0415
2.0481
2.05486
2.06177
2.06883
2.07603
2.08336
2.09081
2.09838
2.10604
2.1138
2.12164
2.12954
2.1375
2.14551
2.15354
2.16159
2.16964
2.17769
2.1857
2.19368
2.20161
2.20946
2.21724
2.22492
2.2325
2.23995
2.24727
2.25445
2.26147
2.26832
2.275
2.28149
2.28779
2.29389
2.29978
2.30546
2.31093
2.31617
2.3212
2.32601
2.33059
2.33495
2.33909
2.34302
2.34673
2.35022
2.35352
2.3566
2.3595
2.3622
2.36471