/*--------------------------------*- C++ -*----------------------------------*\
| =========                 |                                                 |
| \\      /  F ield         | OpenFOAM: The Open Source CFD Toolbox           |
|  \\    /   O peration     | Version:  2412                                  |
|   \\  /    A nd           | Website:  www.openfoam.com                      |
|    \\/     M anipulation  |                                                 |
\*---------------------------------------------------------------------------*/
FoamFile
{
    version     2.0;
    format      ascii;
    arch        "LSB;label=32;scalar=64";
    class       surfaceScalarField;
    location    "1.7";
    object      phi;
}
// * * * * * * * * * * * * * * * * * * * * * * * * * * * * * * * * * * * * * //

dimensions      [0 3 -1 0 0 0 0];

oriented        oriented;

internalField   nonuniform List<scalar> 
79600
(
-2.50521e-11
2.77889e-11
-6.57093e-11
4.06557e-11
-1.06438e-10
4.07261e-11
-1.44759e-10
3.83168e-11
-1.81435e-10
3.66729e-11
-2.17338e-10
3.58984e-11
-2.52902e-10
3.55597e-11
-2.88271e-10
3.53659e-11
-3.23465e-10
3.51913e-11
-3.58461e-10
3.49946e-11
-3.93227e-10
3.4766e-11
-4.27732e-10
3.45056e-11
-4.61943e-10
3.42128e-11
-4.9583e-10
3.38889e-11
-5.29361e-10
3.35336e-11
-5.62505e-10
3.3146e-11
-5.95228e-10
3.27253e-11
-6.27497e-10
3.22712e-11
-6.59279e-10
3.17828e-11
-6.90537e-10
3.12595e-11
-7.21237e-10
3.07008e-11
-7.51341e-10
3.01051e-11
-7.80813e-10
2.9472e-11
-8.09614e-10
2.88011e-11
-8.37705e-10
2.80911e-11
-8.65047e-10
2.73411e-11
-8.91601e-10
2.6553e-11
-9.17326e-10
2.57247e-11
-9.42183e-10
2.48565e-11
-9.66132e-10
2.39484e-11
-9.89131e-10
2.29995e-11
-1.01114e-09
2.20125e-11
-1.03213e-09
2.0986e-11
-1.05205e-09
1.99211e-11
-1.07086e-09
1.88189e-11
-1.08854e-09
1.76798e-11
-1.10505e-09
1.65067e-11
-1.12034e-09
1.52995e-11
-1.1344e-09
1.40581e-11
-1.14719e-09
1.27892e-11
-1.15868e-09
1.14918e-11
-1.16885e-09
1.01687e-11
-1.17767e-09
8.82216e-12
-1.18513e-09
7.45461e-12
-1.1912e-09
6.07013e-12
-1.19587e-09
4.6698e-12
-1.19913e-09
3.25568e-12
-1.20098e-09
1.84555e-12
-1.20137e-09
3.89366e-13
-1.20033e-09
-1.04003e-12
-1.19787e-09
-2.46222e-12
-1.194e-09
-3.8753e-12
-1.18873e-09
-5.27594e-12
-1.18206e-09
-6.6635e-12
-1.17404e-09
-8.03019e-12
-1.16466e-09
-9.37494e-12
-1.15397e-09
-1.06961e-11
-1.14198e-09
-1.19889e-11
-1.12873e-09
-1.32487e-11
-1.11426e-09
-1.44747e-11
-1.0986e-09
-1.56615e-11
-1.08179e-09
-1.6807e-11
-1.06388e-09
-1.79078e-11
-1.04492e-09
-1.89632e-11
-1.02495e-09
-1.99689e-11
-1.00402e-09
-2.09246e-11
-9.82191e-10
-2.18283e-11
-9.5951e-10
-2.26795e-11
-9.3603e-10
-2.34766e-11
-9.11809e-10
-2.42189e-11
-8.86899e-10
-2.49075e-11
-8.61355e-10
-2.55406e-11
-8.35233e-10
-2.61197e-11
-8.08584e-10
-2.66459e-11
-7.81462e-10
-2.71206e-11
-7.53916e-10
-2.75441e-11
-7.25996e-10
-2.79188e-11
-6.97749e-10
-2.82469e-11
-6.69219e-10
-2.85299e-11
-6.40448e-10
-2.87711e-11
-6.11476e-10
-2.89727e-11
-5.82339e-10
-2.91378e-11
-5.5307e-10
-2.9269e-11
-5.23702e-10
-2.93692e-11
-4.9426e-10
-2.94418e-11
-4.64768e-10
-2.94925e-11
-4.35249e-10
-2.95196e-11
-4.05719e-10
-2.95292e-11
-3.76194e-10
-2.95239e-11
-3.46685e-10
-2.95073e-11
-3.17201e-10
-2.9482e-11
-2.87749e-10
-2.94498e-11
-2.58332e-10
-2.94137e-11
-2.28951e-10
-2.93765e-11
-1.99607e-10
-2.93402e-11
-1.70297e-10
-2.93061e-11
-1.41017e-10
-2.92759e-11
-1.11763e-10
-2.92511e-11
-8.2528e-11
-2.92325e-11
-5.3306e-11
-2.92206e-11
-2.40903e-11
-2.92156e-11
5.12648e-12
-2.92171e-11
3.4351e-11
-2.92253e-11
6.35889e-11
-2.92395e-11
9.28444e-11
-2.92583e-11
1.22122e-10
-2.92805e-11
1.51422e-10
-2.93044e-11
1.80747e-10
-2.9328e-11
2.10092e-10
-2.93497e-11
2.39454e-10
-2.93665e-11
2.68827e-10
-2.93761e-11
2.982e-10
-2.9376e-11
3.27561e-10
-2.93633e-11
3.56894e-10
-2.93347e-11
3.86181e-10
-2.92867e-11
4.15398e-10
-2.92175e-11
4.44523e-10
-2.91238e-11
4.73526e-10
-2.9002e-11
5.02376e-10
-2.88492e-11
5.31038e-10
-2.86626e-11
5.59476e-10
-2.84386e-11
5.87651e-10
-2.8176e-11
6.1552e-10
-2.78716e-11
6.4304e-10
-2.75228e-11
6.70166e-10
-2.71272e-11
6.96849e-10
-2.66838e-11
7.23039e-10
-2.61904e-11
7.48687e-10
-2.5647e-11
7.73741e-10
-2.50518e-11
7.98146e-10
-2.44026e-11
8.21854e-10
-2.37041e-11
8.44811e-10
-2.29536e-11
8.66965e-10
-2.21495e-11
8.88266e-10
-2.12972e-11
9.08667e-10
-2.03961e-11
9.28117e-10
-1.94473e-11
9.46571e-10
-1.84512e-11
9.63986e-10
-1.74119e-11
9.80318e-10
-1.63313e-11
9.95529e-10
-1.52119e-11
1.00958e-09
-1.4056e-11
1.02245e-09
-1.28663e-11
1.03409e-09
-1.16477e-11
1.04449e-09
-1.04024e-11
1.05362e-09
-9.13295e-12
1.06146e-09
-7.84493e-12
1.06799e-09
-6.54154e-12
1.07321e-09
-5.22525e-12
1.0771e-09
-3.8946e-12
1.07965e-09
-2.56026e-12
1.08087e-09
-1.22098e-12
1.08075e-09
1.14602e-13
1.07927e-09
1.47817e-12
1.07648e-09
2.79094e-12
1.07238e-09
4.10268e-12
1.06698e-09
5.39852e-12
1.0603e-09
6.67541e-12
1.05237e-09
7.93443e-12
1.0432e-09
9.1689e-12
1.03283e-09
1.03782e-11
1.02127e-09
1.15607e-11
1.00856e-09
1.2713e-11
9.94727e-10
1.38357e-11
9.798e-10
1.49265e-11
9.63815e-10
1.59834e-11
9.46806e-10
1.70055e-11
9.28807e-10
1.79945e-11
9.09856e-10
1.89463e-11
8.89991e-10
1.98614e-11
8.69246e-10
2.07426e-11
8.47657e-10
2.15868e-11
8.25263e-10
2.23936e-11
8.021e-10
2.31642e-11
7.78203e-10
2.38984e-11
7.53607e-10
2.45964e-11
7.28349e-10
2.52597e-11
7.02463e-10
2.58876e-11
6.75983e-10
2.64806e-11
6.48944e-10
2.70398e-11
6.21378e-10
2.75659e-11
5.93317e-10
2.80601e-11
5.64793e-10
2.85222e-11
5.35836e-10
2.89536e-11
5.06477e-10
2.93557e-11
4.76745e-10
2.97289e-11
4.46668e-10
3.00736e-11
4.16275e-10
3.039e-11
3.85595e-10
3.06784e-11
3.54654e-10
3.09379e-11
3.23484e-10
3.11678e-11
2.92116e-10
3.13661e-11
2.60583e-10
3.15316e-11
2.28911e-10
3.16714e-11
1.97085e-10
3.18263e-11
1.64962e-10
3.21261e-11
1.32092e-10
3.28726e-11
9.75868e-11
3.45027e-11
6.06878e-11
3.68874e-11
2.38302e-11
3.68351e-11
2.38068e-11
-4.0164e-11
6.79512e-11
-1.00495e-10
1.00981e-10
-1.58136e-10
9.83609e-11
-2.09961e-10
9.01342e-11
-2.57902e-10
8.46062e-11
-3.03912e-10
8.19019e-11
-3.49046e-10
8.06887e-11
-3.93726e-10
8.00418e-11
-4.38075e-10
7.95379e-11
-4.82103e-10
7.90228e-11
-5.25785e-10
7.8449e-11
-5.69083e-10
7.78067e-11
-6.11957e-10
7.70901e-11
-6.54365e-10
7.6301e-11
-6.96266e-10
7.54391e-11
-7.37618e-10
7.45005e-11
-7.78374e-10
7.34845e-11
-8.1849e-10
7.23901e-11
-8.57921e-10
7.12156e-11
-8.96619e-10
6.99588e-11
-9.34536e-10
6.86195e-11
-9.71625e-10
6.7194e-11
-1.00784e-09
6.5682e-11
-1.04312e-09
6.40822e-11
-1.07742e-09
6.23919e-11
-1.11069e-09
6.06091e-11
-1.14288e-09
5.87396e-11
-1.17393e-09
5.67782e-11
-1.2038e-09
5.47258e-11
-1.23243e-09
5.25826e-11
-1.25978e-09
5.03469e-11
-1.28579e-09
4.80255e-11
-1.31042e-09
4.56158e-11
-1.33362e-09
4.31203e-11
-1.35534e-09
4.05418e-11
-1.37554e-09
3.7884e-11
-1.39418e-09
3.51505e-11
-1.41122e-09
3.23431e-11
-1.42662e-09
2.94613e-11
-1.44035e-09
2.65228e-11
-1.45239e-09
2.35266e-11
-1.4627e-09
2.04765e-11
-1.47126e-09
1.73799e-11
-1.47805e-09
1.42431e-11
-1.48306e-09
1.10758e-11
-1.48628e-09
7.88131e-12
-1.48769e-09
4.66061e-12
-1.48729e-09
1.4428e-12
-1.48511e-09
-1.79584e-12
-1.48115e-09
-5.00844e-12
-1.47541e-09
-8.1992e-12
-1.46793e-09
-1.13647e-11
-1.45871e-09
-1.44958e-11
-1.44779e-09
-1.7588e-11
-1.4352e-09
-2.06237e-11
-1.42098e-09
-2.35999e-11
-1.40517e-09
-2.65129e-11
-1.3878e-09
-2.93516e-11
-1.36895e-09
-3.21054e-11
-1.34865e-09
-3.47746e-11
-1.32697e-09
-3.73436e-11
-1.30396e-09
-3.98107e-11
-1.2797e-09
-4.2167e-11
-1.25425e-09
-4.44135e-11
-1.22767e-09
-4.65382e-11
-1.20006e-09
-4.85359e-11
-1.17147e-09
-5.04146e-11
-1.14197e-09
-5.21673e-11
-1.11166e-09
-5.379e-11
-1.08059e-09
-5.52835e-11
-1.04884e-09
-5.66506e-11
-1.01649e-09
-5.78871e-11
-9.83606e-10
-5.89978e-11
-9.50262e-10
-5.99856e-11
-9.16525e-10
-6.0855e-11
-8.8246e-10
-6.16075e-11
-8.4813e-10
-6.22486e-11
-8.13593e-10
-6.27833e-11
-7.78904e-10
-6.32183e-11
-7.44115e-10
-6.35608e-11
-7.09273e-10
-6.38153e-11
-6.74421e-10
-6.39906e-11
-6.39597e-10
-6.40942e-11
-6.04833e-10
-6.41329e-11
-5.7016e-10
-6.41149e-11
-5.35598e-10
-6.40546e-11
-5.01169e-10
-6.39473e-11
-4.66888e-10
-6.38085e-11
-4.32763e-10
-6.36456e-11
-3.988e-10
-6.34667e-11
-3.64999e-10
-6.32781e-11
-3.31358e-10
-6.30846e-11
-2.97872e-10
-6.28939e-11
-2.6453e-10
-6.27121e-11
-2.31319e-10
-6.25441e-11
-1.98225e-10
-6.23945e-11
-1.65229e-10
-6.22667e-11
-1.32313e-10
-6.21638e-11
-9.94562e-11
-6.20875e-11
-6.66363e-11
-6.20396e-11
-3.38317e-11
-6.20207e-11
-1.02035e-12
-6.20309e-11
3.18191e-11
-6.20686e-11
6.47073e-11
-6.21318e-11
9.76632e-11
-6.22189e-11
1.30704e-10
-6.2327e-11
1.63844e-10
-6.24514e-11
1.97097e-10
-6.25875e-11
2.30471e-10
-6.27297e-11
2.63973e-10
-6.2873e-11
2.97604e-10
-6.30113e-11
3.31362e-10
-6.31378e-11
3.65243e-10
-6.3245e-11
3.99235e-10
-6.33265e-11
4.33323e-10
-6.3373e-11
4.67486e-10
-6.33793e-11
5.01703e-10
-6.33387e-11
5.35942e-10
-6.32401e-11
5.70171e-10
-6.30773e-11
6.04351e-10
-6.28437e-11
6.38439e-10
-6.25287e-11
6.72389e-10
-6.21288e-11
7.06151e-10
-6.16368e-11
7.39673e-10
-6.10459e-11
7.72895e-10
-6.03502e-11
8.05758e-10
-5.95462e-11
8.38198e-10
-5.86276e-11
8.7015e-10
-5.75953e-11
9.01548e-10
-5.64456e-11
9.3232e-10
-5.51688e-11
9.62399e-10
-5.37769e-11
9.91715e-10
-5.22624e-11
1.02019e-09
-5.06216e-11
1.04777e-09
-4.88681e-11
1.07438e-09
-4.69973e-11
1.09995e-09
-4.5011e-11
1.12441e-09
-4.29121e-11
1.1477e-09
-4.07069e-11
1.16977e-09
-3.84004e-11
1.19056e-09
-3.59971e-11
1.21e-09
-3.35027e-11
1.22805e-09
-3.09238e-11
1.24466e-09
-2.82703e-11
1.2598e-09
-2.55464e-11
1.27342e-09
-2.27584e-11
1.28548e-09
-1.99202e-11
1.29597e-09
-1.70382e-11
1.30485e-09
-1.41165e-11
1.31211e-09
-1.11603e-11
1.31773e-09
-8.18574e-12
1.3217e-09
-5.1989e-12
1.32401e-09
-2.20042e-12
1.32467e-09
8.17958e-13
1.32366e-09
3.7988e-12
1.32099e-09
6.76799e-12
1.31669e-09
9.70741e-12
1.31076e-09
1.26133e-11
1.30321e-09
1.54853e-11
1.29408e-09
1.83063e-11
1.28339e-09
2.10751e-11
1.27116e-09
2.37885e-11
1.25744e-09
2.64401e-11
1.24224e-09
2.90279e-11
1.22562e-09
3.15476e-11
1.2076e-09
3.39946e-11
1.18823e-09
3.63665e-11
1.16755e-09
3.86671e-11
1.14561e-09
4.08844e-11
1.12245e-09
4.30213e-11
1.0981e-09
4.50825e-11
1.07263e-09
4.70605e-11
1.04607e-09
4.89512e-11
1.01847e-09
5.07628e-11
9.89884e-10
5.24915e-11
9.60344e-10
5.41383e-11
9.29899e-10
5.57056e-11
8.98595e-10
5.71922e-11
8.66478e-10
5.85983e-11
8.33592e-10
5.99244e-11
7.99978e-10
6.11764e-11
7.65679e-10
6.23549e-11
7.30735e-10
6.34604e-11
6.95189e-10
6.4495e-11
6.59079e-10
6.54598e-11
6.22445e-10
6.63576e-11
5.85323e-10
6.71901e-11
5.47752e-10
6.79566e-11
5.09771e-10
6.86564e-11
4.71414e-10
6.92908e-11
4.3272e-10
6.98584e-11
3.93727e-10
7.03579e-11
3.54462e-10
7.07964e-11
3.14921e-10
7.12143e-11
2.74983e-10
7.17652e-11
2.34221e-10
7.28866e-11
1.91559e-10
7.55329e-11
1.44997e-10
8.10663e-11
9.25404e-11
8.93566e-11
3.72106e-11
9.21835e-11
6.10068e-11
-4.09912e-11
1.08939e-10
-9.91827e-11
1.59167e-10
-1.5234e-10
1.51513e-10
-1.98076e-10
1.35865e-10
-2.3902e-10
1.25544e-10
-2.77569e-10
1.20445e-10
-3.15022e-10
1.18137e-10
-3.51927e-10
1.16944e-10
-3.88468e-10
1.16077e-10
-4.24687e-10
1.15242e-10
-4.60574e-10
1.14337e-10
-4.96102e-10
1.13337e-10
-5.31244e-10
1.12234e-10
-5.65964e-10
1.11023e-10
-6.0022e-10
1.09697e-10
-6.33978e-10
1.08261e-10
-6.672e-10
1.06707e-10
-6.99843e-10
1.05035e-10
-7.31869e-10
1.03242e-10
-7.63233e-10
1.01324e-10
-7.93893e-10
9.92793e-11
-8.23805e-10
9.71056e-11
-8.52924e-10
9.47993e-11
-8.81204e-10
9.23606e-11
-9.08605e-10
8.97906e-11
-9.35067e-10
8.7069e-11
-9.60553e-10
8.42239e-11
-9.85018e-10
8.12409e-11
-1.00841e-09
7.81169e-11
-1.03068e-09
7.48554e-11
-1.0518e-09
7.14656e-11
-1.07172e-09
6.79386e-11
-1.09038e-09
6.42789e-11
-1.10775e-09
6.04961e-11
-1.1238e-09
5.65885e-11
-1.13848e-09
5.25646e-11
-1.15176e-09
4.84313e-11
-1.16361e-09
4.41934e-11
-1.17399e-09
3.98388e-11
-1.18288e-09
3.54135e-11
-1.19026e-09
3.09058e-11
-1.19611e-09
2.63227e-11
-1.20041e-09
2.16768e-11
-1.20316e-09
1.69833e-11
-1.20434e-09
1.22503e-11
-1.20395e-09
7.48931e-12
-1.202e-09
2.70222e-12
-1.19848e-09
-2.07283e-12
-1.19345e-09
-6.83756e-12
-1.18688e-09
-1.15748e-11
-1.17881e-09
-1.62778e-11
-1.16925e-09
-2.09269e-11
-1.15825e-09
-2.55031e-11
-1.14582e-09
-3.00193e-11
-1.13202e-09
-3.44236e-11
-1.11689e-09
-3.87262e-11
-1.1005e-09
-4.29124e-11
-1.08287e-09
-4.69792e-11
-1.06407e-09
-5.08991e-11
-1.04419e-09
-5.46576e-11
-1.02327e-09
-5.82682e-11
-1.00137e-09
-6.17083e-11
-9.78574e-10
-6.49564e-11
-9.54962e-10
-6.80235e-11
-9.30603e-10
-7.08933e-11
-9.05573e-10
-7.35627e-11
-8.79954e-10
-7.60291e-11
-8.53823e-10
-7.82938e-11
-8.27255e-10
-8.03542e-11
-8.00325e-10
-8.22088e-11
-7.73122e-10
-8.38482e-11
-7.45711e-10
-8.52937e-11
-7.18164e-10
-8.65415e-11
-6.90554e-10
-8.75918e-11
-6.62943e-10
-8.84634e-11
-6.35397e-10
-8.91511e-11
-6.07975e-10
-8.96698e-11
-5.80729e-10
-9.00283e-11
-5.53708e-10
-9.02382e-11
-5.2696e-10
-9.03084e-11
-5.0052e-10
-9.02544e-11
-4.74423e-10
-9.0087e-11
-4.48697e-10
-8.98205e-11
-4.23362e-10
-8.94675e-11
-3.98434e-10
-8.90423e-11
-3.73929e-10
-8.85586e-11
-3.49848e-10
-8.80276e-11
-3.26185e-10
-8.74699e-11
-3.02934e-10
-8.68946e-11
-2.80089e-10
-8.63087e-11
-2.57629e-10
-8.5734e-11
-2.35531e-10
-8.51783e-11
-2.13768e-10
-8.46528e-11
-1.92311e-10
-8.41647e-11
-1.71123e-10
-8.37281e-11
-1.50171e-10
-8.33436e-11
-1.29412e-10
-8.3022e-11
-1.08804e-10
-8.277e-11
-8.83028e-11
-8.25872e-11
-6.78648e-11
-8.24775e-11
-4.74443e-11
-8.24419e-11
-2.69958e-11
-8.24805e-11
-6.47448e-12
-8.25917e-11
1.41635e-11
-8.27728e-11
3.49581e-11
-8.3017e-11
5.5952e-11
-8.33242e-11
7.71826e-11
-8.36845e-11
9.86793e-11
-8.40866e-11
1.20478e-10
-8.45305e-11
1.426e-10
-8.49966e-11
1.65071e-10
-8.54825e-11
1.87903e-10
-8.5969e-11
2.11113e-10
-8.64522e-11
2.34703e-10
-8.69149e-11
2.58676e-10
-8.7343e-11
2.83028e-10
-8.77281e-11
3.07747e-10
-8.80552e-11
3.32817e-10
-8.83073e-11
3.58216e-10
-8.84737e-11
3.83914e-10
-8.8541e-11
4.09885e-10
-8.84989e-11
4.36086e-10
-8.83286e-11
4.62472e-10
-8.80224e-11
4.88999e-10
-8.75721e-11
5.15611e-10
-8.6961e-11
5.42252e-10
-8.61852e-11
5.68868e-10
-8.52413e-11
5.95391e-10
-8.4115e-11
6.21758e-10
-8.28091e-11
6.47884e-10
-8.12913e-11
6.73714e-10
-7.96043e-11
6.99183e-10
-7.77275e-11
7.24195e-10
-7.56301e-11
7.48698e-10
-7.33667e-11
7.72614e-10
-7.09101e-11
7.95869e-10
-6.82635e-11
8.18396e-10
-6.54364e-11
8.40125e-10
-6.24346e-11
8.60987e-10
-5.92629e-11
8.80918e-10
-5.59306e-11
8.99858e-10
-5.24459e-11
9.17754e-10
-4.88237e-11
9.3455e-10
-4.50703e-11
9.50188e-10
-4.11898e-11
9.64622e-10
-3.71985e-11
9.77823e-10
-3.31262e-11
9.89746e-10
-2.89656e-11
1.00036e-09
-2.47306e-11
1.00963e-09
-2.0434e-11
1.01753e-09
-1.60955e-11
1.02406e-09
-1.17237e-11
1.02919e-09
-7.33207e-12
1.03293e-09
-2.92816e-12
1.03526e-09
1.46951e-12
1.03619e-09
5.84785e-12
1.0357e-09
1.01978e-11
1.03381e-09
1.45026e-11
1.03053e-09
1.87748e-11
1.02587e-09
2.2969e-11
1.01985e-09
2.70951e-11
1.0125e-09
3.11436e-11
1.00384e-09
3.51053e-11
9.93881e-10
3.89819e-11
9.82674e-10
4.27522e-11
9.70243e-10
4.64227e-11
9.56624e-10
4.99814e-11
9.41851e-10
5.34351e-11
9.25962e-10
5.67693e-11
9.08991e-10
5.99892e-11
8.90997e-10
6.30744e-11
8.71994e-10
6.60633e-11
8.52033e-10
6.8913e-11
8.31156e-10
7.164e-11
8.09401e-10
7.42467e-11
7.86808e-10
7.67307e-11
7.63416e-10
7.90963e-11
7.39268e-10
8.13379e-11
7.14402e-10
8.34607e-11
6.88855e-10
8.5467e-11
6.62669e-10
8.73584e-11
6.35878e-10
8.91428e-11
6.08519e-10
9.08153e-11
5.80627e-10
9.23816e-11
5.52237e-10
9.3845e-11
5.23385e-10
9.52059e-11
4.941e-10
9.64706e-11
4.64417e-10
9.76359e-11
4.34368e-10
9.87025e-11
4.03983e-10
9.96739e-11
3.73293e-10
1.00548e-10
3.42321e-10
1.0133e-10
3.11079e-10
1.02041e-10
2.79529e-10
1.02769e-10
2.47481e-10
1.03817e-10
2.14374e-10
1.05992e-10
1.78871e-10
1.11025e-10
1.38532e-10
1.21386e-10
9.06844e-11
1.37189e-10
3.75622e-11
1.45313e-10
9.85673e-11
-3.90278e-11
1.47964e-10
-9.20311e-11
2.12165e-10
-1.38548e-10
1.98025e-10
-1.77055e-10
1.74368e-10
-2.10546e-10
1.59031e-10
-2.41558e-10
1.51453e-10
-2.71447e-10
1.48023e-10
-3.00786e-10
1.4628e-10
-3.29773e-10
1.45064e-10
-3.5846e-10
1.43929e-10
-3.8685e-10
1.42728e-10
-4.14924e-10
1.41411e-10
-4.42655e-10
1.39966e-10
-4.70016e-10
1.38385e-10
-4.96982e-10
1.36663e-10
-5.23515e-10
1.34795e-10
-5.49586e-10
1.32778e-10
-5.75157e-10
1.30606e-10
-6.00196e-10
1.2828e-10
-6.24662e-10
1.25789e-10
-6.48519e-10
1.23135e-10
-6.71727e-10
1.20312e-10
-6.9425e-10
1.17319e-10
-7.16042e-10
1.1415e-10
-7.37062e-10
1.10807e-10
-7.5728e-10
1.07284e-10
-7.76644e-10
1.03584e-10
-7.95112e-10
9.97061e-11
-8.12647e-10
9.56496e-11
-8.29206e-10
9.14119e-11
-8.44747e-10
8.70054e-11
-8.59234e-10
8.24239e-11
-8.72634e-10
7.76773e-11
-8.849e-10
7.27604e-11
-8.96004e-10
6.76903e-11
-9.05915e-10
6.24731e-11
-9.14597e-10
5.7111e-11
-9.22018e-10
5.16125e-11
-9.28184e-10
4.60012e-11
-9.33041e-10
4.02675e-11
-9.3658e-10
3.44411e-11
-9.38787e-10
2.85259e-11
-9.39657e-10
2.25425e-11
-9.39178e-10
1.64995e-11
-9.37349e-10
1.04158e-11
-9.34175e-10
4.31134e-12
-9.29671e-10
-1.80667e-12
-9.23839e-10
-7.90852e-12
-9.16699e-10
-1.3982e-11
-9.0827e-10
-2.00065e-11
-8.98574e-10
-2.59765e-11
-8.87641e-10
-3.18628e-11
-8.75507e-10
-3.76382e-11
-8.62254e-10
-4.32736e-11
-8.47887e-10
-4.8792e-11
-8.32463e-10
-5.41507e-11
-8.16047e-10
-5.93282e-11
-7.98677e-10
-6.43488e-11
-7.80444e-10
-6.91313e-11
-7.61401e-10
-7.36996e-11
-7.41627e-10
-7.80403e-11
-7.21213e-10
-8.21204e-11
-7.00218e-10
-8.59498e-11
-6.78697e-10
-8.95415e-11
-6.56761e-10
-9.28259e-11
-6.34482e-10
-9.5838e-11
-6.11941e-10
-9.85666e-11
-5.89217e-10
-1.01013e-10
-5.66387e-10
-1.0318e-10
-5.43549e-10
-1.05043e-10
-5.20765e-10
-1.06628e-10
-4.98106e-10
-1.07949e-10
-4.75655e-10
-1.08989e-10
-4.53474e-10
-1.09769e-10
-4.31637e-10
-1.10298e-10
-4.10197e-10
-1.10589e-10
-3.8921e-10
-1.10654e-10
-3.68728e-10
-1.10509e-10
-3.48793e-10
-1.10171e-10
-3.29447e-10
-1.09654e-10
-3.10719e-10
-1.0898e-10
-2.92637e-10
-1.08168e-10
-2.75219e-10
-1.07238e-10
-2.58477e-10
-1.06209e-10
-2.42414e-10
-1.05104e-10
-2.2704e-10
-1.03932e-10
-2.12334e-10
-1.02733e-10
-1.98286e-10
-1.01516e-10
-1.84877e-10
-1.00303e-10
-1.72073e-10
-9.91105e-11
-1.59845e-10
-9.79595e-11
-1.48155e-10
-9.68669e-11
-1.36957e-10
-9.58481e-11
-1.26202e-10
-9.49172e-11
-1.1584e-10
-9.40881e-11
-1.05811e-10
-9.33705e-11
-9.60562e-11
-9.2776e-11
-8.65159e-11
-9.23097e-11
-7.71237e-11
-9.19788e-11
-6.78148e-11
-9.17862e-11
-5.85238e-11
-9.17337e-11
-4.91849e-11
-9.18209e-11
-3.97328e-11
-9.20452e-11
-3.01038e-11
-9.24026e-11
-2.02342e-11
-9.28872e-11
-1.00679e-11
-9.34914e-11
4.51787e-13
-9.4205e-11
1.13807e-11
-9.50152e-11
2.27624e-11
-9.59109e-11
3.46441e-11
-9.68763e-11
4.70608e-11
-9.78971e-11
6.0049e-11
-9.89549e-11
7.36318e-11
-1.00032e-10
8.78312e-11
-1.01111e-10
1.02664e-10
-1.02172e-10
1.18136e-10
-1.03195e-10
1.34247e-10
-1.04162e-10
1.50991e-10
-1.05047e-10
1.68358e-10
-1.05837e-10
1.86329e-10
-1.06508e-10
2.04877e-10
-1.07044e-10
2.23971e-10
-1.07419e-10
2.43575e-10
-1.07623e-10
2.63645e-10
-1.07638e-10
2.84132e-10
-1.07445e-10
3.04981e-10
-1.07031e-10
3.26135e-10
-1.06392e-10
3.47534e-10
-1.05511e-10
3.69106e-10
-1.04378e-10
3.90796e-10
-1.0298e-10
4.12526e-10
-1.01332e-10
4.34194e-10
-9.93934e-11
4.55787e-10
-9.72214e-11
4.77187e-10
-9.4766e-11
4.98325e-10
-9.20462e-11
5.19128e-10
-8.90654e-11
5.39528e-10
-8.58353e-11
5.59444e-10
-8.23507e-11
5.78808e-10
-7.8627e-11
5.97552e-10
-7.46762e-11
6.15606e-10
-7.05013e-11
6.32907e-10
-6.61276e-11
6.49399e-10
-6.15644e-11
6.65021e-10
-5.68148e-11
6.79746e-10
-5.19256e-11
6.935e-10
-4.68816e-11
7.06246e-10
-4.17128e-11
7.17932e-10
-3.6417e-11
7.2856e-10
-3.10608e-11
7.38076e-10
-2.56106e-11
7.46457e-10
-2.01023e-11
7.53682e-10
-1.45554e-11
7.59741e-10
-8.98539e-12
7.64625e-10
-3.41184e-12
7.68319e-10
2.15751e-12
7.70828e-10
7.69173e-12
7.72149e-10
1.31852e-11
7.72315e-10
1.86128e-11
7.71306e-10
2.39806e-11
7.69138e-10
2.92649e-11
7.65829e-10
3.44523e-11
7.614e-10
3.95336e-11
7.55879e-10
4.45005e-11
7.49283e-10
4.9346e-11
7.41639e-10
5.40637e-11
7.32974e-10
5.86439e-11
7.23338e-10
6.30693e-11
7.12744e-10
6.73621e-11
7.01226e-10
7.15064e-11
6.8881e-10
7.54912e-11
6.75564e-10
7.93083e-11
6.61495e-10
8.29816e-11
6.4664e-10
8.64934e-11
6.31038e-10
8.98455e-11
6.14729e-10
9.30359e-11
5.9774e-10
9.60809e-11
5.8011e-10
9.89624e-11
5.61874e-10
1.01692e-10
5.43065e-10
1.04272e-10
5.23714e-10
1.06704e-10
5.03853e-10
1.08999e-10
4.83515e-10
1.11149e-10
4.6273e-10
1.13162e-10
4.41526e-10
1.15044e-10
4.19932e-10
1.16795e-10
3.97977e-10
1.18422e-10
3.75685e-10
1.19923e-10
3.53082e-10
1.21303e-10
3.30195e-10
1.2256e-10
3.07043e-10
1.23699e-10
2.83644e-10
1.2473e-10
2.59994e-10
1.25694e-10
2.36037e-10
1.26729e-10
2.11564e-10
1.28296e-10
1.85979e-10
1.31584e-10
1.57896e-10
1.39115e-10
1.24732e-10
1.54549e-10
8.34596e-11
1.78449e-10
3.54652e-11
1.93312e-10
1.34034e-10
-3.77246e-11
1.85686e-10
-8.75477e-11
2.61984e-10
-1.30073e-10
2.40547e-10
-1.64355e-10
2.08647e-10
-1.93605e-10
1.88278e-10
-2.20414e-10
1.78259e-10
-2.46141e-10
1.73748e-10
-2.71348e-10
1.71486e-10
-2.9623e-10
1.69944e-10
-3.20834e-10
1.68533e-10
-3.45163e-10
1.67058e-10
-3.69203e-10
1.65451e-10
-3.92931e-10
1.63694e-10
-4.16322e-10
1.61776e-10
-4.39351e-10
1.59691e-10
-4.61989e-10
1.57432e-10
-4.84206e-10
1.54993e-10
-5.05972e-10
1.5237e-10
-5.2725e-10
1.49556e-10
-5.48011e-10
1.46547e-10
-5.68215e-10
1.43336e-10
-5.87828e-10
1.39922e-10
-6.06812e-10
1.36299e-10
-6.25128e-10
1.32461e-10
-6.42736e-10
1.2841e-10
-6.59612e-10
1.24156e-10
-6.75702e-10
1.1967e-10
-6.90968e-10
1.14968e-10
-7.05368e-10
1.10047e-10
-7.18873e-10
1.04913e-10
-7.31438e-10
9.95678e-11
-7.43029e-10
9.40126e-11
-7.53607e-10
8.82526e-11
-7.63145e-10
8.22952e-11
-7.71604e-10
7.61459e-11
-7.78954e-10
6.98195e-11
-7.8517e-10
6.33228e-11
-7.90233e-10
5.66717e-11
-7.94098e-10
4.98618e-11
-7.96768e-10
4.29324e-11
-7.98219e-10
3.58876e-11
-7.98438e-10
2.87403e-11
-7.97418e-10
2.15187e-11
-7.95152e-10
1.42286e-11
-7.91642e-10
6.90152e-12
-7.8689e-10
-4.44574e-13
-7.80924e-10
-7.77565e-12
-7.73739e-10
-1.50966e-11
-7.65357e-10
-2.23667e-11
-7.55801e-10
-2.95649e-11
-7.45118e-10
-3.6662e-11
-7.33335e-10
-4.36467e-11
-7.20487e-10
-5.04871e-11
-7.06606e-10
-5.71547e-11
-6.91761e-10
-6.36373e-11
-6.75989e-10
-6.9923e-11
-6.5935e-10
-7.59661e-11
-6.41968e-10
-8.17309e-11
-6.23847e-10
-8.72514e-11
-6.05079e-10
-9.24661e-11
-5.85727e-10
-9.73919e-11
-5.65877e-10
-1.01968e-10
-5.45596e-10
-1.0623e-10
-5.2503e-10
-1.10105e-10
-5.04197e-10
-1.13656e-10
-4.83199e-10
-1.16834e-10
-4.62128e-10
-1.19635e-10
-4.41038e-10
-1.221e-10
-4.20064e-10
-1.2415e-10
-3.99252e-10
-1.25852e-10
-3.78685e-10
-1.27192e-10
-3.58466e-10
-1.28164e-10
-3.38646e-10
-1.28807e-10
-3.19299e-10
-1.29113e-10
-3.00489e-10
-1.29106e-10
-2.82282e-10
-1.28793e-10
-2.64732e-10
-1.28202e-10
-2.47887e-10
-1.27351e-10
-2.31793e-10
-1.26263e-10
-2.16484e-10
-1.24962e-10
-2.0199e-10
-1.23473e-10
-1.88335e-10
-1.21821e-10
-1.7553e-10
-1.20041e-10
-1.63585e-10
-1.18152e-10
-1.52504e-10
-1.16184e-10
-1.42268e-10
-1.14166e-10
-1.32869e-10
-1.1213e-10
-1.24285e-10
-1.101e-10
-1.16484e-10
-1.08102e-10
-1.0943e-10
-1.06164e-10
-1.03078e-10
-1.04311e-10
-9.73792e-11
-1.02565e-10
-9.22783e-11
-1.00949e-10
-8.77145e-11
-9.9481e-11
-8.36228e-11
-9.81798e-11
-7.99328e-11
-9.70606e-11
-7.65727e-11
-9.61364e-11
-7.34667e-11
-9.54165e-11
-7.05371e-11
-9.49092e-11
-6.77047e-11
-9.46195e-11
-6.48899e-11
-9.45492e-11
-6.20133e-11
-9.46983e-11
-5.89958e-11
-9.50636e-11
-5.57599e-11
-9.56393e-11
-5.22299e-11
-9.64174e-11
-4.8334e-11
-9.73866e-11
-4.40036e-11
-9.8534e-11
-3.91727e-11
-9.98443e-11
-3.37826e-11
-1.01299e-10
-2.77777e-11
-1.02879e-10
-2.111e-11
-1.04562e-10
-1.37358e-11
-1.06325e-10
-5.61898e-12
-1.08145e-10
3.26943e-12
-1.09996e-10
1.29514e-11
-1.11851e-10
2.34426e-11
-1.13683e-10
3.47489e-11
-1.15464e-10
4.68755e-11
-1.17169e-10
5.981e-11
-1.18767e-10
7.35389e-11
-1.20231e-10
8.80381e-11
-1.21537e-10
1.03285e-10
-1.2266e-10
1.19239e-10
-1.23571e-10
1.35859e-10
-1.24252e-10
1.53106e-10
-1.24686e-10
1.70905e-10
-1.24825e-10
1.89212e-10
-1.24694e-10
2.0796e-10
-1.24254e-10
2.27081e-10
-1.23496e-10
2.46523e-10
-1.2242e-10
2.66182e-10
-1.20991e-10
2.86032e-10
-1.19243e-10
3.05947e-10
-1.17137e-10
3.2586e-10
-1.14679e-10
3.45695e-10
-1.11881e-10
3.65377e-10
-1.08748e-10
3.84821e-10
-1.05281e-10
4.0396e-10
-1.0149e-10
4.22714e-10
-9.73823e-11
4.41005e-10
-9.2968e-11
4.5878e-10
-8.82781e-11
4.75954e-10
-8.33029e-11
4.92465e-10
-7.8075e-11
5.08283e-10
-7.26327e-11
5.23305e-10
-6.69471e-11
5.37503e-10
-6.10783e-11
5.50831e-10
-5.50397e-11
5.63256e-10
-4.88393e-11
5.74718e-10
-4.25198e-11
5.852e-10
-3.60898e-11
5.94679e-10
-2.95763e-11
6.03124e-10
-2.29965e-11
6.10519e-10
-1.63754e-11
6.1685e-10
-9.7396e-12
6.22118e-10
-3.10723e-12
6.26301e-10
3.5117e-12
6.29412e-10
1.00759e-11
6.3145e-10
1.65761e-11
6.32424e-10
2.30064e-11
6.32346e-10
2.93418e-11
6.31227e-10
3.55696e-11
6.29087e-10
4.16715e-11
6.2595e-10
4.76354e-11
6.21841e-10
5.34529e-11
6.16771e-10
5.91339e-11
6.10778e-10
6.46367e-11
6.03881e-10
6.99675e-11
5.96115e-10
7.51291e-11
5.87521e-10
8.01007e-11
5.78123e-10
8.48904e-11
5.67942e-10
8.94882e-11
5.57022e-10
9.3899e-11
5.45394e-10
9.81175e-11
5.33089e-10
1.02146e-10
5.20138e-10
1.05982e-10
5.06594e-10
1.0962e-10
4.92469e-10
1.13082e-10
4.77796e-10
1.16359e-10
4.62607e-10
1.19455e-10
4.46933e-10
1.22374e-10
4.3081e-10
1.25116e-10
4.14258e-10
1.27696e-10
3.97304e-10
1.30111e-10
3.79979e-10
1.32364e-10
3.62305e-10
1.34464e-10
3.44311e-10
1.36411e-10
3.26012e-10
1.38218e-10
3.07441e-10
1.39872e-10
2.88611e-10
1.41388e-10
2.69541e-10
1.42768e-10
2.50242e-10
1.44031e-10
2.30709e-10
1.45228e-10
2.1088e-10
1.46559e-10
1.90546e-10
1.48628e-10
1.69122e-10
1.53008e-10
1.45229e-10
1.63014e-10
1.16251e-10
1.83534e-10
7.89513e-11
2.15747e-10
3.41391e-11
2.38128e-10
1.68176e-10
-3.73189e-11
2.23003e-10
-8.5888e-11
3.10552e-10
-1.26724e-10
2.81381e-10
-1.59182e-10
2.41103e-10
-1.86613e-10
2.15708e-10
-2.11649e-10
2.03294e-10
-2.35643e-10
1.97742e-10
-2.59154e-10
1.94996e-10
-2.82363e-10
1.93152e-10
-3.05314e-10
1.91484e-10
-3.28007e-10
1.89749e-10
-3.50425e-10
1.87868e-10
-3.72548e-10
1.85816e-10
-3.94353e-10
1.83579e-10
-4.15814e-10
1.81149e-10
-4.36903e-10
1.78518e-10
-4.57592e-10
1.7568e-10
-4.77851e-10
1.72625e-10
-4.97646e-10
1.69346e-10
-5.16944e-10
1.65841e-10
-5.35713e-10
1.62102e-10
-5.53919e-10
1.58123e-10
-5.71523e-10
1.53899e-10
-5.88484e-10
1.49418e-10
-6.04771e-10
1.44692e-10
-6.20333e-10
1.39714e-10
-6.35142e-10
1.34476e-10
-6.49159e-10
1.28981e-10
-6.6235e-10
1.23236e-10
-6.74661e-10
1.17221e-10
-6.86062e-10
1.10966e-10
-6.96516e-10
1.04464e-10
-7.05995e-10
9.77286e-11
-7.14463e-10
9.07594e-11
-7.21869e-10
8.35481e-11
-7.28199e-10
7.61453e-11
-7.3342e-10
6.85393e-11
-7.375e-10
6.07477e-11
-7.40452e-10
5.28091e-11
-7.4222e-10
4.46961e-11
-7.42793e-10
3.64564e-11
-7.42165e-10
2.81088e-11
-7.40324e-10
1.96736e-11
-7.3727e-10
1.11722e-11
-7.33002e-10
2.6304e-12
-7.27524e-10
-5.92549e-12
-7.20839e-10
-1.44624e-11
-7.12976e-10
-2.29608e-11
-7.03954e-10
-3.13905e-11
-6.93797e-10
-3.97234e-11
-6.82534e-10
-4.79251e-11
-6.70208e-10
-5.59735e-11
-6.56855e-10
-6.38401e-11
-6.4252e-10
-7.14907e-11
-6.27252e-10
-7.89054e-11
-6.11133e-10
-8.6042e-11
-5.94209e-10
-9.28899e-11
-5.76521e-10
-9.94189e-11
-5.58177e-10
-1.05596e-10
-5.39225e-10
-1.11418e-10
-5.19794e-10
-1.16822e-10
-4.99912e-10
-1.21849e-10
-4.79697e-10
-1.26444e-10
-4.59199e-10
-1.30602e-10
-4.3853e-10
-1.34325e-10
-4.17774e-10
-1.37589e-10
-3.97e-10
-1.40408e-10
-3.7637e-10
-1.42728e-10
-3.55885e-10
-1.44634e-10
-3.35668e-10
-1.46067e-10
-3.15799e-10
-1.47059e-10
-2.96351e-10
-1.4761e-10
-2.77413e-10
-1.47743e-10
-2.59058e-10
-1.47465e-10
-2.41337e-10
-1.46824e-10
-2.24331e-10
-1.45797e-10
-2.08092e-10
-1.44438e-10
-1.92666e-10
-1.42775e-10
-1.78103e-10
-1.40824e-10
-1.64438e-10
-1.38624e-10
-1.517e-10
-1.36208e-10
-1.39906e-10
-1.33613e-10
-1.29081e-10
-1.30864e-10
-1.19221e-10
-1.2801e-10
-1.10324e-10
-1.25079e-10
-1.0238e-10
-1.22108e-10
-9.53705e-11
-1.19137e-10
-8.9267e-11
-1.16202e-10
-8.4038e-11
-1.13331e-10
-7.96397e-11
-1.10563e-10
-7.60223e-11
-1.07928e-10
-7.31302e-11
-1.05458e-10
-7.09008e-11
-1.03179e-10
-6.92673e-11
-1.01116e-10
-6.8156e-11
-9.92931e-11
-6.74893e-11
-9.7729e-11
-6.71866e-11
-9.64407e-11
-6.71635e-11
-9.54415e-11
-6.73343e-11
-9.47405e-11
-6.76108e-11
-9.43448e-11
-6.79046e-11
-9.4257e-11
-6.81275e-11
-9.44766e-11
-6.8192e-11
-9.49998e-11
-6.80117e-11
-9.58197e-11
-6.75026e-11
-9.69258e-11
-6.6585e-11
-9.83029e-11
-6.51822e-11
-9.99352e-11
-6.32217e-11
-1.01802e-10
-6.06358e-11
-1.03882e-10
-5.73639e-11
-1.06148e-10
-5.3351e-11
-1.08573e-10
-4.85479e-11
-1.11127e-10
-4.29133e-11
-1.13778e-10
-3.64132e-11
-1.16494e-10
-2.90215e-11
-1.1924e-10
-2.07192e-11
-1.21983e-10
-1.14953e-11
-1.24685e-10
-1.34989e-12
-1.27311e-10
9.71339e-12
-1.29825e-10
2.16818e-11
-1.32194e-10
3.45345e-11
-1.34384e-10
4.82412e-11
-1.36359e-10
6.27662e-11
-1.38088e-10
7.80646e-11
-1.39542e-10
9.40772e-11
-1.40691e-10
1.10788e-10
-1.41528e-10
1.28102e-10
-1.42e-10
1.45957e-10
-1.42105e-10
1.64287e-10
-1.41823e-10
1.83019e-10
-1.41151e-10
2.02084e-10
-1.40057e-10
2.21396e-10
-1.38556e-10
2.4085e-10
-1.36593e-10
2.60401e-10
-1.34233e-10
2.7996e-10
-1.31442e-10
2.99438e-10
-1.28229e-10
3.18757e-10
-1.24601e-10
3.37833e-10
-1.20567e-10
3.5659e-10
-1.1614e-10
3.74957e-10
-1.11336e-10
3.92847e-10
-1.06168e-10
4.1021e-10
-1.00665e-10
4.26966e-10
-9.48301e-11
4.43038e-10
-8.87041e-11
4.58406e-10
-8.23129e-11
4.72984e-10
-7.56543e-11
4.86724e-10
-6.87774e-11
4.9962e-10
-6.17317e-11
5.11589e-10
-5.44847e-11
5.22613e-10
-4.71092e-11
5.32664e-10
-3.96232e-11
5.41726e-10
-3.20541e-11
5.49778e-10
-2.44225e-11
5.56797e-10
-1.67536e-11
5.62776e-10
-9.08316e-12
5.67718e-10
-1.42978e-12
5.71611e-10
6.18333e-12
5.74458e-10
1.37275e-11
5.76274e-10
2.11884e-11
5.7707e-10
2.85426e-11
5.7686e-10
3.57764e-11
5.7566e-10
4.28685e-11
5.73485e-10
4.9808e-11
5.70357e-10
5.65813e-11
5.6633e-10
6.31618e-11
5.61404e-10
6.95656e-11
5.55609e-10
7.57654e-11
5.48972e-10
8.17697e-11
5.41527e-10
8.75482e-11
5.33306e-10
9.31115e-11
5.24339e-10
9.84539e-11