/*--------------------------------*- C++ -*----------------------------------*\
| =========                 |                                                 |
| \\      /  F ield         | OpenFOAM: The Open Source CFD Toolbox           |
|  \\    /   O peration     | Version:  2412                                  |
|   \\  /    A nd           | Website:  www.openfoam.com                      |
|    \\/     M anipulation  |                                                 |
\*---------------------------------------------------------------------------*/
FoamFile
{
    version     2.0;
    format      ascii;
    arch        "LSB;label=32;scalar=64";
    class       volVectorField;
    location    "1.7";
    object      U;
}
// * * * * * * * * * * * * * * * * * * * * * * * * * * * * * * * * * * * * * //

dimensions      [0 1 -1 0 0 0 0];

internalField   nonuniform List<vector> 
40000
(
(-8.60496e-06 9.78969e-06 0)
(-4.45414e-05 1.31219e-05 0)
(-8.64169e-05 1.34974e-05 0)
(-0.00012602 1.31315e-05 0)
(-0.000163353 1.29066e-05 0)
(-0.000199502 1.28237e-05 0)
(-0.00023517 1.27901e-05 0)
(-0.000270617 1.27597e-05 0)
(-0.000305897 1.27172e-05 0)
(-0.000340996 1.26605e-05 0)
(-0.000375881 1.25906e-05 0)
(-0.000410521 1.25095e-05 0)
(-0.000444884 1.24174e-05 0)
(-0.000478937 1.23148e-05 0)
(-0.000512651 1.22014e-05 0)
(-0.000545992 1.20772e-05 0)
(-0.00057893 1.19417e-05 0)
(-0.000611431 1.17948e-05 0)
(-0.000643461 1.1636e-05 0)
(-0.000674986 1.14652e-05 0)
(-0.00070597 1.1282e-05 0)
(-0.000736376 1.10857e-05 0)
(-0.000766169 1.08761e-05 0)
(-0.000795311 1.0653e-05 0)
(-0.000823762 1.04161e-05 0)
(-0.000851483 1.01646e-05 0)
(-0.000878436 9.89909e-06 0)
(-0.000904581 9.6188e-06 0)
(-0.000929877 9.32379e-06 0)
(-0.000954284 9.01416e-06 0)
(-0.000977763 8.68931e-06 0)
(-0.00100027 8.34996e-06 0)
(-0.00102178 7.99543e-06 0)
(-0.00104223 7.62617e-06 0)
(-0.0010616 7.24256e-06 0)
(-0.00107986 6.84409e-06 0)
(-0.00109695 6.43252e-06 0)
(-0.00111286 6.00745e-06 0)
(-0.00112754 5.56886e-06 0)
(-0.00114096 5.11849e-06 0)
(-0.0011531 4.65583e-06 0)
(-0.00116393 4.18261e-06 0)
(-0.00117343 3.69913e-06 0)
(-0.00118157 3.20616e-06 0)
(-0.00118834 2.70485e-06 0)
(-0.00119371 2.19534e-06 0)
(-0.00119768 1.67721e-06 0)
(-0.00120023 1.15435e-06 0)
(-0.00120136 6.31662e-07 0)
(-0.00120103 1.01036e-07 0)
(-0.00119927 -4.28931e-07 0)
(-0.00119611 -9.53981e-07 0)
(-0.00119153 -1.47488e-06 0)
(-0.00118556 -1.9925e-06 0)
(-0.00117821 -2.5041e-06 0)
(-0.00116951 -3.0088e-06 0)
(-0.00115947 -3.50653e-06 0)
(-0.00114813 -3.99538e-06 0)
(-0.0011355 -4.47282e-06 0)
(-0.00112164 -4.93903e-06 0)
(-0.00110657 -5.39214e-06 0)
(-0.00109033 -5.83089e-06 0)
(-0.00107296 -6.2541e-06 0)
(-0.00105452 -6.66127e-06 0)
(-0.00103505 -7.05106e-06 0)
(-0.00101459 -7.42409e-06 0)
(-0.000993206 -7.77709e-06 0)
(-0.000970944 -8.11125e-06 0)
(-0.000947857 -8.42588e-06 0)
(-0.000924 -8.72011e-06 0)
(-0.000899428 -8.99477e-06 0)
(-0.000874195 -9.24908e-06 0)
(-0.000848356 -9.4833e-06 0)
(-0.000821964 -9.6977e-06 0)
(-0.000795073 -9.89275e-06 0)
(-0.000767733 -1.00685e-05 0)
(-0.000739995 -1.0226e-05 0)
(-0.000711907 -1.03658e-05 0)
(-0.000683513 -1.04882e-05 0)
(-0.000654858 -1.05945e-05 0)
(-0.000625983 -1.06857e-05 0)
(-0.000596924 -1.07628e-05 0)
(-0.000567718 -1.08266e-05 0)
(-0.000538396 -1.08782e-05 0)
(-0.000508988 -1.09187e-05 0)
(-0.000479519 -1.09505e-05 0)
(-0.000450011 -1.09731e-05 0)
(-0.000420484 -1.09884e-05 0)
(-0.000390956 -1.09973e-05 0)
(-0.000361438 -1.10012e-05 0)
(-0.00033194 -1.10012e-05 0)
(-0.000302471 -1.09981e-05 0)
(-0.000273036 -1.09928e-05 0)
(-0.000243637 -1.09865e-05 0)
(-0.000214274 -1.098e-05 0)
(-0.000184947 -1.09735e-05 0)
(-0.000155653 -1.09678e-05 0)
(-0.000126387 -1.09634e-05 0)
(-9.71424e-05 -1.09606e-05 0)
(-6.79144e-05 -1.09598e-05 0)
(-3.86961e-05 -1.09609e-05 0)
(-9.48037e-06 -1.09635e-05 0)
(1.97397e-05 -1.09677e-05 0)
(4.89705e-05 -1.09733e-05 0)
(7.82169e-05 -1.09799e-05 0)
(0.000107483 -1.09869e-05 0)
(0.000136772 -1.09938e-05 0)
(0.000166085 -1.09998e-05 0)
(0.00019542 -1.10043e-05 0)
(0.000224775 -1.10062e-05 0)
(0.000254143 -1.10045e-05 0)
(0.000283517 -1.09986e-05 0)
(0.000312886 -1.09871e-05 0)
(0.000342235 -1.09686e-05 0)
(0.000371547 -1.09422e-05 0)
(0.000400802 -1.09071e-05 0)
(0.000429976 -1.08619e-05 0)
(0.000459042 -1.08053e-05 0)
(0.000487972 -1.07364e-05 0)
(0.000516732 -1.06541e-05 0)
(0.000545286 -1.05574e-05 0)
(0.000573597 -1.04457e-05 0)
(0.000601623 -1.03175e-05 0)
(0.000629323 -1.01721e-05 0)
(0.000656651 -1.00087e-05 0)
(0.00068356 -9.8271e-06 0)
(0.000710002 -9.62656e-06 0)
(0.000735927 -9.40695e-06 0)
(0.000761284 -9.16726e-06 0)
(0.000786019 -8.90769e-06 0)
(0.000810082 -8.62986e-06 0)
(0.000833421 -8.33307e-06 0)
(0.000855981 -8.01653e-06 0)
(0.000877715 -7.68168e-06 0)
(0.000898572 -7.32923e-06 0)
(0.000918503 -6.95983e-06 0)
(0.000937461 -6.57331e-06 0)
(0.0009554 -6.17156e-06 0)
(0.000972278 -5.75514e-06 0)
(0.000988055 -5.32533e-06 0)
(0.00100269 -4.88302e-06 0)
(0.00101616 -4.42895e-06 0)
(0.00102841 -3.9656e-06 0)
(0.00103944 -3.49384e-06 0)
(0.0010492 -3.01441e-06 0)
(0.00105769 -2.52916e-06 0)
(0.00106488 -2.03969e-06 0)
(0.00107076 -1.54734e-06 0)
(0.00107532 -1.0501e-06 0)
(0.00107854 -5.53014e-07 0)
(0.00108043 -5.25826e-08 0)
(0.00108098 4.50625e-07 0)
(0.00108018 9.40487e-07 0)
(0.00107804 1.42835e-06 0)
(0.00107459 1.90975e-06 0)
(0.00106984 2.38288e-06 0)
(0.0010638 2.84656e-06 0)
(0.00105649 3.30173e-06 0)
(0.00104794 3.74646e-06 0)
(0.00103817 4.18074e-06 0)
(0.0010272 4.60377e-06 0)
(0.00101507 5.01367e-06 0)
(0.00100179 5.4118e-06 0)
(0.000987404 5.79718e-06 0)
(0.000971944 6.1691e-06 0)
(0.000955443 6.5271e-06 0)
(0.000937936 6.87179e-06 0)
(0.000919456 7.20236e-06 0)
(0.000900045 7.51887e-06 0)
(0.000879735 7.8222e-06 0)
(0.000858564 8.11142e-06 0)
(0.000836568 8.38762e-06 0)
(0.000813785 8.64973e-06 0)
(0.000790251 8.89823e-06 0)
(0.000766 9.13319e-06 0)
(0.000741068 9.35543e-06 0)
(0.000715492 9.56472e-06 0)
(0.000689305 9.76131e-06 0)
(0.000662541 9.94643e-06 0)
(0.000635234 1.01193e-05 0)
(0.000607416 1.02807e-05 0)
(0.00057912 1.04306e-05 0)
(0.000550376 1.05699e-05 0)
(0.000521214 1.06994e-05 0)
(0.000491664 1.08188e-05 0)
(0.000461755 1.09283e-05 0)
(0.000431517 1.1028e-05 0)
(0.000400977 1.11185e-05 0)
(0.000370162 1.11988e-05 0)
(0.000339102 1.12688e-05 0)
(0.000307829 1.13274e-05 0)
(0.000276375 1.13724e-05 0)
(0.000244774 1.14019e-05 0)
(0.000213045 1.14174e-05 0)
(0.000181139 1.14348e-05 0)
(0.000148794 1.1503e-05 0)
(0.000115308 1.17055e-05 0)
(7.95299e-05 1.20236e-05 0)
(4.141e-05 1.17296e-05 0)
(8.26032e-06 8.21639e-06 0)
(-1.28119e-05 4.67124e-05 0)
(-7.04578e-05 7.04947e-05 0)
(-0.000130701 7.03039e-05 0)
(-0.000185197 6.57214e-05 0)
(-0.000234555 6.25537e-05 0)
(-0.000281183 6.10283e-05 0)
(-0.0003266 6.03529e-05 0)
(-0.000371453 5.99762e-05 0)
(-0.000415954 5.96536e-05 0)
(-0.000460144 5.93015e-05 0)
(-0.000504004 5.88976e-05 0)
(-0.0005475 5.84396e-05 0)
(-0.000590592 5.79259e-05 0)
(-0.000633241 5.73584e-05 0)
(-0.000675402 5.67371e-05 0)
(-0.000717034 5.60601e-05 0)
(-0.000758094 5.53262e-05 0)
(-0.000798537 5.4535e-05 0)
(-0.000838317 5.36852e-05 0)
(-0.00087739 5.27755e-05 0)
(-0.000915704 5.18053e-05 0)
(-0.000953214 5.07724e-05 0)
(-0.00098987 4.96758e-05 0)
(-0.00102562 4.85149e-05 0)
(-0.00106042 4.72877e-05 0)
(-0.00109422 4.59929e-05 0)
(-0.00112695 4.4634e-05 0)
(-0.00115858 4.32075e-05 0)
(-0.00118905 4.17139e-05 0)
(-0.00121831 4.01529e-05 0)
(-0.0012463 3.85233e-05 0)
(-0.00127299 3.68303e-05 0)
(-0.00129831 3.50716e-05 0)
(-0.00132223 3.32488e-05 0)
(-0.0013447 3.1364e-05 0)
(-0.00136566 2.94183e-05 0)
(-0.00138509 2.74162e-05 0)
(-0.00140293 2.53577e-05 0)
(-0.00141916 2.32429e-05 0)
(-0.00143373 2.10835e-05 0)
(-0.00144661 1.88782e-05 0)
(-0.00145779 1.6631e-05 0)
(-0.00146722 1.43461e-05 0)
(-0.0014749 1.20276e-05 0)
(-0.0014808 9.68263e-06 0)
(-0.00148492 7.31276e-06 0)
(-0.00148723 4.91751e-06 0)
(-0.00148773 2.51522e-06 0)
(-0.00148643 1.15049e-07 0)
(-0.00148336 -2.28869e-06 0)
(-0.00147851 -4.68347e-06 0)
(-0.0014719 -7.06077e-06 0)
(-0.00146354 -9.41575e-06 0)
(-0.00145347 -1.17468e-05 0)
(-0.0014417 -1.40406e-05 0)
(-0.00142829 -1.6296e-05 0)
(-0.00141326 -1.85098e-05 0)
(-0.00139667 -2.0674e-05 0)
(-0.00137855 -2.27818e-05 0)
(-0.00135896 -2.48319e-05 0)
(-0.00133796 -2.68139e-05 0)
(-0.00131561 -2.87257e-05 0)
(-0.00129196 -3.05612e-05 0)
(-0.0012671 -3.23199e-05 0)
(-0.00124108 -3.3994e-05 0)
(-0.00121398 -3.5582e-05 0)
(-0.00118586 -3.70837e-05 0)
(-0.0011568 -3.84967e-05 0)
(-0.00112689 -3.98182e-05 0)
(-0.00109618 -4.10479e-05 0)
(-0.00106476 -4.21874e-05 0)
(-0.0010327 -4.32333e-05 0)
(-0.00100008 -4.41887e-05 0)
(-0.000966957 -4.50556e-05 0)
(-0.000933407 -4.58362e-05 0)
(-0.000899498 -4.65314e-05 0)
(-0.000865294 -4.7145e-05 0)
(-0.000830853 -4.76803e-05 0)
(-0.000796233 -4.81409e-05 0)
(-0.000761489 -4.85319e-05 0)
(-0.000726669 -4.88565e-05 0)
(-0.000691818 -4.91203e-05 0)
(-0.000656975 -4.93281e-05 0)
(-0.000622178 -4.94845e-05 0)
(-0.000587459 -4.95952e-05 0)
(-0.00055284 -4.96701e-05 0)
(-0.000518342 -4.97053e-05 0)
(-0.000483987 -4.97115e-05 0)
(-0.000449784 -4.96938e-05 0)
(-0.000415741 -4.9658e-05 0)
(-0.000381861 -4.96082e-05 0)
(-0.000348142 -4.95471e-05 0)
(-0.000314581 -4.94803e-05 0)
(-0.00028117 -4.9412e-05 0)
(-0.000247897 -4.93456e-05 0)
(-0.000214748 -4.92837e-05 0)
(-0.000181707 -4.92292e-05 0)
(-0.000148756 -4.91842e-05 0)
(-0.000115874 -4.91498e-05 0)
(-8.30396e-05 -4.91271e-05 0)
(-5.02316e-05 -4.91163e-05 0)
(-1.74281e-05 -4.91173e-05 0)
(1.53929e-05 -4.91291e-05 0)
(4.82525e-05 -4.91505e-05 0)
(8.11704e-05 -4.91802e-05 0)
(0.000114165 -4.92167e-05 0)
(0.000147252 -4.92565e-05 0)
(0.000180446 -4.92964e-05 0)
(0.000213756 -4.9333e-05 0)
(0.000247192 -4.93625e-05 0)
(0.000280757 -4.93809e-05 0)
(0.000314451 -4.93835e-05 0)
(0.00034827 -4.93655e-05 0)
(0.000382207 -4.93219e-05 0)
(0.000416247 -4.92467e-05 0)
(0.000450375 -4.91368e-05 0)
(0.000484567 -4.89873e-05 0)
(0.000518797 -4.87913e-05 0)
(0.000553034 -4.8544e-05 0)
(0.000587243 -4.82409e-05 0)
(0.000621381 -4.78755e-05 0)
(0.000655405 -4.74456e-05 0)
(0.000689268 -4.69463e-05 0)
(0.000722916 -4.63733e-05 0)
(0.000756295 -4.57226e-05 0)
(0.000789346 -4.4992e-05 0)
(0.000822005 -4.41776e-05 0)
(0.00085421 -4.32803e-05 0)
(0.000885895 -4.22972e-05 0)
(0.000916987 -4.12234e-05 0)
(0.000947423 -4.00665e-05 0)
(0.000977131 -3.88223e-05 0)
(0.00100604 -3.74882e-05 0)
(0.00103407 -3.60738e-05 0)
(0.00106117 -3.45768e-05 0)
(0.00108727 -3.29989e-05 0)
(0.0011123 -3.13416e-05 0)
(0.00113619 -2.96108e-05 0)
(0.00115888 -2.78098e-05 0)
(0.00118031 -2.59425e-05 0)
(0.00120043 -2.40127e-05 0)
(0.00121919 -2.20251e-05 0)
(0.00123653 -1.99877e-05 0)
(0.00125241 -1.79037e-05 0)
(0.00126679 -1.57773e-05 0)
(0.00127964 -1.36185e-05 0)
(0.00129092 -1.14322e-05 0)
(0.00130062 -9.22196e-06 0)
(0.00130869 -6.98666e-06 0)
(0.00131513 -4.74327e-06 0)
(0.00131992 -2.49247e-06 0)
(0.00132306 -2.37258e-07 0)
(0.00132456 2.00529e-06 0)
(0.00132438 4.24265e-06 0)
(0.00132255 6.461e-06 0)
(0.00131906 8.65198e-06 0)
(0.00131394 1.08132e-05 0)
(0.0013072 1.29461e-05 0)
(0.00129886 1.50384e-05 0)
(0.00128895 1.70895e-05 0)
(0.00127749 1.90972e-05 0)
(0.00126451 2.10563e-05 0)
(0.00125004 2.29664e-05 0)
(0.00123413 2.48243e-05 0)
(0.0012168 2.66265e-05 0)
(0.00119811 2.83715e-05 0)
(0.00117808 3.00625e-05 0)
(0.00115676 3.1691e-05 0)
(0.0011342 3.32589e-05 0)
(0.00111045 3.47706e-05 0)
(0.00108553 3.62199e-05 0)
(0.00105951 3.7605e-05 0)
(0.00103243 3.89304e-05 0)
(0.00100433 4.01948e-05 0)
(0.000975254 4.13983e-05 0)
(0.000945256 4.25428e-05 0)
(0.000914375 4.3628e-05 0)
(0.000882661 4.46539e-05 0)
(0.000850154 4.56216e-05 0)
(0.000816895 4.65336e-05 0)
(0.000782932 4.73916e-05 0)
(0.000748305 4.81954e-05 0)
(0.000713057 4.89472e-05 0)
(0.000677223 4.96482e-05 0)
(0.000640843 5.02997e-05 0)
(0.000603959 5.09027e-05 0)
(0.000566609 5.14571e-05 0)
(0.000528827 5.19631e-05 0)
(0.000490651 5.24198e-05 0)
(0.00045212 5.2826e-05 0)
(0.000413271 5.31794e-05 0)
(0.000374141 5.34797e-05 0)
(0.00033475 5.37449e-05 0)
(0.000295064 5.40578e-05 0)
(0.000254873 5.46733e-05 0)
(0.000213518 5.61678e-05 0)
(0.000169455 5.93611e-05 0)
(0.000120205 6.40255e-05 0)
(6.49458e-05 6.4406e-05 0)
(1.18767e-05 4.14608e-05 0)
(-1.33175e-05 8.88861e-05 0)
(-7.12267e-05 0.000131309 0)
(-0.000127752 0.00012669 0)
(-0.000176696 0.000115011 0)
(-0.000219338 0.000107208 0)
(-0.000258644 0.000103361 0)
(-0.000296446 0.000101624 0)
(-0.000333552 0.000100711 0)
(-0.000370254 0.000100026 0)
(-0.000406631 9.93456e-05 0)
(-0.000442686 9.85979e-05 0)
(-0.0004784 9.77661e-05 0)
(-0.000513741 9.68433e-05 0)
(-0.000548674 9.58272e-05 0)
(-0.000583165 9.47177e-05 0)
(-0.000617177 9.35116e-05 0)
(-0.000650673 9.22066e-05 0)
(-0.000683611 9.08019e-05 0)
(-0.000715951 8.92946e-05 0)
(-0.000747652 8.76827e-05 0)
(-0.00077867 8.59647e-05 0)
(-0.000808961 8.41375e-05 0)
(-0.000838483 8.21997e-05 0)
(-0.000867191 8.01503e-05 0)
(-0.000895038 7.79865e-05 0)
(-0.000921973 7.5701e-05 0)
(-0.000947952 7.33084e-05 0)
(-0.000972934 7.07995e-05 0)
(-0.000996868 6.81736e-05 0)
(-0.00101971 6.54323e-05 0)
(-0.00104141 6.25777e-05 0)
(-0.00106193 5.96104e-05 0)
(-0.00108122 5.65324e-05 0)
(-0.00109924 5.3346e-05 0)
(-0.00111596 5.00555e-05 0)
(-0.00113133 4.66659e-05 0)
(-0.00114531 4.31816e-05 0)
(-0.00115788 3.9605e-05 0)
(-0.00116899 3.59334e-05 0)
(-0.00117863 3.21949e-05 0)
(-0.00118677 2.83853e-05 0)
(-0.00119338 2.45089e-05 0)
(-0.00119846 2.05765e-05 0)
(-0.00120198 1.65983e-05 0)
(-0.00120393 1.25836e-05 0)
(-0.00120433 8.53786e-06 0)
(-0.00120316 4.45866e-06 0)
(-0.00120041 3.91521e-07 0)
(-0.00119614 -3.66857e-06 0)
(-0.00119034 -7.71256e-06 0)
(-0.00118301 -1.1735e-05 0)
(-0.00117418 -1.57202e-05 0)
(-0.0011639 -1.96551e-05 0)
(-0.00115217 -2.35393e-05 0)
(-0.00113905 -2.73426e-05 0)
(-0.00112458 -3.10658e-05 0)
(-0.00110881 -3.47013e-05 0)
(-0.00109178 -3.82425e-05 0)
(-0.00107357 -4.16678e-05 0)
(-0.00105422 -4.49746e-05 0)
(-0.0010338 -4.81569e-05 0)
(-0.00101237 -5.12039e-05 0)
(-0.000990015 -5.41018e-05 0)
(-0.0009668 -5.68569e-05 0)
(-0.000942802 -5.94507e-05 0)
(-0.000918097 -6.18814e-05 0)
(-0.000892761 -6.41539e-05 0)
(-0.000866874 -6.62625e-05 0)
(-0.000840512 -6.8205e-05 0)
(-0.000813758 -6.99792e-05 0)
(-0.000786681 -7.15848e-05 0)
(-0.000759359 -7.30275e-05 0)
(-0.000731871 -7.43061e-05 0)
(-0.000704285 -7.54266e-05 0)
(-0.000676666 -7.63956e-05 0)
(-0.000649079 -7.72151e-05 0)
(-0.00062159 -7.78921e-05 0)
(-0.00059425 -7.8434e-05 0)
(-0.000567112 -7.88504e-05 0)
(-0.000540224 -7.91496e-05 0)
(-0.000513626 -7.934e-05 0)
(-0.000487356 -7.94316e-05 0)
(-0.000461443 -7.9435e-05 0)
(-0.000435913 -7.93598e-05 0)
(-0.00041079 -7.92168e-05 0)
(-0.000386076 -7.90211e-05 0)
(-0.000361778 -7.87747e-05 0)
(-0.000337909 -7.84932e-05 0)
(-0.00031446 -7.81864e-05 0)
(-0.000291421 -7.78647e-05 0)
(-0.000268772 -7.75367e-05 0)
(-0.000246497 -7.72117e-05 0)
(-0.000224574 -7.68981e-05 0)
(-0.000202972 -7.66034e-05 0)
(-0.000181658 -7.6334e-05 0)
(-0.000160597 -7.60967e-05 0)
(-0.000139751 -7.58957e-05 0)
(-0.000119077 -7.57343e-05 0)
(-9.85329e-05 -7.56162e-05 0)
(-7.80738e-05 -7.55433e-05 0)
(-5.76548e-05 -7.55164e-05 0)
(-3.72305e-05 -7.55354e-05 0)
(-1.67552e-05 -7.55987e-05 0)
(3.81473e-06 -7.57042e-05 0)
(2.45212e-05 -7.58486e-05 0)
(4.54064e-05 -7.60271e-05 0)
(6.65098e-05 -7.62352e-05 0)
(8.78654e-05 -7.6467e-05 0)
(0.000109505 -7.67143e-05 0)
(0.000131458 -7.69708e-05 0)
(0.000153748 -7.72281e-05 0)
(0.000176394 -7.74772e-05 0)
(0.000199411 -7.77079e-05 0)
(0.000222809 -7.79131e-05 0)
(0.000246588 -7.80804e-05 0)
(0.000270747 -7.82009e-05 0)
(0.00029528 -7.82646e-05 0)
(0.000320175 -7.82594e-05 0)
(0.00034541 -7.81765e-05 0)
(0.000370963 -7.80061e-05 0)
(0.000396801 -7.77373e-05 0)
(0.000422887 -7.73608e-05 0)
(0.000449184 -7.68685e-05 0)
(0.000475645 -7.62513e-05 0)
(0.000502222 -7.55004e-05 0)
(0.000528859 -7.4613e-05 0)
(0.000555494 -7.35813e-05 0)
(0.000582068 -7.24026e-05 0)
(0.000608521 -7.10738e-05 0)
(0.000634777 -6.95766e-05 0)
(0.000660767 -6.79368e-05 0)
(0.000686429 -6.61384e-05 0)
(0.000711676 -6.41697e-05 0)
(0.000736441 -6.20602e-05 0)
(0.000760662 -5.97973e-05 0)
(0.000784262 -5.73823e-05 0)
(0.000807165 -5.48215e-05 0)
(0.000829299 -5.21209e-05 0)
(0.000850604 -4.92865e-05 0)
(0.000871012 -4.63246e-05 0)
(0.000890461 -4.32419e-05 0)
(0.000908887 -4.00497e-05 0)
(0.00092624 -3.67565e-05 0)
(0.000942467 -3.33656e-05 0)
(0.000957513 -2.98898e-05 0)
(0.000971336 -2.63486e-05 0)
(0.000983904 -2.27445e-05 0)
(0.000995189 -1.90841e-05 0)
(0.00100514 -1.53772e-05 0)
(0.00101372 -1.16413e-05 0)
(0.00102094 -7.88642e-06 0)
(0.00102677 -4.12282e-06 0)
(0.00103121 -3.53737e-07 0)
(0.00103426 3.41059e-06 0)
(0.00103589 7.15754e-06 0)
(0.0010361 1.08703e-05 0)
(0.00103492 1.45439e-05 0)
(0.00103234 1.81785e-05 0)
(0.00102836 2.175e-05 0)
(0.00102303 2.52583e-05 0)
(0.00101634 2.86974e-05 0)
(0.00100833 3.20617e-05 0)
(0.00099902 3.5348e-05 0)
(0.000988436 3.85475e-05 0)
(0.000976613 4.16573e-05 0)
(0.00096359 4.46738e-05 0)
(0.000949391 4.75995e-05 0)
(0.000934051 5.04221e-05 0)
(0.000917626 5.31441e-05 0)
(0.000900141 5.57638e-05 0)
(0.000881629 5.8287e-05 0)
(0.000862142 6.06984e-05 0)
(0.000841719 6.30069e-05 0)
(0.000820397 6.52112e-05 0)
(0.000798218 6.73122e-05 0)
(0.000775223 6.93136e-05 0)
(0.000751447 7.12101e-05 0)
(0.000726935 7.30052e-05 0)
(0.000701723 7.47002e-05 0)
(0.000675852 7.63009e-05 0)
(0.000649358 7.78082e-05 0)
(0.000622278 7.92224e-05 0)
(0.00059465 8.05467e-05 0)
(0.000566504 8.17821e-05 0)
(0.000537878 8.29325e-05 0)
(0.000508805 8.39997e-05 0)
(0.000479318 8.4983e-05 0)
(0.000449448 8.58822e-05 0)
(0.000419226 8.66987e-05 0)
(0.000388684 8.74321e-05 0)
(0.000357851 8.8082e-05 0)
(0.000326747 8.86618e-05 0)
(0.000295373 8.92351e-05 0)
(0.000263647 9.00244e-05 0)
(0.000231273 9.16455e-05 0)
(0.000197416 9.54222e-05 0)
(0.000160209 0.00010324 0)
(0.000116627 0.000115017 0)
(6.51798e-05 0.000119948 0)
(1.21841e-05 8.00823e-05 0)
(-1.3143e-05 0.000128892 0)
(-6.72317e-05 0.000186668 0)
(-0.000117534 0.000176046 0)
(-0.000159404 0.000156495 0)
(-0.000194634 0.000143693 0)
(-0.000226416 0.000137357 0)
(-0.000256657 0.000134485 0)
(-0.000286193 0.000133012 0)
(-0.000315331 0.000131967 0)
(-0.000344165 0.000130976 0)
(-0.000372703 0.000129917 0)
(-0.000400935 0.000128752 0)
(-0.000428841 0.00012747 0)
(-0.000456392 0.000126064 0)
(-0.000483558 0.00012453 0)
(-0.00051031 0.000122866 0)
(-0.000536616 0.000121068 0)
(-0.000562441 0.000119133 0)
(-0.000587751 0.000117057 0)
(-0.000612507 0.000114839 0)
(-0.000636674 0.000112473 0)
(-0.000660211 0.000109957 0)
(-0.00068308 0.000107288 0)
(-0.000705243 0.000104466 0)
(-0.000726666 0.000101489 0)
(-0.000747288 9.83457e-05 0)
(-0.000767072 9.50517e-05 0)
(-0.000785993 9.15985e-05 0)
(-0.000804 8.79843e-05 0)
(-0.00082105 8.42111e-05 0)
(-0.000837104 8.02867e-05 0)
(-0.000852122 7.62065e-05 0)
(-0.000866068 7.19755e-05 0)
(-0.000878904 6.75978e-05 0)
(-0.000890593 6.30789e-05 0)
(-0.0009011 5.84291e-05 0)
(-0.000910397 5.36505e-05 0)
(-0.00091847 4.87504e-05 0)
(-0.000925263 4.37321e-05 0)
(-0.000930754 3.86201e-05 0)
(-0.000934953 3.34168e-05 0)
(-0.000937827 2.81323e-05 0)
(-0.000939363 2.27801e-05 0)
(-0.000939551 1.73743e-05 0)
(-0.000938396 1.19254e-05 0)
(-0.000935915 6.4446e-06 0)
(-0.000932068 9.55658e-07 0)
(-0.000926871 -4.52142e-06 0)
(-0.000920379 -9.98347e-06 0)
(-0.00091259 -1.54091e-05 0)
(-0.00090352 -2.0791e-05 0)
(-0.000893201 -2.61055e-05 0)
(-0.000881682 -3.1329e-05 0)
(-0.000868979 -3.64536e-05 0)
(-0.000855137 -4.14639e-05 0)
(-0.000840228 -4.63456e-05 0)
(-0.000824298 -5.10814e-05 0)
(-0.000807393 -5.56773e-05 0)
(-0.000789581 -6.00844e-05 0)
(-0.000770941 -6.43042e-05 0)
(-0.000751531 -6.83374e-05 0)
(-0.000731415 -7.21562e-05 0)
(-0.000710685 -7.57565e-05 0)
(-0.000689411 -7.91453e-05 0)
(-0.000667668 -8.22854e-05 0)
(-0.000645548 -8.51879e-05 0)
(-0.000623126 -8.78487e-05 0)
(-0.000600484 -9.02696e-05 0)
(-0.0005777 -9.24466e-05 0)
(-0.000554853 -9.43707e-05 0)
(-0.000532027 -9.60491e-05 0)
(-0.000509294 -9.74982e-05 0)
(-0.00048673 -9.87065e-05 0)
(-0.000464411 -9.96882e-05 0)
(-0.000442395 -0.000100454 0)
(-0.000420745 -0.000101009 0)
(-0.000399525 -0.000101366 0)
(-0.000378786 -0.000101536 0)
(-0.000358574 -0.000101534 0)
(-0.000338932 -0.000101374 0)
(-0.000319893 -0.000101071 0)
(-0.000301489 -0.00010064 0)
(-0.00028374 -0.000100099 0)
(-0.000266662 -9.94641e-05 0)
(-0.000250272 -9.87521e-05 0)
(-0.000234558 -9.79766e-05 0)
(-0.000219516 -9.71621e-05 0)
(-0.000205146 -9.6321e-05 0)
(-0.000191426 -9.54693e-05 0)
(-0.000178329 -9.46224e-05 0)
(-0.000165824 -9.37959e-05 0)
(-0.000153875 -9.3006e-05 0)
(-0.000142443 -9.22648e-05 0)
(-0.00013148 -9.15836e-05 0)
(-0.000120935 -9.09731e-05 0)
(-0.000110753 -9.04435e-05 0)
(-0.000100876 -9.00015e-05 0)
(-9.1243e-05 -8.96531e-05 0)
(-8.17917e-05 -8.94037e-05 0)
(-7.24566e-05 -8.92565e-05 0)
(-6.31719e-05 -8.92125e-05 0)
(-5.38723e-05 -8.92713e-05 0)
(-4.4492e-05 -8.94313e-05 0)
(-3.49661e-05 -8.96892e-05 0)
(-2.52314e-05 -9.00395e-05 0)
(-1.52277e-05 -9.04743e-05 0)
(-4.89787e-06 -9.09868e-05 0)
(5.81348e-06 -9.15678e-05 0)
(1.69566e-05 -9.22051e-05 0)
(2.8577e-05 -9.28875e-05 0)
(4.0716e-05 -9.36018e-05 0)
(5.34101e-05 -9.43347e-05 0)
(6.66874e-05 -9.50706e-05 0)
(8.05721e-05 -9.57952e-05 0)
(9.50825e-05 -9.64928e-05 0)
(0.000110229 -9.71455e-05 0)
(0.000126016 -9.77372e-05 0)
(0.000142441 -9.82498e-05 0)
(0.000159495 -9.867e-05 0)
(0.000177164 -9.898e-05 0)
(0.000195425 -9.91654e-05 0)
(0.000214247 -9.92078e-05 0)
(0.000233599 -9.90947e-05 0)
(0.000253441 -9.8812e-05 0)
(0.000273725 -9.83449e-05 0)
(0.000294399 -9.76858e-05 0)
(0.000315408 -9.68283e-05 0)
(0.000336691 -9.57593e-05 0)
(0.000358201 -9.44736e-05 0)
(0.000379841 -9.29507e-05 0)
(0.000401545 -9.12181e-05 0)
(0.000423279 -8.92455e-05 0)
(0.00044492 -8.70444e-05 0)
(0.000466402 -8.46214e-05 0)
(0.000487684 -8.197e-05 0)
(0.000508672 -7.90941e-05 0)
(0.000529283 -7.60034e-05 0)
(0.000549448 -7.2699e-05 0)
(0.000569099 -6.9192e-05 0)
(0.000588165 -6.54912e-05 0)
(0.000606577 -6.16039e-05 0)
(0.000624267 -5.75494e-05 0)
(0.000641188 -5.33355e-05 0)
(0.000657274 -4.89673e-05 0)
(0.000672452 -4.44732e-05 0)
(0.000686687 -3.98643e-05 0)
(0.000699947 -3.51498e-05 0)
(0.000712189 -3.03356e-05 0)
(0.00072335 -2.5461e-05 0)
(0.000733404 -2.05202e-05 0)
(0.000742352 -1.55344e-05 0)
(0.000750159 -1.05201e-05 0)
(0.000756805 -5.48956e-06 0)
(0.000762281 -4.6366e-07 0)
(0.000766574 4.54708e-06 0)
(0.00076968 9.53378e-06 0)
(0.000771616 1.44769e-05 0)
(0.000772362 1.9362e-05 0)
(0.000771923 2.41826e-05 0)
(0.000770334 2.89256e-05 0)
(0.000767598 3.35788e-05 0)
(0.000763734 3.81353e-05 0)
(0.000758758 4.25903e-05 0)
(0.000752693 4.69311e-05 0)
(0.000745572 5.11572e-05 0)
(0.000737428 5.52575e-05 0)
(0.000728275 5.92269e-05 0)
(0.000718145 6.30677e-05 0)
(0.000707088 6.67769e-05 0)
(0.000695132 7.03398e-05 0)
(0.000682298 7.37679e-05 0)
(0.000668624 7.70549e-05 0)
(0.000654157 8.01991e-05 0)
(0.000638927 8.32004e-05 0)
(0.000622971 8.60604e-05 0)
(0.000606318 8.87868e-05 0)
(0.000589002 9.13686e-05 0)
(0.000571065 9.38134e-05 0)
(0.000552539 9.61244e-05 0)
(0.000533455 9.83053e-05 0)
(0.000513846 0.000100359 0)
(0.000493744 0.000102287 0)
(0.00047318 0.000104092 0)
(0.000452181 0.000105778 0)
(0.000430779 0.000107347 0)
(0.000409002 0.000108804 0)
(0.000386876 0.000110149 0)
(0.000364426 0.000111382 0)
(0.000341678 0.000112505 0)
(0.000318656 0.00011352 0)
(0.000295381 0.000114432 0)
(0.000271862 0.000115271 0)
(0.000248084 0.000116157 0)
(0.00022395 0.000117465 0)
(0.000199137 0.000120196 0)
(0.000172776 0.00012647 0)
(0.00014293 0.000139338 0)
(0.000106366 0.000159083 0)
(6.11258e-05 0.000170288 0)
(1.18768e-05 0.000116684 0)
(-1.29989e-05 0.000167023 0)
(-6.46445e-05 0.000237557 0)
(-0.000111171 0.00021991 0)
(-0.000148849 0.000192177 0)
(-0.000179813 0.000174327 0)
(-0.000207368 0.00016552 0)
(-0.000233427 0.000161539 0)
(-0.000258817 0.000159529 0)
(-0.000283836 0.000158145 0)
(-0.000308575 0.000156868 0)
(-0.000333041 0.000155525 0)
(-0.000357225 0.00015406 0)
(-0.000381111 0.000152455 0)
(-0.000404674 0.000150701 0)
(-0.000427886 0.000148793 0)
(-0.000450722 0.000146724 0)
(-0.000473154 0.00014449 0)
(-0.000495148 0.000142086 0)
(-0.000516673 0.000139508 0)
(-0.000537697 0.000136751 0)
(-0.000558183 0.000133812 0)
(-0.000578096 0.000130686 0)
(-0.000597398 0.000127369 0)
(-0.000616053 0.000123857 0)
(-0.000634034 0.000120152 0)
(-0.000651278 0.000116254 0)
(-0.00066775 0.000112153 0)
(-0.000683432 0.000107853 0)
(-0.000698272 0.000103355 0)
(-0.000712229 9.86579e-05 0)
(-0.000725263 9.37706e-05 0)
(-0.000737344 8.86917e-05 0)
(-0.000748434 8.34247e-05 0)
(-0.000758496 7.79792e-05 0)
(-0.000767493 7.23557e-05 0)
(-0.000775396 6.65725e-05 0)
(-0.000782181 6.06312e-05 0)
(-0.000787832 5.45431e-05 0)
(-0.000792294 4.83176e-05 0)
(-0.00079555 4.19734e-05 0)
(-0.000797609 3.5521e-05 0)
(-0.000798443 2.89771e-05 0)
(-0.000798041 2.23562e-05 0)
(-0.000796397 1.56756e-05 0)
(-0.000793516 8.95096e-06 0)
(-0.000789401 2.20579e-06 0)
(-0.000784029 -4.52367e-06 0)
(-0.000777429 -1.12505e-05 0)
(-0.000769641 -1.79405e-05 0)
(-0.000760677 -2.45704e-05 0)
(-0.000750555 -3.11236e-05 0)
(-0.000739298 -3.75792e-05 0)
(-0.000726962 -4.39065e-05 0)
(-0.000713585 -5.00798e-05 0)
(-0.000699209 -5.61015e-05 0)
(-0.000683892 -6.19459e-05 0)
(-0.000667706 -6.75796e-05 0)
(-0.00065068 -7.29968e-05 0)
(-0.000632884 -7.81729e-05 0)
(-0.00061443 -8.30905e-05 0)
(-0.000595358 -8.77487e-05 0)
(-0.00057574 -9.2106e-05 0)
(-0.000555691 -9.61784e-05 0)
(-0.000535253 -9.99405e-05 0)
(-0.000514511 -0.000103389 0)
(-0.000493581 -0.000106513 0)
(-0.000472534 -0.000109311 0)
(-0.000451452 -0.000111797 0)
(-0.000430407 -0.000113939 0)
(-0.00040949 -0.000115754 0)
(-0.000388801 -0.000117249 0)
(-0.000368397 -0.000118429 0)
(-0.000348356 -0.000119304 0)
(-0.000328766 -0.000119881 0)
(-0.000309681 -0.000120178 0)
(-0.000291163 -0.000120202 0)
(-0.000273278 -0.000119973 0)
(-0.000256077 -0.00011951 0)
(-0.000239605 -0.00011883 0)
(-0.000223902 -0.000117957 0)
(-0.000209 -0.000116909 0)
(-0.000194927 -0.00011571 0)
(-0.000181699 -0.000114387 0)
(-0.000169328 -0.000112958 0)
(-0.000157821 -0.000111452 0)
(-0.000147169 -0.000109887 0)
(-0.000137359 -0.000108297 0)
(-0.000128377 -0.0001067 0)
(-0.000120195 -0.00010512 0)
(-0.00011278 -0.000103578 0)
(-0.000106089 -0.000102097 0)
(-0.000100078 -0.000100698 0)
(-9.46926e-05 -9.93983e-05 0)
(-8.98759e-05 -9.82149e-05 0)
(-8.55646e-05 -9.71633e-05 0)
(-8.16909e-05 -9.62567e-05 0)
(-7.81833e-05 -9.5506e-05 0)
(-7.49682e-05 -9.49206e-05 0)
(-7.19689e-05 -9.45063e-05 0)
(-6.91066e-05 -9.42675e-05 0)
(-6.63015e-05 -9.42062e-05 0)
(-6.34744e-05 -9.43219e-05 0)
(-6.05458e-05 -9.4612e-05 0)
(-5.74372e-05 -9.50716e-05 0)
(-5.40717e-05 -9.56937e-05 0)
(-5.03758e-05 -9.64688e-05 0)
(-4.62792e-05 -9.73853e-05 0)
(-4.17143e-05 -9.84297e-05 0)
(-3.66186e-05 -9.9587e-05 0)
(-3.09351e-05 -0.00010084 0)
(-2.46118e-05 -0.000102169 0)
(-1.76026e-05 -0.000103557 0)
(-9.86779e-06 -0.000104981 0)
(-1.3748e-06 -0.00010642 0)
(7.90228e-06 -0.00010785 0)
(1.79821e-05 -0.000109249 0)
(2.8878e-05 -0.000110592 0)
(4.05905e-05 -0.000111857 0)
(5.31159e-05 -0.000113018 0)
(6.64467e-05 -0.000114053 0)
(8.05626e-05 -0.00011494 0)
(9.54369e-05 -0.000115656 0)
(0.000111039 -0.000116179 0)
(0.000127334 -0.000116492 0)
(0.000144273 -0.000116578 0)
(0.000161799 -0.000116406 0)
(0.000179861 -0.000115987 0)
(0.000198402 -0.000115292 0)
(0.000217374 -0.000114313 0)
(0.000236666 -0.000113042 0)
(0.000256224 -0.000111471 0)
(0.000276 -0.000109596 0)
(0.000295866 -0.000107422 0)
(0.000315775 -0.000104936 0)
(0.000335663 -0.000102146 0)
(0.000355435 -9.9059e-05 0)
(0.00037501 -9.56807e-05 0)
(0.000394314 -9.20138e-05 0)
(0.000413271 -8.80706e-05 0)
(0.000431812 -8.38607e-05 0)
(0.000449858 -7.94012e-05 0)
(0.000467337 -7.47018e-05 0)
(0.000484207 -6.97811e-05 0)
(0.000500385 -6.46609e-05 0)
(0.000515798 -5.93507e-05 0)
(0.000530418 -5.38722e-05 0)
(0.000544204 -4.82458e-05 0)
(0.000557092 -4.24777e-05 0)
(0.000569029 -3.66184e-05 0)
(0.000580004 -3.06591e-05 0)
(0.000589993 -2.46287e-05 0)
(0.000598962 -1.85464e-05 0)
(0.000606889 -1.24322e-05 0)
(0.000613757 -6.31094e-06 0)
(0.000619561 -2.00602e-07 0)
(0.000624288 5.88755e-06 0)
(0.00062794 1.19377e-05 0)
(0.000630517 1.79195e-05 0)
(0.000632023 2.38348e-05 0)
(0.000632473 2.96602e-05 0)
(0.000631877 3.53816e-05 0)
(0.000630254 4.09885e-05 0)
(0.000627618 4.64682e-05 0)
(0.000623989 5.18144e-05 0)
(0.000619395 5.70268e-05 0)
(0.000613862 6.20811e-05 0)
(0.000607417 6.69713e-05 0)
(0.00060009 7.17093e-05 0)
(0.000591909 7.62802e-05 0)
(0.000582906 8.06771e-05 0)
(0.000573111 8.48965e-05 0)
(0.000562558 8.89489e-05 0)
(0.000551281 9.28249e-05 0)
(0.000539313 9.65232e-05 0)
(0.000526696 0.000100047 0)
(0.000513447 0.000103398 0)
(0.000499597 0.000106579 0)
(0.000485193 0.000109591 0)
(0.00047026 0.000112437 0)
(0.000454829 0.000115121 0)
(0.000438927 0.000117646 0)
(0.000422583 0.000120018 0)
(0.000405827 0.000122239 0)
(0.000388685 0.000124313 0)
(0.000371184 0.000126245 0)
(0.000353348 0.000128037 0)
(0.000335201 0.000129696 0)
(0.000316763 0.000131218 0)
(0.000298058 0.000132608 0)
(0.000279108 0.000133871 0)
(0.000259924 0.000135021 0)
(0.000240516 0.000136102 0)
(0.000220861 0.000137289 0)
(0.00020086 0.000139112 0)
(0.000180196 0.000142952 0)
(0.000158016 0.00015173 0)
(0.000132384 0.000169707 0)
(9.99794e-05 0.000197722 0)
(5.85383e-05 0.000216202 0)
(1.17156e-05 0.000151304 0)
(-1.30082e-05 0.000204398 0)
(-6.37703e-05 0.000286422 0)
(-0.000108726 0.000261185 0)
(-0.0001446 0.000225123 0)
(-0.000173726 0.000202243 0)
(-0.000199481 0.000191022 0)
(-0.000223789 0.000185984 0)
(-0.000247466 0.000183474 0)
(-0.000270801 0.000181776 0)
(-0.000293876 0.000180233 0)
(-0.000316698 0.000178625 0)
(-0.000339254 0.000176879 0)
(-0.000361528 0.000174972 0)
(-0.000383495 0.000172893 0)
(-0.000405129 0.000170633 0)
(-0.000426407 0.000168185 0)