/*--------------------------------*- C++ -*----------------------------------*\
| =========                 |                                                 |
| \\      /  F ield         | OpenFOAM: The Open Source CFD Toolbox           |
|  \\    /   O peration     | Version:  2412                                  |
|   \\  /    A nd           | Website:  www.openfoam.com                      |
|    \\/     M anipulation  |                                                 |
\*---------------------------------------------------------------------------*/
FoamFile
{
    version     2.0;
    format      ascii;
    arch        "LSB;label=32;scalar=64";
    class       surfaceScalarField;
    location    "1.9";
    object      alphaPhi0.water;
}
// * * * * * * * * * * * * * * * * * * * * * * * * * * * * * * * * * * * * * //

dimensions      [0 3 -1 0 0 0 0];

oriented        oriented;

internalField   nonuniform List<scalar> 
79600
(
-7.52189e-179
1.42468e-180
-2.20502e-177
1.02621e-178
-1.15224e-176
1.3699e-177
-2.24855e-176
4.47354e-177
-2.98906e-176
6.3023e-177
-3.42328e-176
6.55449e-177
-3.65093e-176
6.17189e-177
-3.71617e-176
5.59384e-177
-3.64409e-176
4.95368e-177
-3.45717e-176
4.30103e-177
-3.1807e-176
3.6626e-177
-2.84223e-176
3.05793e-177
-2.54685e-176
2.50199e-177
-1.24619e-175
2.06813e-177
-1.24384e-173
9.39328e-177
-1.37668e-171
8.74902e-175
-1.41968e-169
9.07734e-173
-1.36765e-167
8.80915e-171
-1.23513e-165
8.01296e-169
-1.04895e-163
6.85259e-167
-8.40094e-162
5.52459e-165
-6.36128e-160
4.20918e-163
-4.5649e-158
3.03753e-161
-3.11129e-156
2.08051e-159
-2.01745e-154
1.35502e-157
-1.2202e-152
8.35999e-156
-2.67743e-151
3.88019e-154
-1.08844e-150
1.69224e-152
-8.0214e-149
1.40933e-150
-6.80938e-147
1.14938e-148
-5.57771e-145
9.04336e-147
-4.41483e-143
6.87263e-145
-3.38135e-141
5.05074e-143
-2.5094e-139
3.59345e-141
-1.80686e-137
2.47774e-139
-1.2639e-135
1.6574e-137
-8.59958e-134
1.07657e-135
-5.69846e-132
6.79654e-134
-3.682e-130
4.17383e-132
-2.32265e-128
2.49527e-130
-1.43212e-126
1.45325e-128
-8.64158e-125
8.25015e-127
-5.10919e-123
4.56763e-125
-2.96334e-121
2.46698e-123
-1.68815e-119
1.29996e-121
-9.45757e-118
6.68184e-120
-5.21706e-116
3.34804e-118
-2.83727e-114
1.63325e-116
-1.52322e-112
7.73888e-115
-8.08315e-111
3.5475e-113
-4.24556e-109
1.56214e-111
-2.21003e-107
6.522e-110
-1.14062e-105
2.51398e-108
-5.86284e-104
8.34152e-107
-3.14945e-102
1.8181e-105
-1.71574e-100
-2.91339e-103
-7.7065e-99
-4.74238e-101
-2.8361e-97
-2.73472e-99
-8.91316e-96
-1.13543e-97
-2.42801e-94
-3.80245e-96
-5.7455e-93
-1.06506e-94
-1.17918e-91
-2.52533e-93
-2.12724e-90
-1.15144e-91
-3.36754e-89
-6.47934e-90
-4.45723e-88
-1.70418e-88
-4.84286e-87
-3.12691e-87
-4.23145e-86
-4.32301e-86
-2.92923e-85
-4.56587e-85
-1.63346e-84
-3.66892e-84
-7.8603e-84
-2.27455e-83
-3.54789e-83
-1.16335e-82
-1.55422e-82
-5.48344e-82
-6.42734e-82
-2.56573e-81
-2.38194e-81
-1.16088e-80
-7.61212e-81
-4.72162e-80
-2.05561e-80
-1.68202e-79
-4.78399e-80
-5.13285e-79
-6.20496e-80
-1.30848e-78
-3.88015e-80
-1.57301e-78
-1.08763e-80
-4.42263e-79
-1.60717e-81
-7.16601e-80
-1.30164e-82
-6.73578e-81
-6.52305e-84
-4.01232e-82
-2.17932e-85
-1.61483e-83
-4.65201e-87
-4.37646e-85
-6.30166e-89
-7.84251e-87
-6.05638e-91
-9.60572e-89
-4.45311e-93
-8.68428e-91
-2.65542e-95
-6.15262e-93
-1.32829e-97
-3.58352e-95
-5.60446e-100
-1.75776e-97
-1.99955e-102
-7.29751e-100
-6.03509e-105
-2.56849e-102
-1.5416e-107
-7.66913e-105
-3.31943e-110
-1.94214e-107
-5.90939e-113
-4.14435e-110
-8.24485e-116
-7.26999e-113
-1.33526e-118
-1.26863e-115
-4.70652e-118
-4.42111e-116
-3.90495e-117
-4.11139e-116
-1.73098e-116
-8.92111e-116
-5.04495e-115
-5.62044e-114
2.72643e-114
-4.03903e-112
2.92804e-111
-3.0391e-110
7.75622e-109
-3.15435e-108
1.6469e-106
-4.9518e-106
3.01659e-104
-7.76921e-104
4.86331e-102
-1.14389e-101
6.8839e-100
-1.53885e-99
8.48058e-98
-1.85139e-97
9.0665e-96
-1.96446e-95
8.20435e-94
-1.80857e-93
6.16108e-92
-1.40828e-91
3.75673e-90
-9.09054e-90
1.81174e-88
-4.75706e-88
6.6873e-87
-1.9662e-86
1.812e-85
-6.22055e-85
3.40018e-84
-1.44785e-83
4.04594e-83
-2.34879e-82
2.6048e-82
-2.46233e-81
9.15249e-82
-1.46653e-80
1.58935e-81
-4.93457e-80
1.4686e-81
-5.02604e-80
5.20887e-82
-1.67874e-80
1.48644e-82
-4.27134e-81
2.9755e-83
-7.568e-82
4.27094e-84
-9.56012e-83
4.97641e-85
-9.50962e-84
4.96574e-86
-9.11412e-85
3.96647e-87
-8.66926e-86
2.60925e-88
-7.14041e-87
1.37638e-89
-4.75176e-88
5.43768e-91
-2.31335e-89
1.62922e-92
-7.95418e-91
4.01547e-94
-2.08621e-92
8.80433e-96
-4.61495e-94
1.79536e-97
-9.22767e-96
3.4694e-99
-1.72526e-97
6.39212e-101
-3.05322e-99
1.12321e-102
-5.11861e-101
1.87521e-104
-8.07018e-103
2.9455e-106
-1.17466e-104
4.25871e-108
-1.51004e-106
5.34714e-110
-1.50005e-108
1.75055e-112
-4.24733e-111
3.02077e-115
2.78407e-116
4.48714e-117
4.35763e-118
6.00369e-119
9.07261e-120
8.12495e-121
1.639e-121
1.09205e-122
2.74408e-123
1.45416e-124
4.36622e-125
1.91623e-126
6.68619e-127
2.49611e-128
9.92377e-129
3.21059e-130
1.4335e-130
4.07329e-132
2.0203e-132
5.09199e-134
2.78207e-134
6.26556e-136
3.74631e-136
7.58075e-138
4.93493e-138
9.00947e-140
6.35975e-140
1.05069e-141
8.01713e-142
1.20113e-143
9.88294e-144
1.3446e-145
1.19085e-145
1.4724e-147
1.40186e-147
1.5759e-149
1.6112e-149
3.15868e-151
1.80765e-151
1.21283e-151
2.18817e-153
2.3973e-153
5.79074e-155
3.5366e-155
9.54301e-157
5.03914e-157
1.42489e-158
6.95153e-159
2.05743e-160
9.27095e-161
2.87221e-162
1.1936e-162
3.87189e-164
1.48132e-164
5.03386e-166
1.76949e-166
6.3035e-168
2.03129e-168
7.59218e-170
2.23717e-170
8.78247e-172
2.35966e-172
9.74194e-174
2.38041e-174
1.03508e-175
2.51325e-176
1.15298e-177
3.51063e-177
1.70251e-178
4.66993e-177
2.39943e-178
6.38982e-177
3.48732e-178
8.4786e-177
4.9295e-178
1.09238e-176
6.78857e-178
1.3682e-176
9.12323e-178
1.66574e-176
1.1971e-177
1.97133e-176
1.53478e-177
2.26793e-176
1.92448e-177
2.53616e-176
2.36261e-177
2.75451e-176
2.84161e-177
2.90257e-176
3.35145e-177
2.96209e-176
3.87949e-177
2.91774e-176
4.41009e-177
2.75322e-176
4.9157e-177
2.42889e-176
5.29572e-177
1.8457e-176
5.16869e-177
9.41445e-177
3.67704e-177
1.71524e-177
1.08433e-177
4.92298e-179
7.09443e-179
8.23336e-181
-4.34152e-175
1.91684e-176
-1.00047e-173
1.03741e-174
-4.56867e-173
1.03927e-173
-8.63532e-173
2.93823e-173
-1.14488e-172
3.99806e-173
-1.31516e-172
4.14471e-173
-1.4083e-172
3.91576e-173
-1.44033e-172
3.56538e-173
-1.42072e-172
3.17416e-173
-1.45434e-172
2.7734e-173
-1.26402e-171
2.54907e-173
-1.18136e-169
2.01086e-172
-1.11312e-167
1.72091e-170
-9.62014e-166
1.49572e-168
-7.66578e-164
1.19978e-166
-5.66154e-162
8.91993e-165
-3.89295e-160
6.17394e-163
-2.50214e-158
3.99387e-161
-1.50856e-156
2.42294e-159
-8.55801e-155
1.383e-157
-4.54762e-153
7.52041e-156
-1.57434e-151
5.02402e-154
-3.09626e-151
2.06037e-152
-1.88801e-149
1.35016e-150
-1.3256e-147
9.08446e-149
-8.91522e-146
5.85983e-147
-5.75406e-144
3.62935e-145
-3.57047e-142
2.16186e-143
-2.13367e-140
1.24031e-141
-1.22994e-138
6.86359e-140
-6.84962e-137
3.66834e-138
-3.69078e-135
1.89597e-136
-1.9269e-133
9.48761e-135
-9.76088e-132
4.60191e-133
-4.80384e-130
2.16592e-131
-2.3e-128
9.90177e-130
-1.07266e-126
4.40114e-128
-4.87912e-125
1.90366e-126
-2.16723e-123
8.01954e-125
-9.41219e-122
3.29283e-123
-4.00157e-120
1.31868e-121
-1.66746e-118
5.1534e-120
-6.81862e-117
1.96613e-118
-2.7396e-115
7.32454e-117
-1.08284e-113
2.66426e-115
-4.21565e-112
9.45828e-114
-1.61858e-110
3.27387e-112
-6.13653e-109
1.10289e-110
-2.30033e-107
3.60449e-109
-8.53688e-106
1.1366e-107
-3.14072e-104
3.42413e-106
-1.1469e-102
9.67017e-105
-4.1584e-101
2.45462e-103
-1.50705e-99
4.94849e-102
-5.65723e-98
3.31354e-101
-2.05187e-96
-6.15169e-99
-6.79514e-95
-4.579e-97
-2.03479e-93
-2.12286e-95
-5.49283e-92
-7.75964e-94
-1.32942e-90
-2.37326e-92
-2.86331e-89
-6.19333e-91
-5.43629e-88
-1.38523e-89
-8.99341e-87
-2.64669e-88
-1.27818e-85
-4.28359e-87
-1.53367e-84
-5.79988e-86
-1.51924e-83
-6.46585e-85
-1.20721e-82
-5.83004e-84
-7.50231e-82
-4.19189e-83
-3.70865e-81
-2.41735e-82
-1.60091e-80
-1.17625e-81
-6.77029e-80
-5.30763e-81
-2.89264e-79
-2.37514e-80
-1.16955e-78
-1.02704e-79
-4.17629e-78
-3.99649e-79
-1.27923e-77
-1.3347e-78
-3.26297e-77
-3.72156e-78
-6.38052e-77
-8.27304e-78
-7.87835e-77
-1.35907e-77
-6.755e-77
-1.59379e-77
-2.43e-77
-4.5242e-77
-3.87776e-78
-2.08919e-77
-3.25645e-79
-3.61509e-78
-1.66958e-80
-3.13711e-79
-5.67303e-82
-1.63167e-80
-1.23945e-83
-5.65164e-82
-1.7164e-85
-1.24545e-83
-1.68719e-87
-1.73296e-85
-1.26996e-89
-1.70895e-87
-7.76009e-92
-1.28951e-89
-3.98107e-94
-7.89629e-92
-1.72367e-96
-4.05965e-94
-6.31207e-99
-1.76157e-96
-1.95534e-101
-6.46636e-99
-5.1249e-104
-2.00849e-101
-1.13183e-106
-5.28054e-104
-2.06591e-109
-1.17059e-106
-2.95618e-112
-2.14685e-109
-1.65293e-115
-3.09277e-112
-1.56199e-115
-1.54957e-115
-1.14378e-114
-8.12084e-115
-5.17868e-113
-5.27125e-113
-1.82135e-111
-3.53264e-111
-2.47836e-110
-2.46809e-109
6.79955e-108
-2.09979e-107
2.23692e-105
-2.89537e-105
5.04903e-103
-5.50954e-103
9.48089e-101
-1.01006e-100
1.5436e-98
-1.62101e-98
2.18906e-96
-2.2764e-96
2.68917e-94
-2.77596e-94
2.85872e-92
-2.93366e-92
2.56745e-90
-2.62081e-90
1.91148e-88
-1.94121e-88
1.15485e-86
-1.16649e-86
5.51635e-85
-5.53721e-85
2.01549e-83
-2.00704e-83
5.39958e-82
-5.31486e-82
1.00138e-80
-9.65176e-81
1.1601e-79
-1.08179e-79
6.91953e-79
-5.91425e-79
1.9987e-78
-1.37008e-78
2.72457e-78
-8.83014e-79
2.46293e-78
-5.9401e-79
1.18535e-78
-3.58765e-79
3.66431e-79
-1.40357e-79
7.87289e-80
-3.76445e-80
1.56937e-80
-7.06867e-81
2.35486e-81
-1.24265e-81
2.1538e-82
-1.68446e-82
1.63368e-83
-1.21383e-82
1.09411e-84
-1.6705e-83
6.06171e-86
-1.34603e-84
2.51682e-87
-7.05832e-86
7.89513e-89
-2.50093e-87
2.03406e-90
-6.64287e-89
4.66444e-92
-1.47434e-90
9.97029e-94
-2.93827e-92
2.02678e-95
-5.44522e-94
3.94575e-97
-9.49881e-96
7.36301e-99
-1.55971e-97
1.31227e-100
-2.39026e-99
2.2112e-102
-3.35338e-101
3.43938e-104
-4.13503e-103
4.64028e-106
-4.06914e-105
4.30898e-108
-2.32393e-107
2.48868e-110
1.04574e-111
1.12551e-111
7.89595e-113
1.07928e-113
2.85825e-114
2.05402e-115
7.9614e-116
3.99795e-117
2.0073e-117
7.6957e-119
4.74398e-119
1.46793e-120
1.07156e-120
2.77228e-122
2.3376e-122
5.17789e-124
4.95408e-124
9.55365e-126
1.02354e-125
1.73944e-127
2.06586e-127
3.12178e-129
4.07822e-129
5.51672e-131
7.8793e-131
9.5891e-133
1.49024e-132
1.63767e-134
2.75907e-134
2.74508e-136
4.99922e-136
4.51123e-138
8.8614e-138
7.26044e-140
1.53582e-139
1.14307e-141
2.60103e-141
1.75843e-143
4.30139e-143
2.64004e-145
6.94048e-145
3.86366e-147
1.09172e-146
5.50492e-149
1.6725e-148
8.32012e-151
2.49305e-150
2.66634e-151
3.67709e-152
1.25322e-152
8.9485e-154
2.43332e-154
1.33762e-155
4.46827e-156
2.50851e-157
7.91002e-158
4.65736e-159
1.34771e-159
8.33294e-161
2.20544e-161
1.43338e-162
3.45913e-163
2.36593e-164
5.1888e-165
3.74004e-166
7.42686e-167
5.6506e-168
1.01187e-168
8.14164e-170
1.31085e-170
1.11783e-171
1.88345e-172
1.70643e-173
3.85011e-173
3.71666e-174
4.64988e-173
4.7983e-174
5.73929e-173
6.35479e-174
6.8997e-173
8.23309e-174
8.07412e-173
1.04357e-173
9.19619e-173
1.29517e-173
1.01917e-172
1.57523e-173
1.09832e-172
1.87898e-173
1.14949e-172
2.1997e-173
1.16594e-172
2.52889e-173
1.14184e-172
2.85558e-173
1.0704e-172
3.15918e-173
9.36539e-173
3.37295e-173
7.07204e-173
3.27125e-173
3.68366e-173
2.38004e-173
7.59367e-174
7.98118e-174
2.85829e-175
6.97362e-175
1.09148e-176
-2.03208e-172
1.44975e-173
-4.47678e-171
7.4535e-172
-1.93754e-170
7.11061e-171
-3.60795e-170
1.90307e-170
-4.78976e-170
2.55052e-170
-5.52928e-170
2.64811e-170
-5.95942e-170
2.51525e-170
-6.14325e-170
2.3062e-170
-6.17647e-170
2.07032e-170
-1.37426e-169
1.84445e-170
-8.49555e-168
3.68572e-170
-8.18893e-166
2.06837e-168
-7.2291e-164
1.8258e-166
-5.8498e-162
1.48681e-164
-4.36545e-160
1.11663e-162
-3.02024e-158
7.77397e-161
-1.94624e-156
5.03989e-159
-1.17284e-154
3.05561e-157
-6.56304e-153
1.76284e-155
-2.02753e-151
1.29661e-153
-4.74432e-151
5.31656e-152
-3.10493e-149
3.70814e-150
-2.2486e-147
2.56727e-148
-1.55364e-145
1.6977e-146
-1.02641e-143
1.07446e-144
-6.49704e-142
6.52017e-143
-3.94801e-140
3.80026e-141
-2.30725e-138
2.13083e-139
-1.299e-136
1.15111e-137
-7.05713e-135
5.99977e-136
-3.70531e-133
3.02119e-134
-1.88298e-131
1.47162e-132
-9.27496e-130
6.94237e-131
-4.43431e-128
3.17546e-129
-2.0605e-126
1.4098e-127
-9.31797e-125
6.08141e-126
-4.10613e-123
2.55128e-124
-1.76545e-121
1.04185e-122
-7.4154e-120
4.14482e-121
-3.04654e-118
1.60759e-119
-1.22576e-116
6.08263e-118
-4.83575e-115
2.24636e-116
-1.8729e-113
8.10011e-115
-7.12999e-112
2.85228e-113
-2.67132e-110
9.80656e-112
-9.86191e-109
3.29019e-110
-3.59203e-107
1.07596e-108
-1.29245e-105
3.42226e-107
-4.59974e-104
1.05482e-105
-1.62132e-102
3.13055e-104
-5.66747e-101
8.84338e-103
-1.96709e-99
2.32406e-101
-6.78194e-98
5.3874e-100
-2.34149e-96
9.24806e-99
-8.36475e-95
-1.017e-98
-2.85707e-93
-1.4101e-95
-8.97611e-92
-8.81222e-94
-2.57894e-90
-3.81302e-92
-6.72978e-89
-1.33576e-90
-1.58243e-87
-3.95865e-89
-3.32224e-86
-1.0066e-87
-6.16166e-85
-2.20034e-86
-9.97034e-84
-4.11522e-85
-1.38687e-82
-6.52384e-84
-1.62873e-81
-8.65116e-83
-1.57807e-80
-9.43741e-82
-1.22393e-79
-8.30975e-81
-7.38456e-79
-5.81186e-80
-3.51243e-78
-3.23928e-79
-1.44849e-77
-1.51228e-78
-5.86801e-77
-6.53358e-78
-2.4302e-76
-2.82243e-77
-9.62621e-76
-1.19245e-76
-3.38624e-75
-4.56827e-76
-1.02608e-74
-1.50833e-75
-2.60405e-74
-4.17487e-75
-5.07622e-74
-9.25003e-75
-6.28616e-74
-1.51942e-74
-5.30944e-74
-1.75953e-74
-1.90914e-74
-3.64946e-74
-3.05759e-75
-1.67751e-74
-2.58628e-76
-2.91267e-75
-1.34094e-77
-2.54931e-76
-4.6384e-79
-1.34644e-77
-1.02601e-80
-4.72219e-79
-1.44133e-82
-1.05469e-80
-1.43966e-84
-1.49039e-82
-1.10267e-86
-1.49535e-84
-6.86358e-89
-1.14976e-86
-3.58957e-91
-7.18284e-89
-1.58502e-93
-3.77127e-91
-5.91999e-96
-1.67226e-93
-1.86989e-98
-6.27548e-96
-4.99416e-101
-1.99298e-98
-1.12293e-103
-5.3573e-101
-2.08444e-106
-1.21414e-103
-3.02953e-109
-2.27654e-106
-1.6949e-112
-3.3535e-109
-1.44296e-112
-1.99168e-112
-1.06081e-111
-1.02235e-111
-5.10733e-110
-6.96985e-110
-1.96549e-108
-4.89509e-108
-3.52455e-107
-3.57199e-106
6.0618e-105
-3.08683e-104
2.18645e-102
-4.24993e-102
5.0304e-100
-6.16473e-100
9.49532e-98
-1.10461e-97
1.54481e-95
-1.7413e-95
2.18222e-93
-2.40804e-93
2.66542e-91
-2.89593e-91
2.81449e-89
-3.02158e-89
2.50999e-87
-2.66767e-87
1.85598e-85
-1.95501e-85
1.11447e-83
-1.16396e-83
5.29698e-82
-5.48342e-82
1.92867e-80
-1.9764e-80
5.15663e-79
-5.21578e-79
9.52598e-78
-9.45089e-78
1.10338e-76
-1.05771e-76
6.6079e-76
-5.80936e-76
1.92854e-75
-1.36608e-75
2.67357e-75
-9.1793e-76
2.45837e-75
-8.33799e-76
1.196e-75
-5.08501e-76
3.73726e-76
-2.00913e-76
8.14526e-77
-5.45044e-77
1.57681e-77
-1.0382e-77
2.39269e-78
-1.76795e-78
2.29482e-79
-2.42495e-79
1.76389e-80
-1.18616e-79
1.20154e-81
-1.70386e-80
6.82101e-83
-1.41323e-81
2.91673e-84
-7.64629e-83
9.41835e-86
-2.78844e-84
2.48732e-87
-7.57461e-86
5.82381e-89
-1.70681e-87
1.26799e-90
-3.43277e-89
2.62225e-92
-6.39012e-91
5.18944e-94
-1.11529e-92
9.83866e-96
-1.82534e-94
1.78138e-97
-2.77826e-96
3.05332e-99
-3.86146e-98
4.8579e-101
-4.72455e-100
6.84575e-103
-4.69055e-102
7.41256e-105
-2.9865e-104
5.36183e-107
-2.33918e-107
2.1408e-108
2.09624e-109
2.47214e-110
8.05116e-111
4.93994e-112
2.4986e-112
1.01209e-113
6.81823e-114
2.05381e-115
1.7265e-115
4.13189e-117
4.15821e-117
8.23385e-119
9.64708e-119
1.62342e-120
2.17113e-120
3.16334e-122
4.75942e-122
6.08513e-124
1.01874e-123
1.15432e-125
2.13224e-125
2.15698e-127
4.3673e-127
3.96605e-129
8.75674e-129
7.16788e-131
1.71887e-130
1.27195e-132
3.30241e-132
2.2137e-134
6.208e-134
3.77445e-136
1.14127e-135
6.29771e-138
2.05059e-137
1.02707e-139
3.59847e-139
1.63529e-141
6.1626e-141
2.53881e-143
1.02907e-142
3.83846e-145
1.67401e-144
5.64423e-147
2.65009e-146
8.06077e-149
4.07839e-148
1.16681e-150
6.09418e-150
2.91819e-151
8.93042e-152
1.74377e-152
2.03803e-153
3.37603e-154
3.15227e-155
6.10497e-156
5.77651e-157
1.06051e-157
1.05443e-158
1.76678e-159
1.84924e-160
2.81629e-161
3.10733e-162
4.28497e-163
4.99159e-164
6.20701e-165
7.64803e-166
8.53773e-167
1.11507e-167
1.12564e-168
1.56211e-169
3.18095e-170
4.70361e-171
2.27085e-170
3.5894e-171
2.73211e-170
4.63343e-171
3.22757e-170
5.89818e-171
3.71742e-170
7.35706e-171
4.17359e-170
8.99825e-171
4.56592e-170
1.07998e-170
4.86378e-170
1.27287e-170
5.03841e-170
1.47416e-170
5.06429e-170
1.67841e-170
4.91915e-170
1.87843e-170
4.57554e-170
2.06036e-170
3.97273e-170
2.18124e-170
2.9852e-170
2.10367e-170
1.5731e-170
1.54764e-170
3.42868e-171
5.48415e-171
1.35438e-172
5.02194e-172
8.2673e-174
-3.32259e-170
3.33717e-171
-7.20469e-169
1.68724e-169
-2.99836e-168
1.58472e-168
-5.51774e-168
4.07735e-168
-7.32443e-168
5.40015e-168
-8.491e-168
5.60707e-168
-9.20698e-168
5.34952e-168
-9.56368e-168
4.93591e-168
-9.85484e-168
4.46607e-168
-4.02809e-167
4.0787e-168
-3.32728e-165
1.49747e-167
-3.2122e-163
1.12298e-165
-2.8294e-161
9.92872e-164
-2.28414e-159
8.06736e-162
-1.70002e-157
6.04426e-160
-1.17228e-155
4.19665e-158
-7.51e-154
2.71591e-156
-4.14446e-152
1.78034e-154
-2.70012e-151
1.10572e-152
-3.62294e-150
6.58316e-151
-2.90141e-148
5.02182e-149
-2.20806e-146
3.64745e-147
-1.59929e-144
2.52482e-145
-1.1051e-142
1.66929e-143
-7.30128e-141
1.05623e-141
-4.62184e-139
6.40775e-140
-2.80857e-137
3.73349e-138
-1.64132e-135
2.09257e-136
-9.24028e-134
1.12992e-134
-5.0195e-132
5.8862e-133
-2.63507e-130
2.9622e-131
-1.33883e-128
1.44189e-129
-6.59293e-127
6.79678e-128
-3.15102e-125
3.10613e-126
-1.46362e-123
1.37767e-124
-6.61574e-122
5.93629e-123
-2.91379e-120
2.48738e-121
-1.25204e-118
1.01439e-119
-5.25528e-117
4.02959e-118
-2.1574e-115
1.56034e-116
-8.67273e-114
5.89318e-115
-3.41822e-112
2.17205e-113
-1.3225e-110
7.81487e-112
-5.02892e-109
2.74507e-110
-1.88179e-107
9.41199e-109
-6.9378e-106
3.14798e-107
-2.52331e-104
1.02577e-105
-9.06496e-103
3.249e-104
-3.2208e-101
9.96359e-103
-1.13325e-99
2.93819e-101
-3.95389e-98
8.22851e-100
-1.36941e-96
2.13433e-98
-4.71399e-95
4.82889e-97
-1.63078e-93
7.71631e-96
-5.77852e-92
-5.19472e-95
-1.95158e-90
-1.38945e-92
-6.06985e-89
-8.18024e-91
-1.72721e-87
-3.4503e-89
-4.46366e-86
-1.18829e-87
-1.03903e-84
-3.47222e-86
-2.15808e-83
-8.71331e-85
-3.95652e-82
-1.87973e-83
-6.32238e-81
-3.46796e-82
-8.675e-80
-5.41871e-81
-1.00361e-78
-7.074e-80
-9.56319e-78
-7.58427e-79
-7.27425e-77
-6.54646e-78
-4.27934e-76
-4.46933e-77
-1.96493e-75
-2.41508e-76
-7.75349e-75
-1.08428e-75
-3.00945e-74
-4.48964e-75
-1.2084e-73
-1.8728e-74
-4.69374e-73
-7.73588e-74
-1.62832e-72
-2.92057e-73
-4.88562e-72
-9.54245e-73
-1.23457e-71
-2.62408e-72
-2.40209e-71
-5.79981e-72
-2.98781e-71
-9.53503e-72
-2.52162e-71
-1.10616e-71
-9.07901e-72
-1.80373e-71
-1.45731e-72
-8.18788e-72
-1.23839e-73
-1.42058e-72
-6.4666e-75
-1.24853e-73
-2.25818e-76
-6.64347e-75
-5.05362e-78
-2.35379e-76
-7.19582e-80
-5.32372e-78
-7.29697e-82
-7.63369e-80
-5.68164e-84
-7.78585e-82
-3.59893e-86
-6.09453e-84
-1.91676e-88
-3.88062e-86
-8.62236e-91
-2.07866e-88
-3.28089e-93
-9.40908e-91
-1.05545e-95
-3.60585e-93
-2.8692e-98
-1.16957e-95
-6.56037e-101
-3.21085e-98
-1.23692e-103
-7.43019e-101
-1.82326e-106
-1.42214e-103
-1.0192e-109
-2.07324e-106
-8.61479e-110
-1.57264e-109
-5.64182e-109
-7.05796e-109
-2.89e-107
-5.06717e-107
-1.20704e-105
-3.73864e-105
-2.58198e-104
-2.85483e-103
3.23347e-102
-2.51985e-101
1.2719e-99
-3.46419e-99
2.97542e-97
-4.92364e-97
5.63234e-95
-7.18942e-95
9.14921e-93
-1.11177e-92
1.2869e-90
-1.51307e-90
1.56266e-88
-1.79376e-88
1.63908e-86
-1.84742e-86
1.4517e-84
-1.61178e-84
1.06635e-82
-1.16873e-82
6.36551e-81
-6.8949e-81
3.01106e-79
-3.22413e-79
1.09278e-77
-1.15579e-77
2.91766e-76
-3.04081e-76
5.39415e-75
-5.50853e-75
6.26875e-74
-6.18742e-74
3.77712e-73
-3.43305e-73
1.11258e-72
-8.26573e-73
1.55504e-72
-7.03582e-73
1.44805e-72
-6.50849e-73
7.11304e-73
-4.00365e-73
2.24324e-73
-1.59574e-73
4.95062e-74
-4.37302e-74
9.3277e-75
-8.43698e-75
1.42845e-75
-1.39496e-75
1.4236e-76
-1.93199e-76
1.10005e-77
-6.95034e-77
7.5585e-79
-1.03868e-77
4.37082e-80
-8.87076e-79
1.91866e-81
-4.96808e-80
6.36352e-83
-1.87396e-81
1.71845e-84
-5.23829e-83
4.09484e-86
-1.20722e-84
9.04419e-88
-2.47181e-86
1.89366e-89
-4.67113e-88
3.7891e-91
-8.26336e-90
7.25552e-93
-1.36968e-91
1.3258e-94
-2.11112e-93
2.2936e-96
-2.97519e-95
3.691e-98
-3.70796e-97
5.30461e-100
-3.8027e-99
6.06118e-102
-2.63713e-101
4.74306e-104
-4.35294e-104
1.11412e-105
1.91597e-106
1.82233e-107
7.53765e-108
3.65867e-109
2.42214e-109
7.4671e-111
6.69683e-111
1.51262e-112
1.70758e-112
3.03798e-114
4.12953e-114
6.04341e-116
9.6043e-116
1.18941e-117
2.16464e-117
2.31339e-119
4.74881e-119
4.44177e-121
1.01674e-120
8.40973e-123
2.12783e-122
1.5684e-124
4.35656e-124
2.87813e-126
8.72989e-126
5.19129e-128
1.71224e-127
9.19346e-130
3.28655e-129
1.59679e-131
6.17156e-131
2.71704e-133
1.13324e-132
4.52415e-135
2.03357e-134
7.36321e-137
3.56381e-136
1.16997e-138
6.09469e-138
1.8127e-140
1.01625e-139
2.73513e-142
1.65067e-141
4.0138e-144
2.60914e-143
5.72093e-146
4.00911e-145
7.90836e-148
5.98154e-147
1.05891e-149
8.65481e-149
2.56162e-151
1.21271e-150
1.06514e-151
1.8639e-152
2.41474e-153
3.8391e-154
4.21313e-155
5.83778e-156
7.0166e-157
1.01847e-157
1.1175e-158
1.71e-159
1.69823e-160
2.74401e-161
2.45643e-162
4.19869e-163
3.37312e-164
6.11177e-165
4.4096e-166
8.48992e-167
8.63188e-168
1.77084e-168
4.0287e-168
8.83473e-169
4.72025e-168
1.11057e-168
5.48425e-168
1.39028e-168
6.22166e-168
1.70789e-168
6.88945e-168
2.05995e-168
7.44359e-168
2.44122e-168
7.84098e-168
2.84449e-168
8.04176e-168
3.26057e-168
8.01177e-168
3.67821e-168
7.72144e-168
4.08268e-168
7.13168e-168
4.44457e-168
6.15502e-168
4.67488e-168
4.61359e-168
4.4954e-168
2.45922e-168
3.34382e-168
5.59756e-169
1.23672e-168
2.24777e-170
1.14938e-169
1.9214e-171
-2.97279e-168
3.94516e-169
-6.29457e-167
1.94658e-167
-2.51335e-166
1.7853e-166
-4.56313e-166
4.40618e-166
-6.05406e-166
5.75676e-166
-7.04342e-166
5.9742e-166
-7.67902e-166
5.7205e-166
-8.0334e-166
5.30741e-166
-8.66062e-166
4.8368e-166
-7.28323e-165
4.62172e-166
-7.01235e-163
3.49125e-165
-6.82512e-161
3.05178e-163
-6.04946e-159
2.72024e-161
-4.91265e-157
2.22408e-159
-3.67723e-155
1.67629e-157
-2.53976e-153
1.17691e-155
-1.24149e-151
9.456e-154
-2.83903e-151
5.08766e-152
-1.62538e-149
3.99695e-150
-1.39064e-147
3.25235e-148
-1.12624e-145
2.50917e-146
-8.65703e-144
1.84038e-144
-6.33231e-142
1.28631e-142
-4.41827e-140
8.58576e-141
-2.94712e-138
5.48354e-139
-1.88317e-136
3.35727e-137
-1.15495e-134
1.97375e-135
-6.81073e-133
1.11601e-133
-3.86833e-131
6.07798e-132
-2.11959e-129
3.19281e-130
-1.12214e-127
1.61988e-128
-5.7484e-126
7.94751e-127
-2.85345e-124
3.77511e-125
-1.37441e-122
1.73806e-123
-6.43221e-121
7.7642e-122
-2.92867e-119
3.36868e-120
-1.29898e-117
1.42089e-118
-5.61954e-116
5.83145e-117
-2.37413e-114
2.33054e-115
-9.80723e-113
9.07635e-114
-3.96605e-111
3.44671e-112
-1.57205e-109
1.27687e-110
-6.11512e-108
4.61612e-109
-2.33722e-106
1.62868e-107
-8.78787e-105
5.60698e-106
-3.25458e-103
1.88223e-104
-1.18871e-101
6.15307e-103
-4.28721e-100
1.9542e-101
-1.52878e-98
6.00551e-100
-5.39704e-97
1.77327e-98
-1.88873e-95
4.96649e-97
-6.55911e-94
1.28548e-95
-2.26395e-92
2.88665e-94
-7.86454e-91
4.47058e-93
-2.78747e-89
-4.19932e-92
-9.39035e-88
-8.691e-90
-2.90926e-86
-4.99743e-88
-8.23533e-85
-2.08181e-86
-2.11446e-83
-7.09696e-85
-4.88385e-82
-2.05315e-83
-1.00529e-80
-5.09863e-82
-1.82424e-79
-1.08763e-80
-2.88164e-78
-1.98223e-79
-3.90334e-77
-3.05613e-78
-4.45155e-76
-3.9314e-77
-4.17437e-75
-4.14618e-76
-3.11661e-74
-3.5116e-75
-1.78971e-73
-2.34279e-74
-7.94287e-73
-1.22894e-73
-3.00081e-72
-5.31177e-73
-1.11549e-71
-2.10844e-72
-4.33993e-71
-8.48875e-72
-1.65283e-70
-3.42748e-71
-5.65516e-70
-1.27541e-70
-1.68031e-69
-4.12467e-70
-4.22854e-69
-1.12716e-69
-8.21319e-69
-2.48596e-69
-1.02669e-68
-4.09212e-69
-8.66189e-69
-4.75787e-69
-3.12422e-69
-6.44226e-69
-5.02707e-70
-2.89137e-69
-4.29235e-71
-5.01423e-70
-2.25762e-72
-4.42607e-71
-7.95977e-74
-2.37304e-72
-1.80232e-75
-8.49443e-74
-2.60132e-77
-1.94569e-75
-2.67812e-79
-2.83107e-77
-2.11985e-81
-2.93525e-79
-1.36642e-83
-2.33902e-81
-7.41064e-86
-1.51787e-83
-3.39581e-88
-8.29379e-86
-1.31625e-90
-3.83173e-88
-4.31189e-93
-1.49925e-90
-1.19284e-95
-4.96543e-93
-2.77255e-98
-1.39143e-95
-5.30662e-101
-3.25208e-98
-7.9314e-104
-6.14319e-101
-4.43461e-107
-9.037e-104
-3.7233e-107
-8.52214e-107
-2.14099e-106
-3.30621e-106
-1.16658e-104
-2.50403e-104
-5.25642e-103
-1.94384e-102
-1.28339e-101
-1.55496e-100
1.26771e-99
-1.40773e-98
5.40581e-97
-1.93206e-96
1.28183e-94
-2.73698e-94
2.43122e-92
-3.71192e-92
3.93701e-90
-5.14754e-90
5.50974e-88
-6.89408e-88
6.6473e-86
-8.05536e-86
6.92257e-84
-8.18722e-84
6.08636e-82
-7.05667e-82
4.43951e-80
-5.06145e-80
2.63357e-78
-2.95792e-78
1.23939e-76
-1.37249e-76
4.48184e-75
-4.89191e-75
1.19454e-73
-1.28265e-73
2.20945e-72
-2.32213e-72
2.5753e-71
-2.61664e-71
1.56055e-70
-1.46564e-70
4.63684e-70
-3.60699e-70
6.53085e-70
-3.71486e-70
6.15611e-70
-3.46072e-70
3.052e-70
-2.14644e-70
9.71079e-71
-8.62685e-71
2.16915e-71
-2.38725e-71
3.98318e-72
-4.66245e-72
6.15221e-73
-7.49557e-73
6.35873e-74
-1.04712e-73
4.93805e-75
-2.9338e-74
3.41885e-76
-4.55861e-75
2.01135e-77
-4.00375e-76
9.05804e-79
-2.32061e-77
3.08655e-80
-9.0604e-79
8.53084e-82
-2.61011e-80
2.07109e-83
-6.16471e-82
4.64544e-85
-1.28804e-83
9.85792e-87
-2.47747e-85
1.99647e-88
-4.45508e-87
3.86503e-90
-7.5025e-89
7.13349e-92
-1.17493e-90
1.24564e-93
-1.68378e-92
2.02365e-95
-2.13929e-94
2.94299e-97
-2.25231e-96
3.43904e-99
-1.64193e-98
2.67442e-101
-3.4435e-101
5.07703e-103
1.19572e-103
9.40994e-105
4.84085e-105
1.87386e-106
1.56827e-106
3.79545e-108
4.33312e-108
7.63426e-110
1.10118e-109
1.52211e-111
2.65046e-111
3.00506e-113
6.12981e-113
5.86824e-115
1.37295e-114
1.13222e-116
2.99176e-116
2.15597e-118
6.35987e-118
4.04744e-120
1.32105e-119
7.48299e-122
2.68372e-121
1.36101e-123
5.33442e-123
2.43264e-125
1.03757e-124
4.2683e-127
1.97453e-126
7.34379e-129
3.67529e-128
1.23765e-130
6.68804e-130
2.0408e-132
1.18915e-131
3.28875e-134
2.06447e-133
5.17345e-136
3.49697e-135
7.93456e-138
5.77454e-137
1.18499e-139
9.28733e-139
1.72102e-141
1.4534e-140
2.42746e-143
2.21074e-142
3.32039e-145
3.26479e-144
4.3979e-147
4.6753e-146
5.63182e-149
6.48385e-148
8.16363e-151
8.69525e-150
2.62943e-151
1.14706e-151
1.01197e-152
2.45941e-153
1.69237e-154
3.23322e-155
2.66419e-156
5.25578e-157
4.00454e-158
8.33956e-159
5.7326e-160
1.26295e-160
7.79273e-162
1.82e-162
1.00525e-163
2.49482e-164
1.52871e-165
4.04267e-166
3.86529e-166
1.09264e-166
4.36338e-166
1.32332e-166
4.99326e-166
1.63161e-166
5.5874e-166
1.97692e-166
6.11001e-166
2.35456e-166
6.52676e-166
2.75852e-166
6.80502e-166
3.18104e-166
6.91549e-166
3.6125e-166
6.83383e-166
4.04152e-166
6.53903e-166
4.45297e-166
6.00231e-166
4.8168e-166
5.15612e-166
5.0417e-166
3.86356e-166
4.84557e-166
2.0882e-166
3.65392e-166
4.97752e-167
1.41485e-166
2.05312e-168
1.34947e-167
2.31461e-169
-1.7513e-166
2.9609e-167
-3.56991e-165
1.40657e-165
-1.36136e-164
1.24156e-164
-2.43531e-164
2.92572e-164
-3.22589e-164
3.76578e-164
-3.76456e-164
3.90152e-164
-4.12511e-164
3.74714e-164
-4.34836e-164
3.49413e-164
-5.44883e-164
3.20852e-164
-1.28821e-162
3.56347e-164
-1.35123e-160
7.56751e-163
-1.32293e-158
7.20642e-161
-1.17914e-156
6.46137e-159
-9.63474e-155
5.31335e-157
-7.17562e-153
4.09134e-155
-2.41446e-151
3.81859e-153
-7.28813e-151
2.09007e-151
-5.93575e-149
1.88458e-149
-5.42999e-147
1.63534e-147
-4.68572e-145
1.34153e-145
-3.82612e-143
1.0434e-143
-2.96474e-141
7.71376e-142
-2.1857e-139
5.43326e-140
-1.53676e-137
3.65393e-138
-1.03274e-135
2.3508e-136
-6.64701e-134
1.44951e-134
-4.10529e-132
8.58032e-133
-2.43736e-130
4.88373e-131
-1.39344e-128
2.67674e-129
-7.68326e-127
1.41472e-127
-4.09218e-125
7.21961e-126
-2.1084e-123
3.56185e-124
-1.05234e-121
1.70084e-122
-5.09507e-120
7.86974e-121
-2.39617e-118
3.53202e-119
-1.09602e-116
1.53916e-117
-4.8821e-115
6.51842e-116
-2.12042e-113
2.68521e-114
-8.99087e-112
1.07679e-112
-3.72628e-110
4.20644e-111
-1.51137e-108
1.60172e-109
-6.00643e-107
5.9478e-108
-2.34173e-105
2.15456e-106
-8.9673e-104
7.61431e-105
-3.37693e-102
2.62469e-103
-1.25214e-100
8.81886e-102
-4.57718e-99
2.88441e-100
-1.6516e-97
9.16189e-99
-5.89016e-96
2.81471e-97
-2.0789e-94
8.30476e-96
-7.27093e-93
2.3229e-94
-2.52261e-91
5.99982e-93
-8.69642e-90
1.34248e-91
-3.01796e-88
2.05935e-90
-1.06759e-86
-2.0412e-89
-3.58384e-85
-4.01555e-87
-1.10481e-83
-2.28708e-85
-3.10777e-82
-9.45044e-84
-7.91931e-81
-3.19435e-82
-1.81323e-79
-9.1555e-81
-3.69556e-78
-2.25043e-79
-6.63229e-77
-4.74688e-78
-1.03489e-75
-8.54529e-77
-1.38298e-74
-1.29983e-75
-1.55394e-73
-1.64749e-74
-1.43347e-72
-1.70912e-73
-1.05037e-71
-1.42059e-72
-5.88972e-71
-9.2656e-72
-2.52813e-70
-4.72156e-71
-9.14731e-70
-1.96596e-70
-3.25449e-69
-7.48031e-70
-1.22573e-68
-2.90451e-69
-4.57499e-68
-1.14578e-68
-1.54361e-67
-4.2021e-68
-4.54159e-67
-1.34516e-67
-1.13824e-66
-3.6534e-67
-2.20674e-66
-8.04212e-67
-2.77388e-66
-1.3259e-66
-2.34036e-66
-1.54565e-66
-8.46068e-67
-1.80687e-66
-1.36513e-67
-8.02941e-67
-1.17156e-68
-1.39253e-67
-6.20864e-70
-1.23499e-68
-2.2108e-71
-6.67394e-70
-5.0665e-73
-2.41437e-71
-7.41477e-75
-5.60231e-73
-7.7526e-77
-8.27428e-75
-6.24023e-79
-8.72312e-77
-4.0944e-81
-7.07829e-79
-2.26186e-83
-4.68242e-81
-1.05607e-85
-2.61046e-83
-4.17081e-88
-1.23113e-85
-1.39158e-90
-4.91909e-88
-3.91721e-93
-1.6631e-90
-9.25566e-96
-4.65982e-93
-1.79878e-98
-1.09097e-95
-2.72552e-101
-2.09112e-98
-1.52577e-104
-3.11175e-101
-1.27319e-104
-3.51634e-104
-6.3425e-104
-1.16666e-103
-3.67509e-102
-9.34066e-102
-1.7773e-100
-7.64253e-100
-4.80282e-99
-6.41322e-98
4.05106e-97
-5.97296e-96
1.84127e-94
-8.18224e-94
4.40393e-92
-1.15491e-91
8.35222e-90
-1.55798e-89
1.34653e-87
-1.95455e-87
1.87225e-85
-2.48453e-85
2.24209e-83
-2.8612e-83
2.31631e-81
-2.86874e-81
2.0201e-79
-2.44171e-79
1.46218e-77
-1.73156e-77
8.61406e-76
-1.00194e-75
4.03074e-74
-4.61098e-74
1.45152e-72
-1.63328e-72
3.85992e-71
-4.26577e-71
7.13894e-70
-7.71424e-70
8.34165e-69
-8.7154e-69
5.08133e-68
-4.92411e-68
1.52219e-67
-1.23636e-67
2.15921e-67
-1.47882e-67