/*--------------------------------*- C++ -*----------------------------------*\
| =========                 |                                                 |
| \\      /  F ield         | OpenFOAM: The Open Source CFD Toolbox           |
|  \\    /   O peration     | Version:  2412                                  |
|   \\  /    A nd           | Website:  www.openfoam.com                      |
|    \\/     M anipulation  |                                                 |
\*---------------------------------------------------------------------------*/
FoamFile
{
    version     2.0;
    format      ascii;
    arch        "LSB;label=32;scalar=64";
    class       volScalarField;
    location    "1.9";
    object      alpha.water;
}
// * * * * * * * * * * * * * * * * * * * * * * * * * * * * * * * * * * * * * //

dimensions      [0 0 0 0 0 0 0];

internalField   nonuniform List<scalar> 
40000
(
9.19107e-171
4.47823e-169
5.55249e-168
1.78963e-167
2.51566e-167
2.61202e-167
2.45346e-167
2.21693e-167
1.95674e-167
1.69309e-167
1.43669e-167
1.19518e-167
9.74323e-168
8.02431e-168
3.63145e-167
3.37055e-165
3.48537e-163
3.3719e-161
3.05856e-159
2.60931e-157
2.09951e-155
1.59735e-153
1.15182e-151
7.88882e-150
5.14098e-148
3.14289e-146
9.24937e-145
3.38452e-144
1.94046e-142
1.6544e-140
1.36126e-138
1.08237e-136
8.32833e-135
6.20975e-133
4.4926e-131
3.15783e-129
2.15921e-127
1.438e-125
9.33916e-124
5.92209e-122
3.67101e-120
2.22723e-118
1.32416e-116
7.72396e-115
4.42584e-113
2.49429e-111
1.38432e-109
7.57559e-108
4.09306e-106
2.18626e-104
1.156e-102
6.05892e-101
3.14902e-99
1.63037e-97
8.83301e-96
4.85482e-94
2.19633e-92
8.12901e-91
2.57005e-89
7.04279e-88
1.67606e-86
3.45801e-85
6.46599e-84
1.16849e-82
1.80798e-81
2.36075e-80
2.56077e-79
2.26886e-78
1.62063e-77
9.37122e-77
4.57695e-76
2.05092e-75
9.0096e-75
3.82737e-74
1.4754e-73
5.03296e-73
1.48337e-72
3.59678e-72
4.07068e-72
1.08706e-72
1.63644e-73
1.36201e-74
7.12649e-76
2.50745e-77
5.65607e-79
8.14907e-81
8.3762e-83
6.62174e-85
4.27212e-87
2.32192e-89
1.07149e-91
4.20715e-94
1.40897e-96
4.03187e-99
9.84047e-102
2.01543e-104
3.3027e-107
1.09595e-109
1.09595e-109
1.09595e-109
3.10509e-109
1.86485e-107
1.2179e-105
8.28957e-104
7.01591e-102
9.61319e-100
1.37242e-97
1.88838e-95
2.43278e-93
2.86253e-91
3.01278e-89
2.80621e-87
2.24898e-85
1.51485e-83
8.37393e-82
3.69586e-80
1.25959e-78
3.18103e-77
5.62774e-76
6.43577e-75
4.02995e-74
1.38669e-73
1.43966e-73
5.08975e-74
1.33782e-74
2.50367e-75
3.28115e-76
2.93669e-77
1.95273e-78
1.07927e-79
4.56211e-81
1.48152e-82
3.88801e-84
8.85469e-86
1.84966e-87
3.64901e-89
6.88029e-91
1.24445e-92
2.15835e-94
3.57586e-96
5.60916e-98
8.17806e-100
1.06351e-101
1.10961e-103
1.38601e-105
1.94621e-107
7.71192e-109
1.1439e-110
1.52144e-112
2.04678e-114
2.73527e-116
3.62191e-118
4.74674e-120
6.15019e-122
7.86933e-124
9.93287e-126
1.23549e-127
1.51278e-129
1.82152e-131
2.1546e-133
2.50105e-135
2.84611e-137
3.17176e-139
3.45785e-141
3.73423e-143
1.78669e-144
3.19753e-145
5.89776e-147
8.66853e-149
1.23128e-150
1.69298e-152
2.25034e-154
2.8877e-156
3.57234e-158
4.25416e-160
4.86925e-162
5.34788e-164
5.6295e-166
6.2163e-168
9.10433e-169
1.27331e-168
1.83733e-168
2.57968e-168
3.53018e-168
4.71634e-168
6.15467e-168
7.85083e-168
9.79846e-168
1.19781e-167
1.43514e-167
1.6869e-167
1.94696e-167
2.20767e-167
2.45513e-167
2.63814e-167
2.5661e-167
1.82013e-167
5.41268e-168
3.79266e-169
6.3447e-171
4.79499e-167
1.77383e-165
1.66622e-164
4.67401e-164
6.36764e-164
6.6045e-164
6.23267e-164
5.6631e-164
5.02898e-164
4.38215e-164
4.01651e-164
3.15956e-163
2.69645e-161
2.33721e-159
1.86987e-157
1.38677e-155
9.57727e-154
6.18359e-152
3.74557e-150
2.13496e-148
1.14182e-146
4.38108e-145
1.632e-144
4.22603e-143
2.98267e-141
2.01889e-139
1.31129e-137
8.18774e-136
4.92334e-134
2.85563e-132
1.60017e-130
8.67575e-129
4.55774e-127
2.32327e-125
1.15066e-123
5.54449e-122
2.60261e-120
1.19164e-118
5.32854e-117
2.32994e-115
9.97448e-114
4.18582e-112
1.72405e-110
6.97809e-109
2.77894e-107
1.09023e-105
4.21898e-104
1.61248e-102
6.09458e-101
2.28098e-99
8.46468e-98
3.11859e-96
1.14101e-94
4.17428e-93
1.58369e-91
5.79976e-90
1.93676e-88
5.84626e-87
1.59068e-85
3.87954e-84
8.417e-83
1.60886e-81
2.67724e-80
3.82237e-79
4.59831e-78
4.55334e-77
3.59851e-76
2.19947e-75
1.04659e-74
4.26834e-74
1.71776e-73
7.11022e-73
2.7854e-72
9.47603e-72
2.71575e-71
6.33347e-71
1.05014e-70
7.06033e-71
8.2289e-72
4.07068e-72
1.04105e-72
1.47392e-73
1.13445e-74
4.54128e-76
2.50123e-77
5.64337e-79
8.13304e-81
8.3622e-83
6.61266e-85
4.26754e-87
2.32012e-89
1.07098e-91
4.20638e-94
1.40912e-96
4.03349e-99
9.84731e-102
2.01742e-104
3.3047e-107
2.54404e-109
5.51851e-108
3.16542e-106
1.62294e-104
8.19227e-103
4.24921e-101
2.03709e-99
1.37538e-97
1.8937e-95
2.43884e-93
2.86874e-91
3.01834e-89
2.81049e-87
2.25169e-85
1.51619e-83
8.3787e-82
3.69681e-80
1.25953e-78
3.12827e-77
4.64874e-76
5.59394e-75
3.73315e-74
1.38669e-73
3.07223e-73
2.28682e-72
4.60759e-72
2.69562e-72
8.54647e-73
1.33929e-73
1.30935e-74
1.96206e-76
1.95273e-78
1.07927e-79
4.56211e-81
1.48152e-82
3.888e-84
8.85468e-86
1.84966e-87
3.64901e-89
6.88028e-91
1.24445e-92
2.15835e-94
3.57586e-96
5.60916e-98
8.17806e-100
1.06351e-101
1.10961e-103
1.38601e-105
6.17627e-104
2.88591e-105
2.71258e-107
5.12089e-109
9.89715e-111
1.89188e-112
3.58421e-114
6.72422e-116
1.24778e-117
2.28769e-119
4.1394e-121
7.38384e-123
1.29706e-124
2.2413e-126
3.80565e-128
6.3427e-130
1.03647e-131
1.6588e-133
2.59713e-135
3.97327e-137
5.93258e-139
8.63469e-141
1.2233e-142
2.43897e-144
8.13743e-145
3.03625e-146
5.85742e-148
1.0735e-149
1.89619e-151
3.22289e-153
5.26063e-155
8.22977e-157
1.23134e-158
1.75812e-160
2.39345e-162
3.62487e-164
7.83694e-165
1.00483e-164
1.32229e-164
1.70301e-164
2.14687e-164
2.65115e-164
3.20975e-164
3.813e-164
4.44757e-164
5.09674e-164
5.73854e-164
6.33024e-164
6.73393e-164
6.49624e-164
4.6981e-164
1.5821e-164
1.47387e-165
3.3721e-167
2.18396e-164
7.69546e-163
6.91086e-162
1.84007e-161
2.4736e-161
2.57263e-161
2.4427e-161
2.23616e-161
2.00317e-161
1.78042e-161
3.54906e-161
1.98678e-159
1.74952e-157
1.42136e-155
1.06512e-153
7.40052e-152
4.78939e-150
2.89842e-148
1.63259e-146
5.83248e-145
1.83068e-144
6.54155e-143
4.77811e-141
3.33086e-139
2.21948e-137
1.41665e-135
8.67877e-134
5.11257e-132
2.90113e-130
1.58841e-128
8.40451e-127
4.30401e-125
2.13638e-123
1.02929e-121
4.82e-120
2.19676e-118
9.75695e-117
4.2286e-115
1.79052e-113
7.41663e-112
3.00898e-110
1.19717e-108
4.67683e-107
1.79617e-105
6.79016e-104
2.52986e-102
9.3013e-101
3.37889e-99
1.21436e-97
4.32349e-96
1.52689e-94
5.35548e-93
1.86629e-91
6.51586e-90
2.35631e-88
8.13591e-87
2.58145e-85
7.48999e-84
1.97356e-82
4.68477e-81
9.92552e-80
1.8567e-78
3.02775e-77
4.23916e-76
5.00183e-75
4.85599e-74
3.75721e-73
2.23916e-72
1.03042e-71
4.02896e-71
1.55537e-70
6.25183e-70
2.40902e-69
8.12097e-69
2.32008e-68
5.44896e-68
9.23573e-68
7.16713e-68
2.01576e-68
6.49078e-69
1.9032e-69
2.90828e-70
2.45038e-71
1.29809e-72
4.63133e-74
1.06082e-75
1.55406e-77
1.62659e-79
1.3111e-81
8.63376e-84
4.79294e-86
2.2599e-88
9.06581e-91
3.10052e-93
9.05265e-96
2.25194e-98
4.69558e-101
7.80488e-104
4.3269e-106
6.06172e-105
3.67815e-103
2.08781e-101
1.18721e-99
7.40452e-98
6.13687e-96
3.36272e-94
4.56805e-92
5.83896e-90
6.80371e-88
7.08558e-86
6.52802e-84
5.17498e-82
3.44928e-80
1.88825e-78
8.26189e-77
2.7949e-75
7.01486e-74
1.23432e-72
1.40254e-71
8.66469e-71
2.77325e-70
4.93944e-70
3.00066e-69
5.07733e-69
2.9162e-69
9.31112e-70
1.55173e-70
1.52295e-71
4.24747e-73
4.84466e-75
2.81909e-76
1.26051e-77
4.34972e-79
1.21879e-80
2.98095e-82
6.73929e-84
1.45356e-85
3.03537e-87
6.18102e-89
1.2326e-90
2.41416e-92
4.65286e-94
8.83296e-96
1.65178e-97
3.04025e-99
5.57858e-101
8.31933e-101
5.42779e-102
6.2236e-104
1.23099e-105
2.50056e-107
5.03236e-109
1.00424e-110
1.98541e-112
3.88432e-114
7.51168e-116
1.43427e-117
2.70097e-119
5.01098e-121
9.14879e-123
1.64197e-124
2.89366e-126
5.0018e-128
8.47053e-130
1.40379e-131
2.27398e-133
3.59621e-135
5.54541e-137
8.32711e-139
1.21604e-140
1.72421e-142
3.01553e-144
9.52389e-145
4.20421e-146
8.06815e-148
1.45598e-149
2.5237e-151
4.19441e-153
6.66936e-155
1.01217e-156
1.46268e-158
2.03217e-160
6.07199e-162
4.60053e-162
5.89931e-162
7.46359e-162
9.25709e-162
1.12635e-161
1.34549e-161
1.57906e-161
1.82182e-161
2.06719e-161
2.30625e-161
2.52121e-161
2.65749e-161
2.5464e-161
1.85881e-161
6.59848e-162
6.42264e-163
1.54659e-164
3.58623e-162
1.24564e-160
1.10383e-159
2.83009e-159
3.76396e-159
3.91776e-159
3.73821e-159
3.44476e-159
3.11084e-159
2.83476e-159
1.03836e-158
7.76874e-157
6.85291e-155
5.55591e-153
4.15406e-151
2.87879e-149
1.85513e-147
1.05102e-145
1.32358e-144
7.4543e-144
5.72506e-142
4.4136e-140
3.23575e-138
2.26182e-136
1.51096e-134
9.66691e-133
5.93518e-131
3.50351e-129
1.99187e-127
1.09252e-125
5.79034e-124
2.96989e-122
1.4763e-120
7.12227e-119
3.33941e-117
1.52373e-115
6.77484e-114
2.93902e-112
1.24557e-110
5.16347e-109
2.09634e-107
8.34575e-106
3.26206e-104
1.25337e-102
4.73989e-101
1.76645e-99
6.49571e-98
2.35992e-96
8.48153e-95
3.01942e-93
1.06615e-91
3.73797e-90
1.30291e-88
4.56674e-87
1.64065e-85
5.61032e-84
1.76537e-82
5.08207e-81
1.32855e-79
3.12765e-78
6.5678e-77
1.21677e-75
1.96328e-74
2.71692e-73
3.16477e-72
3.02896e-71
2.30553e-70
1.34567e-69
6.01076e-69
2.25751e-68
8.35919e-68
3.26159e-67
1.23675e-66
4.13299e-66
1.17665e-65
2.77723e-65
4.78838e-65
4.08787e-65
1.68646e-65
4.98001e-66
1.46166e-66
2.23932e-67
1.89588e-68
1.01166e-69
3.64508e-71
8.45015e-73
1.2553e-74
1.33453e-76
1.09405e-78
7.33504e-81
4.14846e-83
1.99339e-85
8.14882e-88
2.83868e-90
8.43888e-93
2.13379e-95
4.50961e-98
6.07641e-101
3.49572e-103
3.71757e-102
2.43588e-100
1.5108e-98
9.4454e-97
6.56255e-95
6.48509e-93
5.77668e-91
4.54604e-89
5.76255e-87
6.66349e-85
6.8795e-83
6.28164e-81
4.93598e-79
3.26286e-77
1.7731e-75
7.71115e-74
2.59709e-72
6.50242e-71
1.14396e-69
1.30292e-68
8.08754e-68
2.60235e-67
7.44164e-67
2.18325e-66
3.28554e-66
1.86025e-66
5.97505e-67
1.04689e-67
1.03293e-68
3.95022e-70
5.05067e-72
2.99752e-73
1.37417e-74
4.87762e-76
1.40617e-77
3.53407e-79
8.20486e-81
1.81845e-82
3.90853e-84
8.21186e-86
1.69488e-87
3.44925e-89
6.94148e-91
1.38438e-92
2.7401e-94
5.38721e-96
1.05245e-97
4.98376e-98
2.80285e-99
4.59974e-101
9.12441e-103
1.84334e-104
3.69763e-106
7.35559e-108
1.44959e-109
2.82691e-111
5.4491e-113
1.03705e-114
1.94652e-116
3.59933e-118
6.54955e-120
1.17153e-121
2.05761e-123
3.54453e-125
5.98205e-127
9.8795e-129
1.59479e-130
2.51321e-132
3.86164e-134
5.77789e-136
8.40697e-138
1.18788e-139
1.62754e-141
2.1801e-143
1.48987e-144
2.69157e-145
5.77211e-147
1.00329e-148
1.66602e-150
2.64569e-152
4.00908e-154
5.78312e-156
7.96588e-158
1.64854e-159
8.16479e-160
1.01944e-159
1.26824e-159
1.54903e-159
1.85851e-159
2.19193e-159
2.54296e-159
2.90356e-159
3.26395e-159
3.6108e-159
3.91666e-159
4.09966e-159
3.91364e-159
2.88501e-159
1.0671e-159
1.05181e-160
2.56782e-162
3.29894e-160
1.12036e-158
9.70943e-158
2.39054e-157
3.13867e-157
3.26666e-157
3.1291e-157
2.89986e-157
2.63786e-157
2.51514e-157
1.89562e-156
1.65318e-154
1.47022e-152
1.19943e-150
9.02038e-149
6.26545e-147
3.29472e-145
1.58161e-144
2.94613e-143
2.54128e-141
2.0949e-139
1.63698e-137
1.21599e-135
8.60873e-134
5.82226e-132
3.76991e-130
2.34172e-128
1.39805e-126
8.03642e-125
4.45539e-123
2.38608e-121
1.23629e-119
6.2063e-118
3.02296e-116
1.4306e-114
6.58669e-113
2.95427e-111
1.29248e-109
5.52251e-108
2.30746e-106
9.43965e-105
3.78565e-103
1.49013e-101
5.76425e-100
2.19402e-98
8.22729e-97
3.04329e-95
1.11186e-93
4.01738e-92
1.43743e-90
5.09982e-89
1.79598e-87
6.28819e-86
2.21734e-84
7.98185e-83
2.72718e-81
8.56305e-80
2.45657e-78
6.39162e-77
1.49575e-75
3.11847e-74
5.72907e-73
9.15548e-72
1.25328e-70
1.44214e-69
1.36152e-68
1.02026e-67
5.83856e-67
2.53523e-66
9.15636e-66
3.251e-65
1.22999e-64
4.58692e-64
1.51921e-63
4.30846e-63
1.0211e-62
1.78735e-62
1.64926e-62
8.42339e-63
2.38629e-63
7.01098e-64
1.07708e-64
9.16444e-66
4.92674e-67
1.79259e-68
4.2053e-70
6.33356e-72
6.83724e-74
5.69911e-76
3.88876e-78
2.23977e-80
1.09632e-82
4.5649e-85
1.61995e-87
4.8947e-90
1.17293e-92
2.02748e-95
2.67371e-98
1.92212e-100
1.60202e-99
1.12944e-97
7.57371e-96
5.12468e-94
3.83739e-92
4.11774e-90
4.29127e-88
3.7899e-86
3.5307e-84
4.05003e-82
4.14569e-80
3.75199e-78
2.9226e-76
1.91614e-74
1.03367e-72
4.46823e-71
1.49819e-69
3.74154e-68
6.5802e-67
7.51003e-66
4.68223e-65
1.51588e-64
5.24977e-64
1.11298e-63
1.52901e-63
8.54911e-64
2.76093e-64
5.04952e-65
5.00731e-66
2.35506e-67
3.21744e-69
1.94029e-70
9.07933e-72
3.29671e-73
9.7089e-75
2.48391e-76
5.85066e-78
1.31239e-79
2.84993e-81
6.04005e-83
1.25561e-84
2.5699e-86
5.19452e-88
1.03938e-89
2.06232e-91
4.06265e-93
7.95128e-95
2.27621e-95
1.28528e-96
2.38452e-98
4.67948e-100
9.36706e-102
1.86288e-103
3.67323e-105
7.1737e-107
1.38606e-108
2.64649e-110
4.98803e-112
9.26999e-114
1.69685e-115
3.05597e-117
5.40904e-119
9.39891e-121
1.60155e-122
2.6731e-124
4.36524e-126
6.96635e-128
1.08514e-129
1.6478e-131
2.43615e-133
3.50185e-135
4.88739e-137
6.613e-139
8.66123e-141
1.09735e-142
2.29617e-144
7.69982e-145
2.41191e-146
4.01211e-148
6.30343e-150
9.45315e-152
1.3499e-153
1.83478e-155
2.94974e-157
7.91422e-158
9.52009e-158
1.16644e-157
1.40514e-157
1.66469e-157
1.94087e-157
2.22834e-157
2.52059e-157
2.80979e-157
3.08519e-157
3.32458e-157
3.46189e-157
3.30135e-157
2.46513e-157
9.53418e-158
9.62809e-159
2.40728e-160
2.02868e-158
6.64284e-157
5.54671e-156
1.30492e-155
1.68867e-155
1.75508e-155
1.68648e-155
1.57093e-155
1.43989e-155
1.59574e-155
3.38096e-154
3.21208e-152
2.87329e-150
2.35665e-148
1.76633e-146
7.2185e-145
2.0741e-144
9.65462e-143
9.05493e-141
8.00671e-139
6.68518e-137
5.28768e-135
3.97347e-133
2.84426e-131
1.94402e-129
1.27153e-127
7.97506e-126
4.80563e-124
2.7871e-122
1.55839e-120
8.41425e-119
4.39378e-117
2.22219e-115
1.09009e-113
5.19369e-112
2.4066e-110
1.08596e-108
4.77818e-107
2.05258e-105
8.61927e-104
3.54252e-102
1.4268e-100
5.63843e-99
2.18896e-97
8.3587e-96
3.14345e-94
1.16571e-92
4.26818e-91
1.545e-89
5.53626e-88
1.96644e-86
6.93057e-85
2.42789e-83
8.56828e-82
3.08379e-80
1.05174e-78
3.2916e-77
9.39979e-76
2.43151e-74
5.65057e-73
1.16856e-71
2.12704e-70
3.36402e-69
4.55191e-68
5.17108e-67
4.81344e-66
3.55015e-65
1.99231e-64
8.41583e-64
2.92467e-63
9.95176e-63
3.64604e-62
1.33604e-61
4.3832e-61
1.23746e-60
2.94173e-60
5.21582e-60
5.13019e-60
3.00342e-60
8.30158e-61
2.4422e-61
3.76355e-62
3.2193e-63
1.74415e-64
6.41052e-66
1.52229e-67
2.32509e-69
2.54944e-71
2.16122e-73
1.50123e-75
8.80734e-78
4.39231e-80
1.86437e-82
6.72801e-85
1.82898e-87
4.04182e-90
7.07785e-93
9.30098e-96
8.01299e-98
5.31458e-97
4.02542e-95
2.90067e-93
2.10618e-91
1.67376e-89
1.88073e-87
2.10762e-85
2.12852e-83
1.79862e-81
1.78882e-79
1.81624e-77
1.62864e-75
1.25711e-73
8.17136e-72
4.37419e-70
1.87863e-68
6.2684e-67
1.56084e-65
2.74296e-64
3.13573e-63
1.96286e-62
6.39284e-62
2.44894e-61
4.34458e-61
5.56729e-61
3.08141e-61
1.00071e-61
1.90034e-62
1.89395e-63
1.0354e-64
1.47788e-66
9.05078e-68
4.32073e-69
1.60463e-70
4.82883e-72
1.2582e-73
3.00796e-75
6.83031e-77
1.49839e-78
3.20198e-80
6.69826e-82
1.37674e-83
2.78861e-85
5.57965e-87
1.10485e-88
2.16792e-90
4.21882e-92
9.55997e-93
5.39133e-94
1.03409e-95
2.02072e-97
4.02934e-99
7.98211e-101
1.56729e-102
3.04711e-104
5.85923e-106
1.11307e-107
2.08667e-109
3.85617e-111
7.01713e-113
1.256e-114
2.20891e-116
3.8128e-118
6.45225e-120
1.06928e-121
1.73334e-123
2.74527e-125
4.24298e-127
6.39146e-129
9.37157e-131
1.33574e-132
1.84807e-134
2.47831e-136
3.21628e-138
4.03261e-140
4.877e-142
6.21233e-144
1.27859e-144
8.71422e-146
1.43826e-147
2.14945e-149
3.0548e-151
4.12393e-153
5.63132e-155
5.24986e-156
5.6785e-156
6.8552e-156
8.15316e-156
9.54681e-156
1.10128e-155
1.25226e-155
1.40428e-155
1.55335e-155
1.69405e-155
1.81504e-155
1.88256e-155
1.79697e-155
1.3628e-155
5.53961e-156
5.83225e-157
1.51665e-158
9.04372e-157
2.82536e-155
2.2437e-154
5.02515e-154
6.39995e-154
6.63663e-154
6.39474e-154
5.98588e-154
5.55737e-154
1.07106e-153
6.27086e-152
6.12782e-150
5.48344e-148
4.38392e-146
1.12933e-144
3.54341e-144
2.75111e-142
2.79787e-140
2.66203e-138
2.38029e-136
2.00787e-134
1.60321e-132
1.21534e-130
8.77052e-129
6.04013e-127
3.97865e-125
2.51186e-123
1.52289e-121
8.88259e-120
4.99286e-118
2.70894e-116
1.42089e-114
7.21556e-113
3.55263e-111
1.69823e-109
7.89206e-108
3.57027e-106
1.57429e-104
6.77475e-103
2.84883e-101
1.17204e-99
4.72349e-98
1.86707e-96
7.24724e-95
2.76592e-93
1.03921e-91
3.84874e-90
1.40681e-88
5.08184e-87
1.81654e-85
6.43407e-84
2.26046e-82
7.89042e-81
2.77315e-79
9.94756e-78
3.37929e-76
1.05219e-74
2.9861e-73
7.66856e-72
1.76744e-70
3.62146e-69
6.52455e-68
1.02027e-66
1.36351e-65
1.52811e-64
1.40158e-63
1.01704e-62
5.59707e-62
2.30118e-61
7.69877e-61
2.50919e-60
8.8896e-60
3.19772e-59
1.03859e-58
2.91711e-58
6.9408e-58
1.24761e-57
1.29227e-57
8.33165e-58
2.26479e-58
6.67386e-59
1.0321e-59
8.87954e-61
4.85054e-62
1.80176e-63
4.33321e-65
6.71529e-67
7.48289e-69
6.45471e-71
4.56661e-73
2.73034e-75
1.38889e-77
5.98261e-80
1.90725e-82
5.14813e-85
1.15523e-87
2.04594e-90
2.82688e-93
2.69562e-95
1.42974e-94
1.16422e-92
8.99072e-91
6.97621e-89
5.83985e-87
6.75497e-85
7.88624e-83
8.48928e-81
8.05222e-79
6.32458e-77
6.26433e-75
5.5668e-73
4.25531e-71
2.74061e-69
1.4549e-67
6.20455e-66
2.05901e-64
5.10894e-63
8.96668e-62
1.02624e-60
6.44672e-60
2.11149e-59
8.63416e-59
1.3684e-58
1.66057e-58
9.11692e-59
2.9779e-59
5.84703e-60
5.85679e-61
3.59712e-62
5.30668e-64
3.30021e-65
1.60747e-66
6.10984e-68
1.88126e-69
5.00172e-71
1.21639e-72
2.80313e-74
6.22954e-76
1.3465e-77
2.84456e-79
5.89436e-81
1.20151e-82
2.41494e-84
4.79474e-86
9.41638e-88
1.83085e-89
3.79027e-90
2.02893e-91
3.89749e-93
7.64795e-95
1.52712e-96
3.02811e-98
5.94954e-100
1.15707e-101
2.22493e-103
4.22538e-105
7.91651e-107
1.46166e-108
2.65666e-110
4.74824e-112
8.3362e-114
1.43605e-115
2.4247e-117
4.00822e-119
6.47969e-121
1.0232e-122
1.57632e-124
2.3663e-126
3.45681e-128
4.90767e-130
6.76168e-132
9.02747e-134
1.16607e-135
1.45478e-137
1.74986e-139
2.02544e-141
2.28131e-143
1.54211e-144
2.74247e-145
4.90561e-147
7.00297e-149
9.46268e-151
1.22535e-152
3.41212e-154
2.38269e-154
2.82232e-154
3.31562e-154
3.83898e-154
4.38338e-154
4.93835e-154
5.49196e-154
6.03024e-154
6.53424e-154
6.96408e-154
7.20083e-154
6.88968e-154
5.31645e-154
2.2801e-154
2.54043e-155
6.94815e-157
3.05721e-155
9.04598e-154
6.75266e-153
1.4359e-152
1.79875e-152
1.85915e-152
1.79534e-152
1.6891e-152
1.6496e-152
1.18658e-151
1.13667e-149
1.11214e-147
9.36137e-146
1.39052e-144
6.42288e-144
6.62791e-142
7.35408e-140
7.57774e-138
7.29316e-136
6.58742e-134
5.60666e-132
4.51256e-130
3.44533e-128
2.50235e-126
1.73329e-124
1.14764e-122
7.27904e-121
4.43129e-119
2.59402e-117
1.46269e-115
7.95745e-114
4.18326e-112
2.12824e-110
1.04932e-108
5.02091e-107
2.33465e-105
1.05632e-103
4.65656e-102
2.00251e-100
8.41142e-99
3.45531e-97
1.38984e-95
5.48073e-94
2.12151e-92
8.07094e-91
3.02148e-89
1.11451e-87
4.05572e-86
1.45795e-84
5.18419e-83
1.82584e-81
6.3761e-80
2.21108e-78
7.71155e-77
2.75059e-75
9.29209e-74
2.87429e-72
8.09641e-71
2.06188e-69
4.70835e-68
9.54963e-67
1.70146e-65
2.62861e-64
3.467e-63
3.83056e-62
3.45986e-61
2.46906e-60
1.33247e-59
5.33458e-59
1.71903e-58
5.36381e-58
1.83499e-57
6.47333e-57
2.08043e-56
5.81016e-56
1.38208e-55
2.51809e-55
2.72413e-55
1.88926e-55
5.07311e-56
1.4981e-56
2.3261e-57
2.01388e-58
1.10983e-59
4.16892e-61
1.01605e-62
1.5987e-64
1.81159e-66
1.59117e-68
1.14736e-70
6.99898e-73
3.62737e-75
1.38977e-77
4.51549e-80
1.24047e-82
2.82254e-85
5.0943e-88
1.47707e-90
7.61707e-93
3.22654e-92
2.83117e-90
2.34178e-88
1.93846e-86
1.70313e-84
2.00906e-82
2.40657e-80
2.68611e-78
2.69572e-76
2.34138e-74
1.78888e-72
1.57034e-70
1.18867e-68
7.57953e-67
3.98737e-65
1.68725e-63
5.56489e-62
1.37504e-60
2.40871e-59
2.75835e-58
1.73803e-57
5.7223e-57
2.45472e-56
3.59856e-56
4.17862e-56
2.27919e-56
7.48822e-57
1.51505e-57
1.5252e-58
1.02917e-59
1.56058e-61
9.85449e-63
4.89735e-64
1.90601e-65
6.01113e-67
1.63326e-68
4.04788e-70
9.48568e-72
2.14034e-73
4.69127e-75
1.00377e-76
2.10391e-78
4.33201e-80
8.78255e-82
1.75631e-83
3.46904e-85
6.77396e-87
1.38181e-87
6.80536e-89
1.29016e-90
2.55513e-92
5.12694e-94
1.02094e-95
2.01377e-97
3.93037e-99
7.58207e-101
1.44408e-102
2.71253e-104
5.01958e-106
9.14121e-108
1.63651e-109
2.87707e-111
4.96166e-113
8.38446e-115
1.3868e-116
2.24258e-118
3.54141e-120
5.45476e-122
8.18481e-124
1.19485e-125
1.69473e-127
2.33215e-129
3.10904e-131
4.00886e-133
4.99113e-135
5.98922e-137
6.9132e-139
7.65951e-141
8.14325e-143
1.94219e-144
6.63638e-145
1.56409e-146
2.13531e-148
2.74205e-150
3.92119e-152
7.66908e-153
8.58849e-153
9.96435e-153
1.141e-152
1.28971e-152
1.43977e-152
1.58807e-152
1.73108e-152
1.86399e-152
1.97675e-152
2.03939e-152
1.95848e-152
1.53871e-152
6.98108e-153
8.34046e-154
2.41689e-155
8.05802e-154
2.24593e-152
1.55726e-151
3.14001e-151
3.87316e-151
3.98043e-151
3.84578e-151
3.64367e-151
4.8521e-151
1.81295e-149
1.92833e-147
1.69461e-145
1.54064e-144
1.05635e-143
1.29055e-141
1.58722e-139
1.79248e-137
1.87421e-135
1.82609e-133
1.66671e-131
1.43139e-129
1.16108e-127
8.92528e-126
6.52093e-124
4.54015e-122
3.01953e-120
1.92251e-118
1.17416e-116
6.89178e-115
3.8944e-113
2.12214e-111
1.11689e-109
5.68594e-108
2.80395e-106
1.34128e-104
6.23209e-103
2.81632e-101
1.23943e-99
5.31869e-98
2.22829e-96
9.12559e-95
3.65771e-93
1.43666e-91
5.53641e-90
2.09592e-88
7.80437e-87
2.86198e-85
1.03495e-83
3.69545e-82
1.30461e-80
4.55985e-79
1.57965e-77
5.43047e-76
1.87469e-74
6.63831e-73
2.2276e-71
6.83843e-70
1.91013e-68
4.81973e-67
1.08956e-65
2.18583e-64
3.84863e-63
5.87013e-62
7.63606e-61
8.31217e-60
7.3892e-59
5.18382e-58
2.7432e-57
1.06991e-56
3.32267e-56
9.9218e-56
3.27303e-55
1.13123e-54
3.59584e-54
9.98144e-54
2.37298e-53
4.37585e-53
4.91958e-53
3.61472e-53
9.6164e-54
2.84717e-54
4.44105e-55
3.87161e-56
2.15387e-57
8.18743e-59
2.02366e-60
3.23532e-62
3.73117e-64
3.33967e-66
2.45672e-68
1.52886e-70
7.22831e-73
2.82376e-75
9.3581e-78
2.61317e-80
6.07277e-83
1.9728e-85
4.90111e-88
1.85929e-90
6.25559e-90
5.9363e-88
5.26271e-86
4.64595e-84
4.2771e-82
5.11598e-80
6.23326e-78
7.11333e-76
7.36909e-74
6.72582e-72
5.24061e-70
3.77975e-68
2.82545e-66
1.78328e-64
9.28841e-63
3.89658e-61
1.27626e-59
3.13801e-58
5.48262e-57
6.27801e-56
3.96549e-55
1.31147e-54
5.84556e-54
8.09319e-54
9.0584e-54
4.9142e-54
1.62398e-54
3.37612e-55
3.41662e-56
2.49336e-57
3.87369e-59
2.48317e-60
1.25886e-61
5.01803e-63
1.62217e-64
4.50923e-66
1.14038e-67
2.72117e-69
6.2432e-71
1.3899e-72
3.01761e-74
6.41129e-76
1.33666e-77
2.74068e-79
5.53646e-81
1.10336e-82
2.17128e-84
4.5399e-85
2.03886e-86
3.78228e-88
7.57714e-90
1.53115e-91
3.06833e-93
6.08817e-95
1.19487e-96
2.31698e-98
4.43422e-100
8.36636e-102
1.5546e-103
2.84185e-105
5.10534e-107
9.00387e-109
1.55722e-110
2.63826e-112
4.37372e-114
7.087e-116
1.12111e-117
1.72939e-119
2.59807e-121
3.79635e-123
5.38823e-125
7.41775e-127
9.88978e-129
1.27494e-130
1.58648e-132
1.90201e-134
2.19257e-136
2.42498e-138
2.56702e-140
2.59327e-142
3.48779e-144
1.1072e-144
4.43421e-146
5.87026e-148
7.28508e-150
2.52924e-151
1.99907e-151
2.28251e-151
2.58469e-151
2.89205e-151
3.19901e-151
3.49953e-151
3.78689e-151
4.05232e-151
4.27803e-151
4.41225e-151
4.26408e-151
3.4065e-151
1.63672e-151
2.12476e-152
6.55674e-154
1.68398e-152
4.40351e-151
2.80012e-150
5.36756e-150
6.55465e-150
6.65093e-150
6.39566e-150
6.23006e-150
2.89336e-149
2.81902e-147
2.58107e-145
1.65671e-144
1.326e-143
1.91107e-141
2.69339e-139
3.41008e-137
3.9378e-135
4.19072e-133
4.14234e-131
3.82629e-129
3.31931e-127
2.71562e-125
2.10281e-123
1.54596e-121
1.0821e-119
7.22916e-118
4.62002e-116
2.83031e-114
1.66529e-112
9.42733e-111
5.14349e-109
2.70887e-107
1.37923e-105
6.79873e-104
3.24916e-102
1.50748e-100
6.79898e-99
2.98472e-97
1.27697e-95
5.33113e-94
2.17449e-92
8.6762e-91
3.39057e-89
1.29934e-87
4.88902e-86
1.80848e-84
6.58488e-83
2.36312e-81
8.36944e-80
2.92927e-78
1.01453e-76
3.48118e-75
1.18444e-73
4.03898e-72
1.41812e-70
4.72298e-69
1.43776e-67
3.97928e-66
9.94105e-65
2.2232e-63
4.40855e-62
7.66571e-61
1.15359e-59
1.47906e-58
1.58525e-57
1.38617e-56
9.55577e-56
4.95816e-55
1.8847e-54
5.64416e-54
1.61251e-53
5.1222e-53
1.7327e-52
5.44531e-52
1.50188e-51
3.56757e-51
6.65123e-51
7.74199e-51
5.96526e-51
1.57429e-51
4.68008e-52
7.33804e-53
6.4459e-54
3.62273e-55
1.39466e-56
3.49882e-58
5.68868e-60
6.68297e-62
6.10154e-64
4.58434e-66
2.71844e-68
1.27871e-70
5.10568e-73
1.72396e-75
4.93037e-78
1.8343e-80
5.61733e-83
1.27759e-85
4.00316e-88
1.06051e-87
1.0936e-85
1.04062e-83
9.80269e-82
9.45296e-80
1.14204e-77
1.40725e-75
1.62819e-73
1.71837e-71
1.61164e-69
1.31091e-67
9.06657e-66
5.85247e-64
3.64668e-62
1.87995e-60
7.81117e-59
2.53834e-57
6.20509e-56
1.08044e-54
1.23622e-53
7.82275e-53
2.59639e-52
1.19543e-51
1.58438e-51
1.71836e-51
9.27995e-52
3.08443e-52
6.54729e-53
7.04268e-54
5.21836e-55
8.28963e-57
5.39253e-58
2.78786e-59
1.13836e-60
3.77421e-62
1.07431e-63
2.77518e-65
6.75008e-67
1.57634e-68
3.56839e-70
7.87076e-72
1.69738e-73
3.58857e-75
7.45414e-77
1.52391e-78
3.0703e-80
6.10187e-82
1.42242e-82
5.4978e-84
9.91293e-86
2.01064e-87
4.09797e-89
8.27571e-91
1.65408e-92
3.26867e-94
6.37933e-96
1.22828e-97
2.33064e-99
4.35362e-101
7.9978e-103
1.44338e-104
2.55637e-106
4.43855e-108
7.54689e-110
1.25524e-111
2.04002e-113
3.23586e-115
5.0035e-117
7.53266e-119
1.10268e-120
1.56743e-122
2.16043e-124
2.88296e-126
3.71859e-128
4.62804e-130
5.5472e-132
6.39018e-134
7.05888e-136
7.45864e-138
7.51758e-140
7.2053e-142
7.30242e-144
1.39535e-144
1.08579e-145
1.42925e-147
1.95844e-149
3.75561e-150
4.05485e-150
4.53829e-150
5.02585e-150
5.5075e-150
5.97443e-150
6.41722e-150
6.82535e-150
7.18221e-150
7.44853e-150
7.2962e-150
5.88995e-150
2.98871e-150
4.27547e-151
1.4098e-152
2.81287e-151
6.88632e-150
3.96601e-149
7.32372e-149
8.99544e-149
8.8471e-149
8.34824e-149
1.03776e-148
3.48254e-147
3.32179e-145
1.77261e-144
1.99362e-143
2.31977e-141
3.29316e-139
4.94269e-137
6.52144e-135
7.75852e-133
8.44633e-131
8.4997e-129
7.96595e-127
6.99371e-125
5.77926e-123
4.5129e-121
3.34143e-119
2.35283e-117
1.5797e-115
1.0137e-113
6.23061e-112
3.67532e-110
2.08448e-108
1.13863e-106
6.00003e-105
3.05471e-103
1.50477e-101
7.18233e-100
3.32616e-98
1.4965e-96
6.54982e-95
2.79222e-93
1.16086e-91
4.71262e-90
1.87037e-88
7.26634e-87
2.76669e-85
1.03372e-83
3.79481e-82
1.37048e-80
4.87542e-79
1.71072e-77
5.92867e-76
2.0321e-74
6.89729e-73
2.31921e-71
7.79795e-70
2.71195e-68
8.95748e-67
2.70203e-65
7.40484e-64
1.83028e-62
4.04665e-61
7.92658e-60
1.3603e-58
2.01841e-57
2.54909e-56
2.68833e-55
2.31091e-54
1.5647e-53
7.9594e-53
2.94986e-52
8.52414e-52
2.32967e-51
7.11628e-51
2.35359e-50
7.30996e-50
2.00277e-49
4.7523e-49
8.95056e-49
1.07559e-48
8.62835e-49
2.26604e-49
6.75933e-50
1.06607e-50
9.44315e-52
5.36606e-53
2.09401e-54
5.33713e-56
8.83372e-58
1.05825e-59
9.86678e-62
7.46331e-64
4.23178e-66
2.03798e-68
8.31156e-71
2.88287e-73
1.25313e-75
4.51697e-78
1.29088e-80
2.8143e-83
7.73018e-86
1.59321e-85
1.79627e-83
1.8382e-81
1.84975e-79
1.8698e-77
2.27489e-75
2.82346e-73
3.29319e-71
3.5118e-69
3.34277e-67
2.78091e-65
1.99448e-63
1.19595e-61
6.59989e-60
3.35801e-58
1.38148e-56
4.44942e-55
1.08034e-53
1.87305e-52
2.13968e-51
1.35537e-50
4.69973e-50
2.13723e-49
2.73634e-49
2.88704e-49
1.55314e-49
5.19156e-50
1.12252e-50
1.28975e-51
9.55933e-53
2.01985e-54
1.02498e-55
5.40179e-57
2.25966e-58
7.68787e-60
2.24265e-61
5.92303e-63
1.46986e-64
3.49699e-66
8.05664e-68
1.80707e-69
3.95967e-71
8.49873e-73
1.79056e-74
3.70936e-76
7.56572e-78
1.52068e-79
4.46371e-80
1.36467e-81
2.34622e-83
4.82316e-85
9.92741e-87
2.02259e-88
4.07643e-90
8.1192e-92
1.59637e-93
3.09514e-95
5.91147e-97
1.11104e-98
2.05274e-100
3.72445e-102
6.62922e-104
1.15633e-105
1.97452e-107
3.29706e-109
5.37772e-111
8.55808e-113
1.32723e-114
2.0034e-116
2.93953e-118
4.18681e-120
5.78033e-122
7.72351e-124
9.97127e-126
1.24161e-127
1.48824e-129
1.71355e-131
1.89077e-133
1.99419e-135
2.0045e-137
1.91384e-139
1.7289e-141
1.54966e-143
1.56439e-144
2.28691e-145
3.12741e-147
8.38144e-149
5.65259e-149
6.21885e-149
6.81383e-149
7.39512e-149
7.95276e-149
8.4777e-149
8.96861e-149
9.44534e-149
1.00157e-148
1.01314e-148
8.11619e-149
4.29095e-149
6.85892e-150
2.42017e-151
3.75567e-150
8.61465e-149
4.45481e-148
8.22724e-148
1.05e-147
9.64399e-148
8.7755e-148
4.19113e-147
3.66327e-145
1.87311e-144
2.93669e-143
3.92826e-141
5.27552e-139
6.51769e-137
7.81445e-135
1.10232e-132
1.36881e-130
1.53676e-128
1.58298e-126
1.51103e-124
1.34636e-122
1.12614e-120
8.88262e-119
6.63217e-117
4.70268e-115
3.1757e-113
2.04751e-111
1.26325e-109
7.47338e-108
4.24751e-106
2.32329e-104
1.22501e-102
6.23624e-101
3.06967e-99
1.46307e-97
6.76139e-96
3.03377e-94
1.32333e-92
5.61877e-91
2.32514e-89
9.38923e-88
3.70441e-86
1.42972e-84
5.40462e-83
2.00355e-81
7.29294e-80
2.60991e-78
9.1946e-77
3.19298e-75
1.09447e-73
3.70815e-72
1.2434e-70
4.12736e-69
1.36786e-67
4.69091e-66
1.53338e-64
4.58045e-63
1.24209e-61
3.03561e-60
6.631e-59
1.28224e-57
2.17038e-56
3.17335e-55
3.94504e-54
4.09123e-53
3.45509e-52
2.29664e-51
1.14516e-50
4.1394e-50
1.15495e-49
3.01951e-49
8.8578e-49
2.86116e-48
8.77925e-48
2.38883e-47
5.66123e-47
1.07652e-46
1.33261e-46
1.10817e-46
3.22474e-47
8.67824e-48
1.37837e-48
1.23224e-49
7.08636e-51
2.8059e-52
7.27349e-54
1.22692e-55
1.50058e-57
1.43085e-59
1.03051e-61
5.99098e-64
2.95556e-66
1.24889e-68
6.40187e-71
2.68505e-73
9.20456e-76
2.54837e-78
5.43724e-81
1.35519e-83
2.14373e-83
2.66202e-81
2.93642e-79
3.16118e-77
3.35607e-75
4.10099e-73
5.11055e-71
5.98362e-69
6.41044e-67
6.14353e-65
5.16671e-63
3.7718e-61
2.32966e-59
1.18472e-57
5.37208e-56
2.18055e-54
6.95976e-53
1.67663e-51
2.89148e-50
3.29489e-49
2.08706e-48
8.58954e-48
3.38521e-47
4.213e-47
4.33662e-47
2.3253e-47
7.81576e-48
1.71945e-48
2.09287e-49
1.55116e-50
4.5022e-52
1.72536e-53
9.26548e-55
3.97112e-56
1.38715e-57
4.15045e-59
1.12178e-60
2.84287e-62
6.89666e-64
1.61848e-65
3.69473e-67
8.23352e-69
1.79577e-70
3.84133e-72
8.07239e-74
1.66865e-75
3.39586e-77
1.04469e-77
3.00641e-79
5.07069e-81
1.05453e-82
2.19421e-84
4.51451e-86
9.18341e-88
1.84515e-89