/*--------------------------------*- C++ -*----------------------------------*\
| =========                 |                                                 |
| \\      /  F ield         | OpenFOAM: The Open Source CFD Toolbox           |
|  \\    /   O peration     | Version:  2412                                  |
|   \\  /    A nd           | Website:  www.openfoam.com                      |
|    \\/     M anipulation  |                                                 |
\*---------------------------------------------------------------------------*/
FoamFile
{
    version     2.0;
    format      ascii;
    arch        "LSB;label=32;scalar=64";
    class       volScalarField;
    location    "1.9";
    object      p;
}
// * * * * * * * * * * * * * * * * * * * * * * * * * * * * * * * * * * * * * //

dimensions      [1 -1 -2 0 0 0 0];

internalField   nonuniform List<scalar> 
40000
(
0
-0.000106272
0.00165808
0.00515042
0.0102812
0.0170162
0.0253441
0.0352626
0.0467742
0.0598843
0.0746
0.0909304
0.108886
0.128477
0.149718
0.17262
0.197199
0.223468
0.251442
0.281137
0.312567
0.345748
0.380694
0.417419
0.455935
0.496254
0.538387
0.582344
0.628132
0.675759
0.725229
0.776544
0.829701
0.884698
0.941525
1.00017
1.06062
1.12286
1.18685
1.25257
1.31999
1.38906
1.45974
1.53197
1.60569
1.68083
1.75731
1.83505
1.91396
1.99394
2.07488
2.15665
2.23914
2.32221
2.40571
2.48949
2.5734
2.65728
2.74097
2.82428
2.90704
2.98907
3.07017
3.15017
3.22889
3.30613
3.38173
3.45551
3.52731
3.59696
3.66433
3.72927
3.79167
3.85142
3.90842
3.96259
4.01388
4.06225
4.10765
4.1501
4.18959
4.22615
4.25982
4.29065
4.31872
4.3441
4.36689
4.38717
4.40506
4.42067
4.43409
4.44543
4.45482
4.46234
4.4681
4.47219
4.4747
4.47568
4.47522
4.47336
4.47014
4.4656
4.45974
4.45257
4.4441
4.43428
4.42311
4.41054
4.39653
4.38102
4.36395
4.34527
4.32492
4.30282
4.27893
4.25319
4.22554
4.19594
4.16434
4.13074
4.0951
4.05743
4.01773
3.97602
3.93235
3.88675
3.83929
3.79004
3.73908
3.68651
3.63242
3.57694
3.52017
3.46225
3.40328
3.3434
3.28275
3.22143
3.15959
3.09735
3.03483
2.97214
2.9094
2.84673
2.78421
2.72195
2.66004
2.59855
2.53757
2.47718
2.41743
2.35838
2.30011
2.24264
2.18604
2.13034
2.07558
2.0218
1.96902
1.91728
1.8666
1.817
1.7685
1.72113
1.6749
1.62982
1.58592
1.5432
1.50168
1.46136
1.42226
1.38438
1.34774
1.31233
1.27818
1.24528
1.21365
1.1833
1.15424
1.12646
1.09999
1.07482
1.05097
1.02844
1.00723
0.987365
0.968835
0.951646
0.935803
0.92131
0.908174
0.8964
0.885992
0.876953
0.869287
0.862992
0.858071
0.854525
0.852362
0.851567
-3.92577
-3.92531
-3.92336
-3.91979
-3.91463
-3.90788
-3.89955
-3.88963
-3.87812
-3.86502
-3.85031
-3.83398
-3.81604
-3.79646
-3.77523
-3.75234
-3.72777
-3.70151
-3.67355
-3.64387
-3.61246
-3.57929
-3.54436
-3.50765
-3.46915
-3.42884
-3.38672
-3.34278
-3.297
-3.24939
-3.19993
-3.14862
-3.09547
-3.04048
-2.98366
-2.92501
-2.86456
-2.80233
-2.73833
-2.6726
-2.60517
-2.53608
-2.46538
-2.39313
-2.31938
-2.24421
-2.16768
-2.08989
-2.01093
-1.9309
-1.8499
-1.76805
-1.68548
-1.60233
-1.51873
-1.43484
-1.3508
-1.2668
-1.183
-1.09957
-1.01669
-0.934546
-0.853318
-0.773194
-0.694358
-0.616992
-0.541276
-0.467384
-0.395481
-0.325725
-0.258265
-0.193237
-0.130763
-0.0709532
-0.0139008
0.0403158
0.0916357
0.140015
0.185427
0.227863
0.267333
0.30386
0.337486
0.368268
0.396276
0.42159
0.444301
0.464508
0.482315
0.497831
0.511166
0.522431
0.531734
0.539181
0.544869
0.548894
0.551338
0.552276
0.551772
0.549879
0.546639
0.542081
0.536221
0.529062
0.520599
0.510812
0.499671
0.487138
0.473166
0.457702
0.440688
0.42206
0.401757
0.379716
0.355875
0.330174
0.302563
0.272993
0.241427
0.207837
0.172209
0.134536
0.0948268
0.053103
0.00940007
-0.0362348
-0.0837418
-0.133048
-0.184068
-0.236709
-0.290866
-0.346427
-0.403274
-0.461284
-0.520332
-0.580291
-0.641032
-0.702426
-0.764345
-0.826665
-0.889262
-0.952017
-1.01482
-1.07756
-1.14014
-1.20245
-1.26442
-1.32595
-1.38696
-1.44739
-1.50717
-1.56624
-1.62454
-1.68202
-1.73864
-1.79435
-1.84912
-1.90292
-1.9557
-2.00745
-2.05814
-2.10774
-2.15624
-2.20361
-2.24985
-2.29492
-2.33883
-2.38155
-2.42307
-2.46339
-2.50249
-2.54037
-2.57702
-2.61243
-2.64659
-2.67948
-2.71111
-2.74146
-2.77053
-2.79831
-2.82479
-2.84996
-2.87381
-2.89635
-2.91755
-2.93742
-2.95596
-2.97315
-2.989
-3.00349
-3.01663
-3.02841
-3.03882
-3.04786
-3.05552
-3.06182
-3.06674
-3.07028
-3.07244
-3.07323
-7.85295
-7.85226
-7.85016
-7.84652
-7.84132
-7.83455
-7.82621
-7.81629
-7.80479
-7.7917
-7.77701
-7.7607
-7.74278
-7.72322
-7.70202
-7.67916
-7.65462
-7.62839
-7.60046
-7.57081
-7.53942
-7.50628
-7.47138
-7.43469
-7.39621
-7.35593
-7.31383
-7.26991
-7.22414
-7.17654
-7.12709
-7.07578
-7.02263
-6.96763
-6.9108
-6.85213
-6.79165
-6.72938
-6.66534
-6.59955
-6.53206
-6.4629
-6.39212
-6.31977
-6.24591
-6.17062
-6.09397
-6.01603
-5.93691
-5.8567
-5.77552
-5.69348
-5.6107
-5.52732
-5.44348
-5.35934
-5.27505
-5.19078
-5.1067
-5.023
-4.93983
-4.8574
-4.77589
-4.69548
-4.61636
-4.53872
-4.46274
-4.3886
-4.31645
-4.24647
-4.17881
-4.11359
-4.05095
-3.991
-3.93383
-3.87952
-3.82814
-3.77972
-3.7343
-3.69188
-3.65246
-3.616
-3.58246
-3.55179
-3.52392
-3.49875
-3.4762
-3.45616
-3.43854
-3.4232
-3.41005
-3.39896
-3.38984
-3.38255
-3.37702
-3.37314
-3.37082
-3.36999
-3.37058
-3.37254
-3.37583
-3.38041
-3.38628
-3.39343
-3.40186
-3.41159
-3.42267
-3.43512
-3.449
-3.46436
-3.48127
-3.49979
-3.51998
-3.54191
-3.56565
-3.59126
-3.61879
-3.64829
-3.6798
-3.71336
-3.74897
-3.78665
-3.82638
-3.86815
-3.91192
-3.95764
-4.00526
-4.05469
-4.10585
-4.15864
-4.21297
-4.2687
-4.32574
-4.38394
-4.44318
-4.50334
-4.56427
-4.62586
-4.68797
-4.75048
-4.81325
-4.87617
-4.93914
-5.00203
-5.06476
-5.12721
-5.18931
-5.25095
-5.31208
-5.37261
-5.43248
-5.49163
-5.55
-5.60755
-5.66423
-5.72
-5.77482
-5.82865
-5.88148
-5.93326
-5.98398
-6.03361
-6.08213
-6.12953
-6.17578
-6.22088
-6.2648
-6.30754
-6.34908
-6.38941
-6.42853
-6.46643
-6.50309
-6.53851
-6.57268
-6.60559
-6.63723
-6.66759
-6.69667
-6.72446
-6.75095
-6.77613
-6.8
-6.82254
-6.84376
-6.86364
-6.88219
-6.89939
-6.91525
-6.92975
-6.9429
-6.95468
-6.9651
-6.97414
-6.98181
-6.98811
-6.99303
-6.99657
-6.99873
-6.99956
-11.7817
-11.781
-11.7788
-11.7751
-11.7699
-11.7631
-11.7547
-11.7448
-11.7333
-11.7203
-11.7056
-11.6893
-11.6714
-11.6519
-11.6308
-11.6079
-11.5835
-11.5573
-11.5294
-11.4998
-11.4684
-11.4353
-11.4005
-11.3638
-11.3254
-11.2851
-11.2431
-11.1992
-11.1534
-11.1058
-11.0564
-11.0051
-10.9519
-10.8969
-10.84
-10.7813
-10.7207
-10.6584
-10.5943
-10.5284
-10.4608
-10.3915
-10.3205
-10.248
-10.174
-10.0985
-10.0216
-9.94341
-9.86402
-9.78352
-9.70203
-9.61965
-9.53652
-9.45277
-9.36855
-9.284
-9.19929
-9.11459
-9.03007
-8.94591
-8.8623
-8.77941
-8.69743
-8.61657
-8.53701
-8.45894
-8.38254
-8.30799
-8.23546
-8.16513
-8.09713
-8.03162
-7.96873
-7.90855
-7.8512
-7.79675
-7.74527
-7.6968
-7.65137
-7.60898
-7.56963
-7.53328
-7.49989
-7.46939
-7.44172
-7.41679
-7.39449
-7.37472
-7.35738
-7.34233
-7.32946
-7.31866
-7.3098
-7.30278
-7.29748
-7.29382
-7.2917
-7.29104
-7.29177
-7.29384
-7.2972
-7.30183
-7.3077
-7.31482
-7.3232
-7.33286
-7.34383
-7.35616
-7.3699
-7.3851
-7.40184
-7.42018
-7.4402
-7.46197
-7.48555
-7.51101
-7.53841
-7.5678
-7.59924
-7.63274
-7.66832
-7.70601
-7.74578
-7.78763
-7.8315
-7.87736
-7.92514
-7.97477
-8.02615
-8.07919
-8.13378
-8.1898
-8.24713
-8.30564
-8.36519
-8.42567
-8.48692
-8.54882
-8.61123
-8.67404
-8.7371
-8.8003
-8.86353
-8.92668
-8.98965
-9.05233
-9.11464
-9.17649
-9.23779
-9.29849
-9.35852
-9.41781
-9.47632
-9.53398
-9.59077
-9.64663
-9.70154
-9.75546
-9.80835
-9.8602
-9.91098
-9.96066
-10.0092
-10.0567
-10.103
-10.1481
-10.1921
-10.2348
-10.2764
-10.3168
-10.3559
-10.3938
-10.4305
-10.466
-10.5002
-10.5331
-10.5648
-10.5952
-10.6243
-10.6521
-10.6786
-10.7038
-10.7277
-10.7502
-10.7715
-10.7914
-10.8099
-10.8272
-10.843
-10.8575
-10.8707
-10.8825
-10.8929
-10.902
-10.9097
-10.916
-10.9209
-10.9244
-10.9266
-10.9274
-15.7122
-15.7114
-15.7092
-15.7055
-15.7002
-15.6934
-15.6851
-15.6752
-15.6637
-15.6507
-15.6361
-15.6199
-15.602
-15.5826
-15.5614
-15.5387
-15.5142
-15.4881
-15.4603
-15.4308
-15.3995
-15.3664
-15.3316
-15.295
-15.2566
-15.2164
-15.1744
-15.1305
-15.0848
-15.0372
-14.9877
-14.9364
-14.8832
-14.8282
-14.7712
-14.7124
-14.6518
-14.5894
-14.5251
-14.4591
-14.3913
-14.3218
-14.2506
-14.1779
-14.1036
-14.0278
-13.9506
-13.872
-13.7923
-13.7113
-13.6294
-13.5466
-13.4629
-13.3787
-13.2939
-13.2088
-13.1235
-13.0382
-12.9531
-12.8683
-12.7841
-12.7006
-12.618
-12.5365
-12.4563
-12.3776
-12.3006
-12.2255
-12.1525
-12.0817
-12.0132
-11.9473
-11.8841
-11.8236
-11.766
-11.7114
-11.6598
-11.6112
-11.5658
-11.5234
-11.4842
-11.448
-11.4148
-11.3845
-11.3572
-11.3325
-11.3106
-11.2912
-11.2742
-11.2596
-11.2471
-11.2367
-11.2282
-11.2215
-11.2166
-11.2132
-11.2113
-11.2109
-11.2118
-11.214
-11.2175
-11.2222
-11.2281
-11.2352
-11.2435
-11.253
-11.2639
-11.276
-11.2895
-11.3045
-11.321
-11.3391
-11.3589
-11.3805
-11.4038
-11.4291
-11.4563
-11.4855
-11.5169
-11.5503
-11.5858
-11.6235
-11.6634
-11.7053
-11.7493
-11.7954
-11.8434
-11.8933
-11.945
-11.9983
-12.0533
-12.1097
-12.1674
-12.2264
-12.2864
-12.3473
-12.409
-12.4713
-12.5341
-12.5973
-12.6608
-12.7244
-12.788
-12.8515
-12.9148
-12.9778
-13.0404
-13.1025
-13.1641
-13.225
-13.2853
-13.3448
-13.4035
-13.4613
-13.5182
-13.5742
-13.6293
-13.6833
-13.7363
-13.7883
-13.8391
-13.8889
-13.9375
-13.985
-14.0314
-14.0766
-14.1206
-14.1634
-14.205
-14.2454
-14.2846
-14.3226
-14.3593
-14.3948
-14.4291
-14.462
-14.4937
-14.5241
-14.5533
-14.5811
-14.6077
-14.6329
-14.6568
-14.6794
-14.7007
-14.7206
-14.7392
-14.7564
-14.7723
-14.7869
-14.8
-14.8119
-14.8223
-14.8314
-14.8391
-14.8454
-14.8503
-14.8538
-14.856
-14.8569
-19.6444
-19.6436
-19.6414
-19.6376
-19.6324
-19.6256
-19.6173
-19.6074
-19.596
-19.583
-19.5684
-19.5523
-19.5345
-19.5151
-19.494
-19.4714
-19.447
-19.4209
-19.3932
-19.3637
-19.3325
-19.2995
-19.2648
-19.2283
-19.1899
-19.1498
-19.1078
-19.0639
-19.0182
-18.9707
-18.9212
-18.8699
-18.8166
-18.7615
-18.7045
-18.6456
-18.5849
-18.5223
-18.4579
-18.3916
-18.3236
-18.2539
-18.1825
-18.1094
-18.0347
-17.9585
-17.8809
-17.8019
-17.7216
-17.6402
-17.5577
-17.4743
-17.39
-17.3051
-17.2196
-17.1338
-17.0478
-16.9617
-16.8758
-16.7902
-16.7052
-16.6208
-16.5374
-16.4552
-16.3742
-16.2948
-16.2171
-16.1413
-16.0675
-15.9961
-15.9271
-15.8607
-15.797
-15.7361
-15.6782
-15.6233
-15.5716
-15.5229
-15.4775
-15.4352
-15.3961
-15.3601
-15.3271
-15.2972
-15.2702
-15.246
-15.2245
-15.2055
-15.1891
-15.1749
-15.163
-15.153
-15.145
-15.1388
-15.1343
-15.1313
-15.1298
-15.1296
-15.1308
-15.1332
-15.1368
-15.1415
-15.1475
-15.1545
-15.1627
-15.1721
-15.1828
-15.1947
-15.208
-15.2227
-15.2389
-15.2567
-15.2762
-15.2974
-15.3204
-15.3454
-15.3724
-15.4015
-15.4327
-15.466
-15.5015
-15.5392
-15.5791
-15.6212
-15.6654
-15.7116
-15.76
-15.8102
-15.8623
-15.9161
-15.9715
-16.0284
-16.0867
-16.1462
-16.2067
-16.2682
-16.3304
-16.3933
-16.4567
-16.5204
-16.5844
-16.6485
-16.7126
-16.7765
-16.8403
-16.9037
-16.9667
-17.0291
-17.091
-17.1523
-17.2128
-17.2726
-17.3315
-17.3895
-17.4467
-17.5029
-17.5581
-17.6122
-17.6654
-17.7174
-17.7684
-17.8183
-17.867
-17.9146
-17.961
-18.0063
-18.0504
-18.0933
-18.135
-18.1754
-18.2147
-18.2527
-18.2895
-18.325
-18.3593
-18.3923
-18.4241
-18.4545
-18.4837
-18.5116
-18.5382
-18.5635
-18.5874
-18.61
-18.6314
-18.6513
-18.67
-18.6872
-18.7032
-18.7177
-18.7309
-18.7427
-18.7532
-18.7623
-18.77
-18.7763
-18.7812
-18.7848
-18.787
-18.7878
-23.5784
-23.5775
-23.5753
-23.5715
-23.5663
-23.5595
-23.5512
-23.5414
-23.53
-23.5171
-23.5026
-23.4865
-23.4688
-23.4495
-23.4285
-23.406
-23.3817
-23.3557
-23.3281
-23.2987
-23.2676
-23.2347
-23.2001
-23.1636
-23.1253
-23.0852
-23.0433
-22.9995
-22.9538
-22.9063
-22.8568
-22.8054
-22.7522
-22.697
-22.6399
-22.5809
-22.52
-22.4572
-22.3926
-22.3261
-22.2579
-22.1878
-22.116
-22.0425
-21.9675
-21.8908
-21.8127
-21.7331
-21.6522
-21.5701
-21.487
-21.4028
-21.3178
-21.232
-21.1457
-21.059
-20.9721
-20.8851
-20.7982
-20.7117
-20.6256
-20.5403
-20.4559
-20.3727
-20.2907
-20.2104
-20.1318
-20.0551
-19.9806
-19.9084
-19.8387
-19.7716
-19.7074
-19.646
-19.5877
-19.5326
-19.4806
-19.4319
-19.3864
-19.3442
-19.3052
-19.2694
-19.2368
-19.2073
-19.1807
-19.1571
-19.1361
-19.1178
-19.1019
-19.0884
-19.077
-19.0677
-19.0603
-19.0547
-19.0507
-19.0482
-19.0471
-19.0473
-19.0487
-19.0514
-19.0551
-19.06
-19.0659
-19.0729
-19.081
-19.0902
-19.1006
-19.1122
-19.1252
-19.1395
-19.1554
-19.1728
-19.1919
-19.2127
-19.2354
-19.2601
-19.2868
-19.3156
-19.3466
-19.3797
-19.4152
-19.4529
-19.4929
-19.5351
-19.5795
-19.6261
-19.6748
-19.7255
-19.7781
-19.8324
-19.8884
-19.9459
-20.0048
-20.065
-20.1262
-20.1883
-20.2513
-20.3148
-20.3789
-20.4433
-20.5079
-20.5726
-20.6373
-20.7018
-20.7661
-20.83
-20.8934
-20.9563
-21.0186
-21.0802
-21.1411
-21.2012
-21.2604
-21.3187
-21.3761
-21.4325
-21.4879
-21.5423
-21.5956
-21.6478
-21.6989
-21.7489
-21.7977
-21.8454
-21.8919
-21.9373
-21.9815
-22.0244
-22.0662
-22.1068
-22.1461
-22.1842
-22.221
-22.2566
-22.2909
-22.324
-22.3558
-22.3863
-22.4156
-22.4435
-22.4701
-22.4955
-22.5195
-22.5422
-22.5635
-22.5835
-22.6022
-22.6195
-22.6355
-22.6501
-22.6633
-22.6752
-22.6856
-22.6947
-22.7025
-22.7088
-22.7137
-22.7173
-22.7195
-22.7203
-27.514
-27.5132
-27.5109
-27.5072
-27.502
-27.4952
-27.487
-27.4772
-27.4659
-27.4531
-27.4386
-27.4226
-27.405
-27.3858
-27.365
-27.3425
-27.3183
-27.2925
-27.2649
-27.2357
-27.2047
-27.1719
-27.1374
-27.101
-27.0628
-27.0228
-26.9809
-26.9372
-26.8915
-26.844
-26.7945
-26.7431
-26.6898
-26.6346
-26.5774
-26.5182
-26.4572
-26.3942
-26.3294
-26.2626
-26.194
-26.1236
-26.0514
-25.9775
-25.9019
-25.8246
-25.7459
-25.6657
-25.5841
-25.5012
-25.4172
-25.3322
-25.2463
-25.1596
-25.0723
-24.9845
-24.8965
-24.8084
-24.7204
-24.6326
-24.5454
-24.4589
-24.3734
-24.289
-24.2059
-24.1244
-24.0447
-23.967
-23.8915
-23.8184
-23.7479
-23.6801
-23.6152
-23.5533
-23.4945
-23.439
-23.3868
-23.3379
-23.2924
-23.2503
-23.2115
-23.1761
-23.1439
-23.1148
-23.0888
-23.0657
-23.0455
-23.0279
-23.0127
-23
-22.9894
-22.9808
-22.9741
-22.9691
-22.9658
-22.9638
-22.9632
-22.9639
-22.9657
-22.9686
-22.9725
-22.9775
-22.9834
-22.9903
-22.9983
-23.0073
-23.0174
-23.0287
-23.0412
-23.0551
-23.0705
-23.0874
-23.106
-23.1264
-23.1487
-23.1729
-23.1993
-23.2278
-23.2585
-23.2915
-23.3269
-23.3646
-23.4047
-23.4471
-23.4918
-23.5388
-23.5879
-23.6391
-23.6922
-23.7472
-23.8039
-23.8622
-23.9219
-23.9828
-24.0449
-24.1078
-24.1716
-24.236
-24.3008
-24.366
-24.4314
-24.4968
-24.5622
-24.6273
-24.6922
-24.7567
-24.8207
-24.8841
-24.9469
-25.0089
-25.0702
-25.1307
-25.1902
-25.2488
-25.3065
-25.3632
-25.4188
-25.4734
-25.5269
-25.5792
-25.6305
-25.6807
-25.7296
-25.7775
-25.8241
-25.8696
-25.9138
-25.9569
-25.9988
-26.0394
-26.0788
-26.117
-26.1539
-26.1896
-26.224
-26.2571
-26.289
-26.3196
-26.3489
-26.3769
-26.4036
-26.4289
-26.453
-26.4758
-26.4972
-26.5172
-26.5359
-26.5533
-26.5693
-26.5839
-26.5972
-26.6091
-26.6196
-26.6287
-26.6365
-26.6428
-26.6478
-26.6514
-26.6536
-26.6544
-31.4514
-31.4506
-31.4483
-31.4446
-31.4394
-31.4327
-31.4245
-31.4148
-31.4036
-31.3908
-31.3765
-31.3606
-31.3431
-31.324
-31.3033
-31.2809
-31.2569
-31.2312
-31.2038
-31.1747
-31.1438
-31.1112
-31.0767
-31.0405
-31.0024
-30.9625
-30.9207
-30.877
-30.8314
-30.7839
-30.7344
-30.683
-30.6297
-30.5743
-30.517
-30.4577
-30.3965
-30.3333
-30.2682
-30.2011
-30.1321
-30.0613
-29.9886
-29.9142
-29.838
-29.7601
-29.6807
-29.5997
-29.5173
-29.4336
-29.3486
-29.2626
-29.1756
-29.0878
-28.9993
-28.9103
-28.821
-28.7316
-28.6423
-28.5532
-28.4647
-28.3768
-28.2899
-28.2041
-28.1197
-28.0369
-27.9559
-27.877
-27.8004
-27.7262
-27.6547
-27.586
-27.5203
-27.4578
-27.3985
-27.3426
-27.2901
-27.241
-27.1955
-27.1535
-27.115
-27.0799
-27.0482
-27.0197
-26.9943
-26.972
-26.9525
-26.9358
-26.9215
-26.9096
-26.8999
-26.8923
-26.8864
-26.8822
-26.8796
-26.8784
-26.8784
-26.8795
-26.8818
-26.885
-26.8891
-26.8942
-26.9001
-26.9069
-26.9147
-26.9234
-26.9332
-26.9441
-26.9561
-26.9695
-26.9843
-27.0007
-27.0187
-27.0385
-27.0602
-27.084
-27.1099
-27.138
-27.1685
-27.2013
-27.2366
-27.2743
-27.3145
-27.3571
-27.4021
-27.4495
-27.4992
-27.551
-27.6048
-27.6606
-27.7181
-27.7772
-27.8378
-27.8997
-27.9627
-28.0266
-28.0914
-28.1567
-28.2225
-28.2886
-28.3548
-28.4211
-28.4873
-28.5532
-28.6188
-28.6839
-28.7486
-28.8126
-28.8759
-28.9384
-29.0002
-29.0611
-29.121
-29.18
-29.238
-29.2949
-29.3508
-29.4056
-29.4593
-29.5119
-29.5634
-29.6137
-29.6628
-29.7108
-29.7575
-29.8031
-29.8475
-29.8907
-29.9326
-29.9734
-30.0129
-30.0511
-30.0881
-30.1239
-30.1584
-30.1916
-30.2235
-30.2542
-30.2836
-30.3117
-30.3384
-30.3639
-30.388
-30.4108
-30.4323
-30.4524
-30.4712
-30.4886
-30.5046
-30.5193
-30.5326
-30.5446
-30.5551
-30.5643
-30.572
-30.5784
-30.5834
-30.587
-30.5892
-30.59
-35.3905
-35.3896
-35.3874
-35.3838
-35.3786
-35.372
-35.3638
-35.3542
-35.3431
-35.3304
-35.3162
-35.3004
-35.283
-35.2641
-35.2435
-35.2213
-35.1974
-35.1719
-35.1447
-35.1157
-35.085
-35.0525
-35.0182
-34.9821
-34.9441
-34.9043
-34.8626
-34.819
-34.7735
-34.726
-34.6765
-34.6251
-34.5717
-34.5163
-34.4589
-34.3994
-34.338
-34.2745
-34.2091
-34.1417
-34.0723
-34.001
-33.9278
-33.8528
-33.7759
-33.6973
-33.6171
-33.5353
-33.4519
-33.3672
-33.2812
-33.194
-33.1058
-33.0167
-32.9269
-32.8365
-32.7458
-32.6549
-32.5641
-32.4735
-32.3833
-32.2939
-32.2053
-32.118
-32.0321
-31.9478
-31.8653
-31.785
-31.7071
-31.6317
-31.559
-31.4893
-31.4228
-31.3594
-31.2995
-31.2431
-31.1903
-31.1411
-31.0956
-31.0537
-31.0155
-30.9808
-30.9496
-30.9218
-30.8972
-30.8758
-30.8572
-30.8415
-30.8283
-30.8174
-30.8088
-30.8021
-30.7973
-30.794
-30.7923
-30.7918
-30.7925
-30.7943
-30.797
-30.8006
-30.805
-30.8101
-30.8161
-30.8228
-30.8303
-30.8387
-30.8481
-30.8584
-30.8699
-30.8827
-30.8968
-30.9125
-30.9298
-30.9489
-30.97
-30.9931
-31.0185
-31.0462
-31.0763
-31.1089
-31.1441
-31.1818
-31.2221
-31.265
-31.3104
-31.3583
-31.4085
-31.461
-31.5157
-31.5724
-31.6308
-31.691
-31.7527
-31.8156
-31.8797
-31.9448
-32.0106
-32.0771
-32.1439
-32.2111
-32.2783
-32.3456
-32.4126
-32.4794
-32.5459
-32.6118
-32.6771
-32.7418
-32.8057
-32.8688
-32.9311
-32.9924
-33.0528
-33.1122
-33.1705
-33.2278
-33.2839
-33.339
-33.393
-33.4458
-33.4974
-33.5479
-33.5972
-33.6453
-33.6923
-33.738
-33.7825
-33.8258
-33.8678
-33.9087
-33.9483
-33.9866
-34.0237
-34.0596
-34.0942
-34.1275
-34.1595
-34.1903
-34.2197
-34.2479
-34.2747
-34.3003
-34.3245
-34.3473
-34.3689
-34.3891
-34.4079
-34.4254
-34.4415
-34.4562
-34.4696
-34.4816
-34.4922
-34.5013
-34.5092
-34.5156
-34.5206
-34.5242
-34.5264
-34.5272
-39.3312
-39.3304
-39.3283
-39.3246
-39.3195
-39.3129
-39.3049
-39.2954
-39.2843
-39.2718
-39.2577
-39.242
-39.2248
-39.206
-39.1856
-39.1636
-39.1399
-39.1146
-39.0875
-39.0587
-39.0282
-38.9958
-38.9617
-38.9258
-38.888
-38.8483
-38.8067
-38.7632
-38.7177
-38.6703
-38.6209
-38.5694
-38.516
-38.4605
-38.4029
-38.3433
-38.2817
-38.218
-38.1522
-38.0844
-38.0146
-37.9428
-37.869
-37.7933
-37.7157
-37.6364
-37.5552
-37.4724
-37.3881
-37.3022
-37.215
-37.1265
-37.037
-36.9464
-36.8551
-36.7632
-36.6709
-36.5783
-36.4857
-36.3934
-36.3014
-36.2102
-36.1199
-36.0308
-35.9431
-35.857
-35.773
-35.6911
-35.6116
-35.5348
-35.4608
-35.39
-35.3224
-35.2582
-35.1975
-35.1406
-35.0874
-35.038
-34.9925
-34.9508
-34.9128
-34.8787
-34.8481
-34.8211
-34.7974
-34.777
-34.7596
-34.7449
-34.7329
-34.7233
-34.7159
-34.7104
-34.7068
-34.7046
-34.7039
-34.7043
-34.7058
-34.7083
-34.7115
-34.7155
-34.7202
-34.7255
-34.7314
-34.738
-34.7453
-34.7533
-34.7621
-34.7718
-34.7826
-34.7946
-34.808
-34.8228
-34.8393
-34.8576
-34.878
-34.9004
-34.9252
-34.9523
-34.982
-35.0143
-35.0493
-35.087
-35.1275
-35.1706
-35.2165
-35.265
-35.3159
-35.3693
-35.4249
-35.4825
-35.5421
-35.6035
-35.6664
-35.7306
-35.796
-35.8623
-35.9294
-35.9971
-36.0652
-36.1335
-36.2019
-36.2702
-36.3384
-36.4061
-36.4734
-36.5402
-36.6063
-36.6717
-36.7364
-36.8001
-36.8629
-36.9248
-36.9856
-37.0454
-37.1041
-37.1618
-37.2183
-37.2736
-37.3278
-37.3809
-37.4327
-37.4834
-37.5329
-37.5812
-37.6283
-37.6741
-37.7188
-37.7622
-37.8044
-37.8453
-37.885
-37.9235
-37.9607
-37.9967
-38.0314
-38.0648
-38.0969
-38.1277
-38.1573
-38.1855
-38.2125
-38.2381
-38.2624
-38.2854
-38.307
-38.3272
-38.3462
-38.3637
-38.3799
-38.3947
-38.4081
-38.4201
-38.4308
-38.44
-38.4478
-38.4543
-38.4593
-38.4629
-38.4651
-38.466
-43.2737
-43.2729
-43.2708
-43.2672
-43.2621
-43.2556
-43.2477
-43.2382
-43.2273
-43.2149
-43.201
-43.1855
-43.1685
-43.1499
-43.1297
-43.1078
-43.0843
-43.0592
-43.0323
-43.0037
-42.9734
-42.9413
-42.9074
-42.8716
-42.834
-42.7944
-42.753
-42.7096
-42.6642
-42.6169
-42.5675
-42.5161
-42.4626
-42.407
-42.3493
-42.2896
-42.2277
-42.1637
-42.0976
-42.0294
-41.9591
-41.8867
-41.8123
-41.7359
-41.6575
-41.5773
-41.4952
-41.4113
-41.3258
-41.2387
-41.1502
-41.0603
-40.9692
-40.8771
-40.7841
-40.6904
-40.5963
-40.5018
-40.4073
-40.313
-40.2191
-40.1258
-40.0335
-39.9423
-39.8527
-39.7647
-39.6787
-39.595
-39.5138
-39.4354
-39.36
-39.2878
-39.219
-39.1538
-39.0924
-39.0348
-38.9812
-38.9316
-38.886
-38.8445
-38.807
-38.7734
-38.7436
-38.7175
-38.6949
-38.6756
-38.6594
-38.6462
-38.6356
-38.6274
-38.6213
-38.6173
-38.6149
-38.614
-38.6144
-38.6159
-38.6184
-38.6216
-38.6255
-38.6299
-38.6349
-38.6404
-38.6463
-38.6527
-38.6596
-38.6671
-38.6753
-38.6844
-38.6944
-38.7055
-38.7179
-38.7318
-38.7473
-38.7647
-38.7841
-38.8057
-38.8297
-38.8562
-38.8854
-38.9174
-38.9522
-38.9899
-39.0305
-39.074
-39.1203
-39.1694
-39.2212
-39.2755
-39.3322
-39.3911
-39.452
-39.5146
-39.5789
-39.6446
-39.7114
-39.7792
-39.8478
-39.9169
-39.9864
-40.056
-40.1257
-40.1952
-40.2645
-40.3333
-40.4017
-40.4694
-40.5364
-40.6026
-40.6679
-40.7323
-40.7958
-40.8582
-40.9195
-40.9798
-41.0389
-41.0969
-41.1538
-41.2095
-41.2639
-41.3172
-41.3693
-41.4202
-41.4699
-41.5183
-41.5656
-41.6116
-41.6564
-41.6999
-41.7423
-41.7833
-41.8232
-41.8618
-41.8991
-41.9351
-41.9699
-42.0035
-42.0357
-42.0666
-42.0963
-42.1247
-42.1517
-42.1774
-42.2018
-42.2249
-42.2466
-42.2669
-42.2859
-42.3035
-42.3198
-42.3347
-42.3481
-42.3602
-42.3709
-42.3802
-42.3881
-42.3945
-42.3996
-42.4032
-42.4054
-42.4063
-47.2178
-47.2171
-47.2149
-47.2114
-47.2064
-47.2
-47.1922
-47.1829
-47.1721
-47.1598
-47.1461
-47.1308
-47.114
-47.0956
-47.0756
-47.0539
-47.0307
-47.0058
-46.9791
-46.9508
-46.9207
-46.8888
-46.8551
-46.8196
-46.7821
-46.7428
-46.7015
-46.6583
-46.613
-46.5658
-46.5164
-46.465
-46.4115
-46.3559
-46.2981
-46.2381
-46.176
-46.1117
-46.0453
-45.9766
-45.9058
-45.8329
-45.7578
-45.6807
-45.6014
-45.5202
-45.4371
-45.3521
-45.2653
-45.1768
-45.0868
-44.9954
-44.9026
-44.8088
-44.7139
-44.6183
-44.5222
-44.4256
-44.329
-44.2324
-44.1363
-44.0408
-43.9462
-43.8528
-43.7609
-43.6707
-43.5826
-43.4969
-43.4138
-43.3335
-43.2564
-43.1827
-43.1126
-43.0463
-42.9839
-42.9256
-42.8715
-42.8217
-42.7761
-42.7348
-42.6977
-42.6648
-42.6359
-42.6108
-42.5894
-42.5715
-42.5568
-42.5451
-42.5361
-42.5295
-42.5251
-42.5226
-42.5218
-42.5224
-42.5241
-42.5268
-42.5303
-42.5344
-42.539
-42.544
-42.5493
-42.5549
-42.5608
-42.5669
-42.5735
-42.5804
-42.588
-42.5962
-42.6052
-42.6153
-42.6266
-42.6393
-42.6537
-42.6699
-42.6883
-42.7089
-42.732
-42.7578
-42.7864
-42.818
-42.8525
-42.8902
-42.931
-42.9748
-43.0218
-43.0716
-43.1243
-43.1797
-43.2377
-43.2979
-43.3602
-43.4245
-43.4904
-43.5576
-43.6261
-43.6956
-43.7657
-43.8364
-43.9074
-43.9786
-44.0497
-44.1205
-44.1911
-44.2611
-44.3306
-44.3993
-44.4673
-44.5343
-44.6005
-44.6656
-44.7297
-44.7927
-44.8546
-44.9154
-44.975
-45.0333
-45.0905
-45.1465
-45.2013
-45.2549
-45.3072
-45.3583
-45.4082
-45.4568
-45.5042
-45.5504
-45.5953
-45.639
-45.6815
-45.7227
-45.7627
-45.8014
-45.8388
-45.875
-45.9099
-45.9436
-45.9759
-46.007
-46.0368
-46.0652
-46.0924
-46.1182
-46.1427
-46.1658
-46.1876
-46.2081
-46.2272
-46.2449
-46.2612
-46.2762
-46.2897
-46.3019
-46.3126
-46.3219
-46.3299
-46.3364
-46.3415
-46.3451
-46.3474
-46.3482
-51.1636
-51.1629
-51.1608
-51.1573
-51.1524
-51.1461
-51.1384
-51.1292
-51.1186
-51.1065
-51.0929
-51.0779
-51.0613
-51.0431
-51.0233
-51.002
-50.979
-50.9543
-50.928
-50.8999
-50.8701
-50.8384
-50.805
-50.7697
-50.7325
-50.6934
-50.6523
-50.6092
-50.5641
-50.517
-50.4677
-50.4164
-50.3629
-50.3072
-50.2493
-50.1892
-50.1268
-50.0623
-49.9954
-49.9264
-49.855
-49.7815
-49.7057
-49.6277
-49.5476
-49.4653
-49.381
-49.2948
-49.2066
-49.1167
-49.0251
-48.932
-48.8374
-48.7416
-48.6447
-48.547
-48.4486
-48.3498
-48.2507
-48.1518
-48.0531
-47.9551
-47.858
-47.7621
-47.6677
-47.5751
-47.4846
-47.3966
-47.3113
-47.229
-47.15
-47.0746
-47.003
-46.9354
-46.8719
-46.8128
-46.7582
-46.7081
-46.6625
-46.6215
-46.5849
-46.5527
-46.5248
-46.501
-46.481
-46.4647
-46.4516
-46.4417
-46.4345
-46.4298
-46.4273
-46.4266
-46.4275
-46.4297
-46.433
-46.437
-46.4417
-46.4468
-46.4522
-46.4578
-46.4635
-46.4692
-46.4751
-46.481
-46.487
-46.4933
-46.5
-46.5072
-46.5152
-46.524
-46.5341
-46.5455
-46.5585
-46.5734
-46.5905
-46.61
-46.6321
-46.657
-46.6849
-46.7159
-46.7502
-46.7878
-46.8288
-46.8731
-46.9206
-46.9714
-47.0252
-47.0818
-47.1411
-47.2029
-47.2669
-47.3329
-47.4006
-47.4698
-47.5401
-47.6114
-47.6834
-47.7558
-47.8285
-47.9013
-47.974
-48.0463
-48.1183
-48.1896
-48.2603
-48.3301
-48.3991
-48.4671
-48.5341
-48.6
-48.6648
-48.7285
-48.7909
-48.8522
-48.9122
-48.971
-49.0286
-49.0849
-49.14
-49.1938
-49.2464
-49.2977
-49.3478
-49.3966
-49.4442
-49.4905
-49.5356
-49.5795
-49.6221
-49.6634
-49.7035
-49.7424
-49.78
-49.8163
-49.8513
-49.8851
-49.9176
-49.9488
-49.9787
-50.0072
-50.0345
-50.0605
-50.0851
-50.1083
-50.1302
-50.1508
-50.17
-50.1878
-50.2042
-50.2192
-50.2329
-50.2451
-50.2559
-50.2653
-50.2733
-50.2798
-50.2849
-50.2886
-50.2909
-50.2917
-55.111
-55.1103
-55.1082
-55.1048
-55.1
-55.0938
-55.0862
-55.0772
-55.0668
-55.0549
-55.0416
-55.0267
-55.0104
-54.9924
-54.973
-54.9519
-54.9292
-54.9049
-54.8788
-54.851
-54.8215
-54.7902
-54.757
-54.722
-54.6851
-54.6462
-54.6054
-54.5625
-54.5176
-54.4706
-54.4215
-54.3702
-54.3167
-54.261
-54.203
-54.1427
-54.0802
-54.0153
-53.9481
-53.8786
-53.8067
-53.7325
-53.656
-53.5771
-53.496
-53.4127
-53.3272
-53.2396
-53.15
-53.0585
-52.9652
-52.8702
-52.7736
-52.6757
-52.5766
-52.4766
-52.3757
-52.2744
-52.1727
-52.0711
-51.9697
-51.8689
-51.769
-51.6703
-51.5731
-51.4778
-51.3847
-51.2941
-51.2063
-51.1218
-51.0407
-50.9633
-50.89
-50.8209
-50.7563
-50.6963
-50.641
-50.5906
-50.545
-50.5043
-50.4683
-50.437
-50.4103
-50.3878
-50.3695
-50.3549
-50.3438
-50.3359
-50.3309
-50.3283
-50.3279
-50.3293
-50.3322
-50.3363
-50.3412
-50.3468
-50.3528
-50.3591
-50.3654
-50.3716
-50.3777
-50.3836
-50.3894
-50.395
-50.4005
-50.406
-50.4117
-50.4178
-50.4244
-50.4319
-50.4404
-50.4502
-50.4617
-50.4751
-50.4907
-50.5088
-50.5297
-50.5536
-50.5806
-50.6111
-50.645
-50.6826
-50.7237
-50.7685
-50.8168
-50.8685
-50.9235
-50.9816
-51.0426
-51.1061
-51.172
-51.24
-51.3097
-51.3809
-51.4534
-51.5267
-51.6007
-51.6751
-51.7498
-51.8244
-51.8987
-51.9727
-52.0461
-52.1189
-52.1909
-52.2619
-52.332
-52.401
-52.4689
-52.5356
-52.6012
-52.6655
-52.7285
-52.7903
-52.8508
-52.91
-52.968
-53.0246
-53.08
-53.1341
-53.1869
-53.2385
-53.2887
-53.3378
-53.3855
-53.432
-53.4773
-53.5213
-53.564
-53.6055
-53.6458
-53.6848
-53.7225
-53.7589
-53.7941
-53.828
-53.8607
-53.892
-53.922
-53.9507
-53.9781
-54.0042
-54.0289
-54.0523
-54.0743
-54.095
-54.1143
-54.1322
-54.1488
-54.1639
-54.1776
-54.1899
-54.2008
-54.2102
-54.2182
-54.2248
-54.23
-54.2337
-54.236
-54.2368
-59.06
-59.0593
-59.0573
-59.054
-59.0493
-59.0432
-59.0358
-59.0269
-59.0167
-59.005
-58.9919
-58.9773
-58.9613
-58.9436
-58.9245
-58.9037
-58.8814
-58.8573
-58.8316
-58.8042
-58.775
-58.7441
-58.7112
-58.6765
-58.6399
-58.6014
-58.5608
-58.5182
-58.4735
-58.4267
-58.3777
-58.3265
-58.273
-58.2173
-58.1593
-58.0989
-58.0362
-57.971
-57.9034
-57.8334
-57.761
-57.6861
-57.6088
-57.5291
-57.447
-57.3625
-57.2757
-57.1867
-57.0956
-57.0023
-56.9072
-56.8102
-56.7115
-56.6113
-56.5098
-56.4072
-56.3037
-56.1996
-56.0951
-55.9905
-55.8861
-55.7822
-55.6792
-55.5774
-55.4772
-55.3788
-55.2828
-55.1893
-55.0989
-55.0117
-54.9283
-54.8488
-54.7735
-54.7028
-54.6368
-54.5758
-54.5198
-54.469
-54.4234
-54.383
-54.3477
-54.3175
-54.2921
-54.2712
-54.2547
-54.2422
-54.2333
-54.2278
-54.2251
-54.225
-54.227
-54.2308
-54.2359
-54.2421
-54.249
-54.2564
-54.2639
-54.2714
-54.2787
-54.2857
-54.2922
-54.2983
-54.3039
-54.3091
-54.3139
-54.3186
-54.3232
-54.3279
-54.333
-54.3388
-54.3456
-54.3536
-54.3633
-54.3749
-54.3888
-54.4053
-54.4247
-54.4474
-54.4735
-54.5032
-54.5367
-54.5742
-54.6155
-54.6608
-54.71
-54.7629
-54.8193
-54.879
-54.9418
-55.0074
-55.0754
-55.1456
-55.2177
-55.2912
-55.366
-55.4416
-55.5179
-55.5945
-55.6712
-55.7478
-55.824
-55.8998
-55.9748
-56.0491
-56.1225
-56.1948
-56.266
-56.3361
-56.405
-56.4725
-56.5388
-56.6038
-56.6675
-56.7298
-56.7908
-56.8504
-56.9087
-56.9657
-57.0214
-57.0758
-57.1288
-57.1806
-57.2311
-57.2803
-57.3282
-57.3749
-57.4203
-57.4645
-57.5074
-57.549
-57.5894
-57.6285
-57.6664
-57.703
-57.7383
-57.7724
-57.8052
-57.8366
-57.8668
-57.8957
-57.9232
-57.9494
-57.9743
-57.9978
-58.02
-58.0408
-58.0602
-58.0782
-58.0948
-58.1101
-58.1239
-58.1363
-58.1472
-58.1567
-58.1648
-58.1714
-58.1766
-58.1804
-58.1827
-58.1836
-63.0106
-63.0099
-63.008
-63.0047
-63.0001
-62.9942
-62.9869
-62.9783
-62.9683
-62.9568
-62.944
-62.9297
-62.9139
-62.8966
-62.8778
-62.8574
-62.8354
-62.8118
-62.7865
-62.7595
-62.7307
-62.7001
-62.6676
-62.6333
-62.597
-62.5588
-62.5186
-62.4762
-62.4318
-62.3852
-62.3364
-62.2854
-62.232
-62.1763
-62.1183
-62.0578
-61.9949
-61.9295
-61.8615
-61.7911
-61.7181
-61.6425
-61.5644
-61.4838
-61.4006
-61.3149
-61.2268
-61.1363
-61.0435
-60.9485
-60.8513
-60.7522
-60.6512
-60.5486
-60.4445
-60.3391
-60.2327
-60.1256
-60.0179
-59.9101
-59.8024
-59.6952
-59.5888
-59.4836
-59.3799
-59.2782
-59.1789
-59.0823
-58.9888
-58.8988
-58.8126
-58.7307
-58.6533
-58.5807
-58.5132
-58.451
-58.3942
-58.343
-58.2974
-58.2574
-58.2229
-58.1938
-58.1699
-58.1509
-58.1365
-58.1263
-58.12
-58.1172
-58.1173
-58.1199