/*--------------------------------*- C++ -*----------------------------------*\
| =========                 |                                                 |
| \\      /  F ield         | OpenFOAM: The Open Source CFD Toolbox           |
|  \\    /   O peration     | Version:  2412                                  |
|   \\  /    A nd           | Website:  www.openfoam.com                      |
|    \\/     M anipulation  |                                                 |
\*---------------------------------------------------------------------------*/
FoamFile
{
    version     2.0;
    format      ascii;
    arch        "LSB;label=32;scalar=64";
    class       volScalarField;
    location    "1.9";
    object      p_rgh;
}
// * * * * * * * * * * * * * * * * * * * * * * * * * * * * * * * * * * * * * //

dimensions      [1 -1 -2 0 0 0 0];

internalField   nonuniform List<scalar> 
40000
(
1.962
1.96189
1.96366
1.96715
1.97228
1.97902
1.98734
1.99726
2.00877
2.02188
2.0366
2.05293
2.07089
2.09048
2.11172
2.13462
2.1592
2.18547
2.21344
2.24314
2.27457
2.30775
2.34269
2.37942
2.41793
2.45825
2.50039
2.54434
2.59013
2.63776
2.68723
2.73854
2.7917
2.8467
2.90353
2.96217
3.02262
3.08486
3.14885
3.21457
3.28199
3.35106
3.42174
3.49397
3.56769
3.64283
3.71931
3.79705
3.87596
3.95594
4.03688
4.11865
4.20114
4.28421
4.36771
4.45149
4.5354
4.61928
4.70297
4.78628
4.86904
4.95107
5.03217
5.11217
5.19089
5.26813
5.34373
5.41751
5.48931
5.55896
5.62633
5.69127
5.75367
5.81342
5.87042
5.92459
5.97588
6.02425
6.06965
6.1121
6.15159
6.18815
6.22182
6.25265
6.28072
6.3061
6.32889
6.34917
6.36706
6.38267
6.39609
6.40743
6.41682
6.42434
6.4301
6.43419
6.4367
6.43768
6.43722
6.43536
6.43214
6.4276
6.42174
6.41457
6.4061
6.39628
6.38511
6.37254
6.35853
6.34302
6.32595
6.30727
6.28692
6.26482
6.24093
6.21519
6.18754
6.15794
6.12634
6.09274
6.0571
6.01943
5.97973
5.93802
5.89435
5.84875
5.80129
5.75204
5.70108
5.64851
5.59442
5.53894
5.48217
5.42425
5.36528
5.3054
5.24475
5.18343
5.12159
5.05935
4.99683
4.93414
4.8714
4.80873
4.74621
4.68395
4.62204
4.56055
4.49957
4.43918
4.37943
4.32038
4.26211
4.20464
4.14804
4.09234
4.03758
3.9838
3.93102
3.87928
3.8286
3.779
3.7305
3.68313
3.6369
3.59182
3.54792
3.5052
3.46368
3.42336
3.38426
3.34638
3.30974
3.27433
3.24018
3.20728
3.17565
3.1453
3.11624
3.08846
3.06199
3.03682
3.01297
2.99044
2.96923
2.94936
2.93083
2.91365
2.8978
2.88331
2.87017
2.8584
2.84799
2.83895
2.83129
2.82499
2.82007
2.81652
2.81436
2.81357
1.96023
1.96069
1.96264
1.96621
1.97137
1.97812
1.98645
1.99637
2.00788
2.02098
2.03569
2.05202
2.06996
2.08954
2.11077
2.13366
2.15823
2.18449
2.21245
2.24213
2.27354
2.30671
2.34164
2.37835
2.41685
2.45716
2.49928
2.54322
2.589
2.63661
2.68607
2.73738
2.79053
2.84552
2.90234
2.96099
3.02144
3.08367
3.14767
3.2134
3.28083
3.34992
3.42062
3.49287
3.56662
3.64179
3.71832
3.79611
3.87507
3.9551
4.0361
4.11795
4.20052
4.28367
4.36727
4.45116
4.5352
4.6192
4.703
4.78643
4.86931
4.95145
5.03268
5.11281
5.19164
5.26901
5.34472
5.41862
5.49052
5.56027
5.62773
5.69276
5.75524
5.81505
5.8721
5.92632
5.97764
6.02601
6.07143
6.11386
6.15333
6.18986
6.22349
6.25427
6.28228
6.30759
6.3303
6.35051
6.36832
6.38383
6.39717
6.40843
6.41773
6.42518
6.43087
6.43489
6.43734
6.43828
6.43777
6.43588
6.43264
6.42808
6.42222
6.41506
6.4066
6.39681
6.38567
6.37314
6.35917
6.3437
6.32669
6.30806
6.28776
6.26572
6.24187
6.21617
6.18856
6.15899
6.12743
6.09384
6.05821
6.02054
5.98083
5.9391
5.8954
5.84977
5.80226
5.75295
5.70193
5.64929
5.59513
5.53957
5.48273
5.42472
5.36567
5.30571
5.24497
5.18357
5.12165
5.05933
4.99674
4.93398
4.87118
4.80844
4.74586
4.68355
4.62158
4.56005
4.49904
4.43861
4.37883
4.31976
4.26146
4.20398
4.14736
4.09165
4.03688
3.98308
3.9303
3.87855
3.82786
3.77826
3.72976
3.68239
3.63615
3.59108
3.54717
3.50445
3.46293
3.42261
3.38351
3.34563
3.30898
3.27357
3.23941
3.20652
3.17489
3.14454
3.11547
3.08769
3.06121
3.03604
3.01219
2.98965
2.96845
2.94858
2.93004
2.91285
2.897
2.88251
2.86937
2.85759
2.84718
2.83814
2.83048
2.82418
2.81926
2.81572
2.81356
2.81277
1.95705
1.95774
1.95984
1.96348
1.96868
1.97545
1.98379
1.99371
2.00521
2.0183
2.03299
2.0493
2.06722
2.08678
2.10798
2.13084
2.15538
2.18161
2.20954
2.23919
2.27058
2.30372
2.33862
2.37531
2.41379
2.45407
2.49617
2.54009
2.58586
2.63346
2.68291
2.73422
2.78737
2.84237
2.8992
2.95787
3.01835
3.08062
3.14466
3.21045
3.27794
3.3471
3.41788
3.49023
3.56409
3.63938
3.71603
3.79397
3.87309
3.9533
4.03448
4.11652
4.1993
4.28268
4.36652
4.45066
4.53495
4.61922
4.7033
4.787
4.87017
4.9526
5.03411
5.11452
5.19364
5.27128
5.34726
5.4214
5.49355
5.56353
5.63119
5.69641
5.75905
5.819
5.87617
5.93048
5.98186
6.03028
6.0757
6.11812
6.15754
6.194
6.22754
6.25821
6.28608
6.31125
6.3338
6.35384
6.37146
6.3868
6.39995
6.41104
6.42016
6.42745
6.43298
6.43686
6.43918
6.44001
6.43942
6.43746
6.43417
6.42959
6.42372
6.41657
6.40814
6.39841
6.38733
6.37488
6.361
6.34564
6.32873
6.31021
6.29002
6.26809
6.24435
6.21874
6.19121
6.16171
6.1302
6.09664
6.06103
6.02335
5.98362
5.94185
5.89808
5.85236
5.80474
5.75531
5.70415
5.65136
5.59703
5.5413
5.48426
5.42606
5.36682
5.30666
5.24573
5.18414
5.12203
5.05952
4.99675
4.93383
4.87086
4.80797
4.74524
4.68279
4.62069
4.55905
4.49792
4.43739
4.37752
4.31837
4.26
4.20245
4.14577
4.09
4.03518
3.98135
3.92852
3.87674
3.82602
3.77639
3.72787
3.68047
3.63422
3.58912
3.5452
3.50246
3.46092
3.42059
3.38147
3.34357
3.30691
3.27149
3.23732
3.20441
3.17277
3.14241
3.11333
3.08554
3.05905
3.03387
3.01
2.98746
2.96624
2.94636
2.92781
2.91061
2.89475
2.88025
2.8671
2.85532
2.8449
2.83586
2.82819
2.82189
2.81697
2.81343
2.81127
2.81044
1.95225
1.95303
1.95521
1.95891
1.96415
1.97093
1.97927
1.98917
2.00066
2.01373
2.02839
2.04466
2.06255
2.08207
2.10323
2.12605
2.15055
2.17673
2.20462
2.23422
2.26557
2.29866
2.33353
2.37017
2.40862
2.44887
2.49094
2.53484
2.58059
2.62819
2.67764
2.72894
2.78211
2.83713
2.894
2.95271
3.01325
3.07559
3.13972
3.20561
3.27322
3.34252
3.41345
3.48597
3.56002
3.63552
3.7124
3.79059
3.86998
3.95048
4.03197
4.11435
4.19748
4.28123
4.36545
4.45
4.53471
4.61941
4.70393
4.78809
4.8717
4.95459
5.03657
5.11743
5.19699
5.27506
5.35146
5.42601
5.49854
5.56887
5.63687
5.70238
5.76527
5.82545
5.8828
5.93725
5.98873
6.0372
6.08263
6.12502
6.16437
6.20072
6.23411
6.26461
6.29228
6.31721
6.33951
6.35928
6.37662
6.39167
6.40454
6.41534
6.4242
6.43122
6.43652
6.44018
6.4423
6.44296
6.44223
6.44016
6.4368
6.43217
6.4263
6.41918
6.4108
6.40114
6.39017
6.37784
6.3641
6.3489
6.33216
6.31382
6.2938
6.27203
6.24845
6.22299
6.19559
6.1662
6.13476
6.10126
6.06568
6.02799
5.98822
5.94637
5.9025
5.85664
5.80886
5.75923
5.70785
5.65481
5.60022
5.5442
5.48687
5.42836
5.36881
5.30833
5.24708
5.18518
5.12277
5.05996
4.9969
4.9337
4.87047
4.80732
4.74435
4.68167
4.61936
4.55751
4.49621
4.43551
4.37548
4.31619
4.25768
4.20002
4.14323
4.08737
4.03246
3.97854
3.92565
3.8738
3.82302
3.77334
3.72477
3.67733
3.63103
3.5859
3.54194
3.49917
3.4576
3.41723
3.37808
3.34015
3.30346
3.26802
3.23382
3.20089
3.16923
3.13884
3.10974
3.08193
3.05542
3.03022
3.00633
2.98376
2.96253
2.94262
2.92406
2.90684
2.89097
2.87645
2.86329
2.8515
2.84107
2.83202
2.82434
2.81804
2.81311
2.80957
2.80741
2.80657
1.94577
1.94658
1.9488
1.95254
1.95779
1.96458
1.97291
1.9828
1.99425
2.00729
2.02192
2.03814
2.05598
2.07545
2.09655
2.11932
2.14375
2.16987
2.1977
2.22725
2.25853
2.29157
2.32638
2.36298
2.40137
2.44159
2.48362
2.5275
2.57323
2.62082
2.67027
2.72159
2.77478
2.82984
2.88677
2.94555
3.00618
3.06863
3.13289
3.19892
3.26671
3.3362
3.40735
3.48011
3.55443
3.63023
3.70744
3.78598
3.86575
3.94666
4.02859
4.11143
4.19505
4.27932
4.36408
4.44919
4.53447
4.61977
4.7049
4.78968
4.87393
4.95745
5.04005
5.12153
5.20171
5.28038
5.35735
5.43245
5.5055
5.57632
5.64475
5.71066
5.77392
5.83439
5.89199
5.94662
5.99823
6.04678
6.09222
6.13457
6.17382
6.21002
6.24321
6.27346
6.30085
6.32546
6.34741
6.36681
6.38377
6.39843
6.41091
6.42133
6.42981
6.43648
6.44144
6.4448
6.44666
6.44709
6.44617
6.44396
6.44049
6.43581
6.42992
6.42283
6.41452
6.40497
6.39415
6.38199
6.36845
6.35346
6.33696
6.31885
6.29907
6.27754
6.25418
6.22892
6.2017
6.17246
6.14114
6.10771
6.07216
6.03446
5.99463
5.95269
5.90867
5.86263
5.81462
5.76472
5.71303
5.65965
5.6047
5.54829
5.49055
5.43162
5.37163
5.31073
5.24904
5.18671
5.12387
5.06065
4.99719
4.9336
4.86999
4.80649
4.74319
4.68019
4.61759
4.55546
4.4939
4.43296
4.37271
4.31322
4.25453
4.1967
4.13976
4.08375
4.02872
3.97469
3.92168
3.86974
3.81888
3.76912
3.72047
3.67297
3.62661
3.58142
3.53741
3.49459
3.45297
3.41255
3.37336
3.33539
3.29866
3.26318
3.22895
3.19598
3.16428
3.13386
3.10473
3.07688
3.05034
3.02511
3.00119
2.97859
2.95733
2.9374
2.9188
2.90156
2.88567
2.87113
2.85795
2.84614
2.8357
2.82663
2.81895
2.81263
2.8077
2.80415
2.80199
2.80115
1.93757
1.9384
1.94064
1.94438
1.94964
1.95642
1.96473
1.9746
1.98602
1.99901
2.01358
2.02975
2.04753
2.06692
2.08796
2.11065
2.13501
2.16105
2.1888
2.21827
2.24948
2.28245
2.31719
2.35372
2.39206
2.43222
2.47422
2.51806
2.56377
2.61134
2.6608
2.71214
2.76537
2.82048
2.87748
2.93636
2.9971
3.0597
3.12412
3.19035
3.25836
3.3281
3.39954
3.47262
3.54729
3.62347
3.7011
3.7801
3.86036
3.9418
4.0243
4.10774
4.19199
4.27691
4.36237
4.44819
4.53422
4.62028
4.7062
4.79177
4.87683
4.96115
5.04456
5.12684
5.2078
5.28723
5.36494
5.44074
5.51445
5.58589
5.6549
5.72132
5.78502
5.84588
5.90379
5.95866
6.01044
6.05907
6.10453
6.14682
6.18595
6.22195
6.25488
6.28481
6.31182
6.33603
6.35753
6.37645
6.39292
6.40708
6.41905
6.42897
6.43697
6.44319
6.44772
6.4507
6.45221
6.45235
6.45119
6.4488
6.4452
6.44045
6.43455
6.4275
6.41929
6.40988
6.39924
6.38731
6.37403
6.35932
6.34311
6.32532
6.30585
6.28462
6.26155
6.23656
6.20957
6.18052
6.14935
6.11602
6.08052
6.04281
6.00292
5.96085
5.91664
5.87035
5.82205
5.7718
5.71972
5.66591
5.61048
5.55357
5.49531
5.43584
5.3753
5.31384
5.25159
5.1887
5.12532
5.06157
4.99759
4.9335
4.86942
4.80546
4.74173
4.67833
4.61535
4.55287
4.49097
4.42973
4.3692
4.30945
4.25052
4.19246
4.13532
4.07914
4.02394
3.96976
3.91662
3.86456
3.81358
3.76372
3.71499
3.66739
3.62096
3.57569
3.53161
3.48872
3.44703
3.40656
3.36731
3.32929
3.29251
3.25697
3.22269
3.18968
3.15793
3.12747
3.09829
3.0704
3.04382
3.01855
2.99459
2.97195
2.95064
2.93067
2.91205
2.89477
2.87885
2.86429
2.85109
2.83926
2.8288
2.81972
2.81202
2.80569
2.80075
2.79719
2.79503
2.79418
1.92764
1.92847
1.93072
1.93447
1.93971
1.94647
1.95476
1.96458
1.97595
1.98889
2.0034
2.01949
2.03719
2.0565
2.07745
2.10005
2.12431
2.15026
2.17792
2.2073
2.23841
2.27129
2.30595
2.3424
2.38066
2.42076
2.4627
2.50651
2.55218
2.59975
2.64921
2.70057
2.75384
2.80902
2.86611
2.9251
2.98599
3.04876
3.11339
3.17986
3.24814
3.31819
3.38998
3.46345
3.53855
3.6152
3.69335
3.7729
3.85377
3.93585
4.01904
4.10321
4.18823
4.27397
4.36027
4.44698
4.53392
4.62092
4.70779
4.79434
4.88038
4.9657
5.05009
5.13335
5.21526
5.29563
5.37425
5.45091
5.52544
5.59764
5.66734
5.73439
5.79864
5.85997
5.91826
5.97343
6.02541
6.07415
6.11962
6.16183
6.2008
6.23655
6.26916
6.2987
6.32525
6.34894
6.36989
6.38823
6.40409
6.41762
6.42896
6.43827
6.44568
6.45133
6.45534
6.45784
6.45893
6.45871
6.45726
6.45463
6.45089
6.44605
6.44013
6.43314
6.42504
6.41582
6.40541
6.39377
6.38081
6.36646
6.35062
6.33322
6.31414
6.2933
6.27059
6.24593
6.21923
6.19043
6.15945
6.12625
6.09081
6.05309
6.01311
5.97089
5.92645
5.87987
5.83119
5.78052
5.72795
5.6736
5.61759
5.56007
5.50116
5.44103
5.37981
5.31765
5.25472
5.19115
5.1271
5.06269
4.99808
4.93338
4.86871
4.8042
4.73995
4.67605
4.6126
4.54969
4.4874
4.42578
4.36491
4.30484
4.24562
4.18729
4.12991
4.07351
4.01811
3.96375
3.91045
3.85823
3.80712
3.75714
3.70829
3.66059
3.61406
3.5687
3.52453
3.48156
3.43979
3.39924
3.35992
3.32184
3.28499
3.24939
3.21506
3.18198
3.15018
3.11966
3.09042
3.06249
3.03585
3.01053
2.98652
2.96383
2.94248
2.92247
2.9038
2.88648
2.87053
2.85593
2.8427
2.83085
2.82037
2.81127
2.80354
2.79721
2.79225
2.78868
2.78651
2.78567
1.91599
1.91682
1.91906
1.92279
1.92802
1.93475
1.943
1.95277
1.96408
1.97694
1.99137
2.00738
2.02498
2.04419
2.06503
2.08752
2.11167
2.13751
2.16505
2.19431
2.22532
2.25809
2.29264
2.329
2.36717
2.40719
2.44907
2.49282
2.53846
2.58601
2.63547
2.68686
2.74018
2.79543
2.85263
2.91175
2.97281
3.03578
3.10065
3.1674
3.236
3.30642
3.37861
3.45254
3.52814
3.60536
3.68411
3.76432
3.8459
3.92875
4.01275
4.09779
4.18373
4.27043
4.35774
4.44549
4.53351
4.62163
4.70964
4.79735
4.88456
4.97106
5.05662
5.14104
5.2241
5.30559
5.38528
5.46298
5.53848
5.61159
5.68213
5.74992
5.81483
5.87672
5.93547
5.99099
6.04321
6.09208
6.13757
6.17969
6.21845
6.25391
6.28612
6.31518
6.34118
6.36425
6.38453
6.40215
6.41727
6.43004
6.44064
6.4492
6.4559
6.46087
6.46425
6.46618
6.46676
6.46611
6.4643
6.4614
6.45747
6.45253
6.44661
6.43968
6.43174
6.42274
6.41262
6.40133
6.38877
6.37485
6.35948
6.34256
6.32396
6.30359
6.28132
6.25707
6.23074
6.20224
6.17149
6.13846
6.10309
6.06537
6.02529
5.98288
5.93817
5.89122
5.8421
5.79091
5.73776
5.68276
5.62606
5.56779
5.50811
5.44718
5.38514
5.32216
5.25841
5.19403
5.12917
5.06399
4.99862
4.93319
4.86783
4.80266
4.73779
4.67331
4.60932
4.5459
4.48312
4.42107
4.35979
4.29935
4.23979
4.18116
4.12349
4.06683
4.0112
3.95663
3.90314
3.85075
3.79948
3.74935
3.70037
3.65254
3.60589
3.56043
3.51616
3.47309
3.43123
3.3906
3.3512
3.31304
3.27611
3.24044
3.20603
3.17289
3.14102
3.11043
3.08114
3.05314
3.02644
3.00106
2.97699
2.95425
2.93284
2.91277
2.89405
2.87669
2.86069
2.84606
2.8328
2.82091
2.8104
2.80127
2.79353
2.78717
2.7822
2.77862
2.77645
2.7756
1.90262
1.90344
1.90567
1.90938
1.91458
1.92127
1.92946
1.93917
1.9504
1.96318
1.97751
1.99341
2.0109
2.02999
2.05071
2.07307
2.09709
2.12279
2.15019
2.17932
2.2102
2.24284
2.27727
2.31351
2.35158
2.3915
2.4333
2.47699
2.52259
2.57011
2.61957
2.67098
2.72434
2.77968
2.83699
2.89626
2.9575
3.0207
3.08584
3.15291
3.22187
3.29271
3.36537
3.43983
3.51601
3.59387
3.67332
3.75429
3.8367
3.92043
4.00538
4.09142
4.17842
4.26624
4.35471
4.44368
4.53296
4.62237
4.7117
4.80077
4.88934
4.97721
5.06415
5.14993
5.23433
5.31712
5.39808
5.47698
5.55362
5.6278
5.69931
5.76799
5.83367
5.89622
5.95551
6.01144
6.06394
6.11295
6.15847
6.20047
6.239
6.27409
6.30584
6.33432
6.35966
6.382
6.40147
6.41824
6.43248
6.44437
6.45406
6.46175
6.46759
6.47176
6.4744
6.47565
6.47563
6.47447
6.47224
6.46903
6.46488
6.45983
6.4539
6.44706
6.43931
6.43058
6.42082
6.40995
6.39787
6.38449
6.36968
6.35333
6.33532
6.31551
6.29379
6.27003
6.24413
6.216
6.18555
6.15271
6.11744
6.07971
6.03952
5.99689
5.95186
5.90448
5.85484
5.80304
5.74919
5.69343
5.6359
5.57676
5.51617
5.45429
5.39129
5.32735
5.26263
5.19729
5.1315
5.06541
4.99916
4.93289
4.86673
4.8008
4.73521
4.67005
4.60543
4.54143
4.47811
4.41555
4.35381
4.29295
4.233
4.17402
4.11604
4.05909
4.00319
3.94838
3.89467
3.84209
3.79064
3.74034
3.6912
3.64324
3.59646
3.55087
3.50649
3.46331
3.42136
3.38063
3.34114
3.30288
3.26587
3.23012
3.19563
3.1624
3.13046
3.09979
3.07042
3.04235
3.01558
2.99013
2.96599
2.94319
2.92172
2.90159
2.88282
2.8654
2.84935
2.83467
2.82137
2.80944
2.7989
2.78974
2.78197
2.77559
2.7706
2.76701
2.76483
2.76397
1.88753
1.88835
1.89056
1.89425
1.8994
1.90603
1.91416
1.92379
1.93493
1.9476
1.96182
1.9776
1.99496
2.01391
2.03448
2.05669
2.08055
2.1061
2.13335
2.16232
2.19304
2.22553
2.25982
2.29592
2.33387
2.37368
2.41538
2.45899
2.50453
2.55201
2.60146
2.65289
2.70631
2.76172
2.81915
2.87858
2.94003
3.00348
3.06892
3.13633
3.2057
3.277
3.3502
3.42524
3.50208
3.58066
3.6609
3.74274
3.82607
3.91081
3.99683
4.08401
4.17222
4.26131
4.35111
4.44147
4.53219
4.62308
4.71394
4.80455
4.89469
4.98414
5.07265
5.16
5.24594
5.33024
5.41265
5.49295
5.57091
5.64632
5.71897
5.78866
5.85525
5.91856
5.97847
6.03487
6.0877
6.13689
6.18241
6.22428
6.26252
6.2972
6.32839
6.3562
6.38076
6.40223
6.42076
6.43654
6.44975
6.46058
6.46922
6.47588
6.48073
6.48395
6.48572
6.48618
6.48547
6.48371
6.481
6.47742
6.47303
6.46786
6.46192
6.4552
6.44767
6.43927
6.42994
6.41958
6.40808
6.39533
6.3812
6.36554
6.34822
6.32909
6.30801
6.28485
6.25948
6.23179
6.20169
6.16909
6.13394
6.09621
6.0559
6.01302
5.9676
5.91973
5.86947
5.81696
5.7623
5.70564
5.64715
5.58699
5.52534
5.46236
5.39825
5.33319
5.26736
5.20093
5.13406
5.06692
4.99967
4.93244
4.86536
4.79856
4.73215
4.66623
4.6009
4.53623
4.4723
4.40918
4.34693
4.28559
4.22522
4.16585
4.10751
4.05024
3.99405
3.93897
3.88502
3.83222
3.78057
3.73009
3.68078
3.63267
3.58574
3.54002
3.49551
3.45222
3.41015
3.36932
3.32972
3.29137
3.25426
3.21842
3.18383
3.15052
3.11848
3.08773
3.05828
3.03013
3.00328
2.97775
2.95353
2.93065
2.90911
2.88892
2.87008
2.8526
2.8365
2.82176
2.80841
2.79643
2.78585
2.77665
2.76885
2.76245
2.75744
2.75384
2.75164
2.75079
1.87075
1.87156
1.87374
1.87739
1.8825
1.88907
1.89711
1.90665
1.91768
1.93023
1.94432
1.95996
1.97716
1.99595
2.01636
2.03839
2.06208
2.08744
2.11451
2.1433
2.17384
2.20616
2.24028
2.27623
2.31403
2.3537
2.39529
2.4388
2.48426
2.5317
2.58112
2.63256
2.68602
2.74152
2.79906
2.85867
2.92033
2.98404
3.0498
3.1176
3.18742
3.25923
3.333
3.40869
3.48626
3.56564
3.64676
3.72956
3.81394
3.89979
3.98701
4.07548
4.16505
4.25557
4.34687
4.43879
4.53114
4.6237
4.71628
4.80865
4.90057
4.99181
5.08212
5.17125
5.25895
5.34496
5.42904
5.51094
5.59041
5.66722
5.74117
5.81204
5.87965
5.94384
6.00446
6.06142
6.11462
6.164
6.20954
6.25125
6.28916
6.32333
6.35387
6.3809
6.40455
6.42501
6.44244
6.45706
6.46906
6.47867
6.48609
6.49155
6.49525
6.49738
6.49814
6.49768
6.49617
6.49373
6.49047
6.48648
6.48181
6.4765
6.47057
6.46399
6.45674
6.44874
6.43992
6.43016
6.41935
6.40735
6.39401
6.37918
6.36268
6.34436
6.32404
6.30159
6.27685
6.24969
6.22
6.18769
6.1527
6.11498
6.07453
6.03135
5.9855
5.93705
5.88609
5.83274
5.77714
5.71946
5.65985
5.59851
5.53563
5.4714
5.40602
5.33968
5.27257
5.20488
5.13679
5.06847
5.00008
4.93176
4.86365
4.79588
4.72855
4.66177
4.59565
4.53025
4.46565
4.40191
4.33908
4.27723
4.21639
4.15659
4.09787
4.04024
3.98374
3.92837
3.87416
3.82112
3.76926
3.71858
3.6691
3.62081
3.57373
3.52787
3.48322
3.43981
3.39762
3.35667
3.31696
3.27849
3.24128
3.20533
3.17064
3.13723
3.1051
3.07426
3.04471
3.01646
2.98952
2.9639
2.9396
2.91664
2.89502
2.87475
2.85584
2.83829
2.82212
2.80732
2.79391
2.78188
2.77125
2.76201
2.75418
2.74775
2.74272
2.73909
2.73689
2.73603
1.85229
1.85308
1.85524
1.85885
1.86389
1.87038
1.87833
1.88776
1.89867
1.91108
1.92502
1.94049
1.95752
1.97613
1.99634
2.01818
2.04166
2.06682
2.09368
2.12226
2.1526
2.18471
2.21864
2.2544
2.29203
2.33155
2.37299
2.41639
2.46175
2.50912
2.55851
2.60994
2.66343
2.71901
2.77668
2.83645
2.89833
2.96233
3.02843
3.09664
3.16693
3.23929
3.31369
3.39009
3.46845
3.54871
3.6308
3.71466
3.80018
3.88728
3.97584
4.06572
4.1568
4.24891
4.3419
4.43556
4.52972
4.62416
4.71867
4.81301
4.90693
5.00018
5.09252
5.18366
5.27335
5.36131
5.44727
5.53098
5.61216
5.69058
5.766
5.8382
5.90699
5.97218
6.03363
6.09121
6.14483
6.19443
6.23999
6.2815
6.31902
6.35262
6.38241
6.40852
6.43112
6.4504
6.46656
6.47984
6.49045
6.49864
6.50465
6.50873
6.5111
6.51197
6.51157
6.51007
6.50763
6.50441
6.50052
6.49606
6.49108
6.48563
6.47972
6.47332
6.4664
6.45888
6.45065
6.44161
6.43161
6.4205
6.4081
6.39423
6.3787
6.36133
6.34193
6.32031
6.29631
6.26978
6.24059
6.20863
6.17383
6.13613
6.09552
6.05202
6.00567
5.95656
5.90478
5.85047
5.7938
5.73492
5.67404
5.61135
5.54707
5.4814
5.41456
5.34676
5.27822
5.20911
5.13965
5.06999
5.00033
4.93079
4.86153
4.79268
4.72434
4.65664
4.58963
4.52342
4.45808
4.39366
4.33022
4.26781
4.20646
4.1462
4.08706
4.02906
3.97222
3.91655
3.86206
3.80877
3.75668
3.70579
3.65612
3.60766
3.56042
3.5144
3.46961
3.42606
3.38374
3.34266
3.30283
3.26425
3.22692
3.19086
3.15606
3.12254
3.0903
3.05935
3.0297
3.00135
2.97431
2.94859
2.9242
2.90115
2.87944
2.85908
2.84009
2.82246
2.80621
2.79134
2.77787
2.76578
2.7551
2.74582
2.73794
2.73148
2.72642
2.72278
2.72056
2.71969
1.83216
1.83294
1.83506
1.83861
1.84359
1.84999
1.85783
1.86713
1.8779
1.89016
1.90392
1.91921
1.93605
1.95445
1.97444
1.99605
2.01931
2.04423
2.07085
2.0992
2.1293
2.16118
2.19488
2.23043
2.26786
2.3072
2.34847
2.39172
2.43697
2.48424
2.53357
2.58498
2.6385
2.69413
2.75192
2.81186
2.87397
2.93825
3.00472
3.07335
3.14415
3.2171
3.29217
3.36934
3.44855
3.52977
3.61291
3.69792
3.7847
3.87316
3.96317
4.05462
4.14736
4.24123
4.33607
4.43167
4.52785
4.62438
4.72103
4.81756
4.91372
5.00923
5.10383
5.19723
5.28915
5.37929
5.46738
5.55312
5.63624
5.71648
5.79357
5.86728
5.9374
6.00373
6.06611
6.1244
6.1785
6.22835
6.27392
6.31521
6.35228
6.38521
6.41412
6.43918
6.46056
6.47849
6.49318
6.5049
6.51391
6.52047
6.52487
6.52735
6.5282
6.52764
6.5259
6.5232
6.51972
6.51562
6.51102
6.50603
6.50071
6.49511
6.48923
6.48305
6.47653
6.46956
6.46205
6.45385
6.4448
6.43472
6.42342
6.41069
6.39631
6.38005
6.36172
6.34109
6.31797
6.29219
6.26359
6.23205
6.19747
6.15981
6.11903
6.07516
6.02824
5.97837
5.92565
5.87025
5.81234
5.7521
5.68976
5.62553
5.55965
5.49235
5.42387
5.35443
5.28426
5.21357
5.14256
5.07142
5.00034
4.92946
4.85893
4.78888
4.71944
4.6507
4.58274
4.51566
4.44952
4.38437
4.32028
4.25727
4.19537
4.13463
4.07505
4.01665
3.95945
3.90346
3.84869
3.79514
3.74281
3.69171
3.64183
3.59319
3.54578
3.4996
3.45467
3.41097
3.36851
3.3273
3.28734
3.24863
3.21118
3.17499
3.14007
3.10643
3.07408
3.04301
3.01324
2.98478
2.95763
2.93181
2.90731
2.88416
2.86235
2.8419
2.82282
2.8051
2.78877
2.77382
2.76028
2.74813
2.73739
2.72805
2.72014
2.71364
2.70855
2.70488
2.70265
2.70178
1.81039
1.81115
1.81323
1.81672
1.82161
1.82791
1.83564
1.8448
1.85541
1.86749
1.88106
1.89614
1.91275
1.93092
1.95067
1.97202
1.99501
2.01967
2.04602
2.0741
2.10393
2.13555
2.169
2.2043
2.24149
2.28061
2.32169
2.36476
2.40986
2.45702
2.50627
2.55763
2.61115
2.66684
2.72472
2.78482
2.84716
2.91174
2.97857
3.04765
3.11898
3.19255
3.26834
3.34631
3.42644
3.50868
3.59296
3.67921
3.76735
3.85728
3.94889
4.04204
4.1366
4.2324
4.32927
4.42701
4.52541
4.62424
4.72327
4.82223
4.92087
5.01889
5.11601
5.21193
5.30633
5.39892
5.48939
5.57742
5.66272
5.74499
5.82397
5.89939
5.97102
6.03864
6.10207
6.16117
6.21582
6.26594
6.31152
6.35255
6.3891
6.42126
6.44917
6.47301
6.49299
6.50935
6.52235
6.53229
6.53946
6.54416
6.54669
6.54736
6.54646
6.54426
6.54102
6.53696
6.53229
6.52719
6.52179
6.5162
6.51051
6.50475
6.49893
6.49302
6.48698
6.48066
6.47398
6.46676
6.45882
6.44996
6.43994
6.42854
6.41549
6.40056
6.38347
6.36401
6.34192
6.31702
6.28913
6.25809
6.22379
6.18618
6.14522
6.10093
6.05337
6.00263
5.94884
5.89219
5.83285
5.77106
5.70706
5.64108
5.57339
5.50425
5.43391
5.36262
5.29064
5.21817
5.14545
5.07267
5.00002
4.92766
4.85574
4.7844
4.71374
4.64388
4.57491
4.50689
4.43989
4.37397
4.30917
4.24553
4.18307
4.12181
4.06177
4.00297
3.9454
3.88908
3.83401
3.78019
3.72762
3.67629
3.62622
3.57739
3.52981
3.48347
3.43837
3.39452
3.35192
3.31057
3.27047
3.23163
3.19404
3.15772
3.12268
3.08891
3.05643
3.02524
2.99534
2.96676
2.93949
2.91355
2.88894
2.86568
2.84376
2.82321
2.80402
2.78621
2.76978
2.75476
2.74113
2.72891
2.7181
2.70871
2.70075
2.6942
2.68909
2.68539
2.68314
2.68227
1.78699
1.78772
1.78976
1.79319
1.79799
1.80417
1.81176
1.82076
1.8312
1.84308
1.85644
1.87128
1.88765
1.90555
1.92502
1.94609
1.96879
1.99314
2.01919
2.04696
2.07649
2.10781
2.14096
2.17598
2.2129
2.25177
2.29261
2.33548
2.3804
2.4274
2.47654
2.52784
2.58133
2.63704
2.69501
2.75526
2.81781
2.88268
2.94988
3.01942
3.0913
3.16551
3.24205
3.32088
3.40198
3.4853
3.57079
3.65838
3.74798
3.8395
3.93283
4.02784
4.12437
4.22228
4.32136
4.42143
4.52227
4.62363
4.72527
4.82692
4.9283
5.0291
5.12901
5.22772
5.3249
5.42021
5.51333
5.60392
5.69165
5.77622
5.85732
5.93466
6.00799
6.07707
6.1417
6.20171
6.25697
6.30742
6.353
6.39373
6.42968
6.46095
6.48771
6.51015
6.52852
6.54309
6.55416
6.56205
6.56711
6.56967
6.57008
6.56868
6.5658
6.56173
6.55677
6.55117
6.54516
6.53892
6.53262
6.52638
6.52028
6.51436
6.50863
6.50305
6.49755
6.49201
6.48629
6.48022
6.47358
6.46613
6.45762
6.44777
6.43629
6.42289
6.40727
6.38917
6.36831
6.34445
6.31738
6.28694
6.25299
6.21545
6.17429
6.12952
6.08122
6.02949
5.97448
5.91639
5.85544
5.79188
5.72599
5.65802
5.58829
5.51707
5.44465
5.3713
5.29728
5.22285
5.14823
5.07364
4.99927
4.92529
4.85186
4.77911
4.70715
4.63609
4.56602
4.497
4.4291
4.36237
4.29683
4.23253
4.16948
4.10769
4.04719
3.98796
3.93002
3.87336
3.81799
3.7639
3.71108
3.65954
3.60926
3.56024
3.51248
3.46597
3.42072
3.37671
3.33396
3.29246
3.25222
3.21323
3.17551
3.13905
3.10387
3.06997
3.03735
3.00602
2.97599
2.94727
2.91987
2.89381
2.86907
2.84569
2.82366
2.80299
2.78369
2.76577
2.74925
2.73413
2.72041
2.70811
2.69724
2.68779
2.67977
2.67318
2.66803
2.66431
2.66204
2.66116
1.76199
1.7627
1.76469
1.76804
1.77274
1.7788
1.78623
1.79506
1.8053
1.81696
1.83008
1.84466
1.86075
1.87836
1.89752
1.91827
1.94064
1.96465
1.99035
2.01778
2.04696
2.07794
2.11076
2.14545
2.18206
2.22064
2.26121
2.30382
2.34852
2.39534
2.44433
2.49553
2.54896
2.60468
2.66271
2.72309
2.78584
2.85099
2.91856
2.98855
3.06099
3.13587
3.21318
3.29291
3.37502
3.45949
3.54626
3.63527
3.72643
3.81965
3.91483
4.01183
4.11051
4.21069
4.31218
4.41479
4.51829
4.62242
4.72693
4.83153
4.93592
5.03978
5.14278
5.24458
5.34482
5.44316
5.53923
5.63267
5.72313
5.81026
5.89374
5.97324
6.04849
6.11922
6.1852
6.24624
6.30221
6.35301
6.3986
6.43899
6.47425
6.50451
6.52994
6.55078
6.5673
6.57981
6.58866
6.59422
6.59686
6.59699
6.59498
6.59122
6.58608
6.5799
6.57299
6.56565
6.55812
6.55061
6.54331
6.53634
6.52979
6.5237
6.51809
6.5129
6.50805
6.50342
6.49883
6.49409
6.48896
6.48316
6.47639
6.46835
6.4587
6.44709
6.4332
6.41669
6.39726
6.37463
6.34854
6.31881
6.28527
6.24783
6.20646
6.16116
6.11201
6.05914
6.00273
5.943
5.88021
5.81463
5.74658
5.67638
5.60434
5.53078
5.45602
5.38037
5.3041
5.2275
5.15079
5.07421
4.99796
4.92222
4.84715
4.77288
4.69953
4.62719
4.55596
4.48589
4.41704
4.34946
4.28316
4.21818
4.15452
4.0922
4.03122
3.97157
3.91325
3.85626
3.80059
3.74623
3.69317
3.6414
3.59092
3.54172
3.49378
3.44711
3.40169
3.35753
3.31463
3.27298
3.23259
3.19345
3.15558
3.11898
3.08365
3.0496
3.01683
2.98536
2.95519
2.92633
2.89879
2.87258
2.84771
2.82419
2.80203
2.78123
2.76182
2.74378
2.72715
2.71193
2.69812
2.68574
2.67478
2.66527
2.65719
2.65055
2.64536
2.64161
2.63934
2.63845
1.73542
1.73611
1.73804
1.74131
1.74589
1.75181
1.75908
1.76771
1.77773
1.78915
1.802
1.81629
1.83207
1.84935
1.86817
1.88856
1.91056
1.9342
1.95951
1.98655
2.01534
2.04594
2.07837
2.1127
2.14895
2.18718
2.22744
2.26976
2.31419
2.36079
2.40959
2.46064
2.51398
2.56967
2.62773
2.68821
2.75114
2.81655
2.88447
2.95492
3.02792
3.10347
3.18158
3.26223
3.3454
3.43107
3.51918
3.60968
3.7025
3.79754
3.8947
3.99383
4.09481
4.19744
4.30155
4.40691
4.5133
4.62045
4.72809
4.83591
4.9436
5.05082
5.15722
5.26243
5.36607
5.46775
5.5671
5.66371
5.75721
5.84721
5.93335
6.01529
6.09269
6.16528
6.23279
6.29502
6.35179
6.403
6.4486
6.4886
6.52307
6.55217
6.57609
6.59509
6.60949
6.61965
6.62596
6.62884
6.62873
6.62608
6.62131
6.61488
6.60717
6.59859
6.58949
6.58018
6.57094
6.56201
6.55359
6.54581
6.53877
6.53252
6.52706
6.52233
6.51825
6.51467
6.5114
6.50821
6.50482
6.50093
6.4962
6.49026
6.48274
6.47323
6.46135
6.44671
6.42896
6.40777
6.38284
6.35395
6.32091
6.2836
6.24198
6.19607
6.14595
6.09178
6.03377
5.97216
5.90726
5.83939
5.7689
5.69615
5.62151
5.54534
5.46797
5.38975
5.31099
5.23198
5.15298
5.07423
4.99594
4.9183
4.84146
4.76557
4.69074
4.61706
4.5446
4.47343
4.4036
4.33514
4.26806
4.20238
4.13812
4.07526
4.0138
3.95373
3.89505
3.83773
3.78176
3.72714
3.67385
3.62187
3.57119
3.52181
3.4737
3.42686
3.38128
3.33696
3.29391
3.2521
3.21156
3.17228
3.13426
3.0975
3.06201
3.02781
2.99489
2.96326
2.93293
2.90392
2.87623
2.84987
2.82485
2.80118
2.77888
2.75794
2.7384
2.72024
2.70349
2.68816
2.67425
2.66177
2.65073
2.64114
2.633
2.62631
2.62108
2.6173
2.615
2.61411
1.70731
1.70797
1.70985
1.71302
1.71749
1.72325
1.73033
1.73875
1.74852
1.75967
1.77222
1.7862
1.80163
1.81855
1.83699
1.85698
1.87857
1.90178
1.92667
1.95327
1.98162
2.01178
2.04379
2.07769
2.11354
2.15138
2.19126
2.23324
2.27736
2.32368
2.37224
2.4231
2.47631
2.53192
2.58997
2.65051
2.71359
2.77924
2.8475
2.91839
2.99194
3.06817
3.14708
3.22867
3.31293
3.39984
3.48936
3.58143
3.676
3.77296
3.87221
3.97363
4.07706
4.18233
4.28925
4.39759
4.5071
4.61753
4.72857
4.83992
4.95122
5.06212
5.17225
5.28121
5.38859
5.49397
5.59695
5.69708
5.79396
5.88716
5.97629
6.06096
6.1408
6.21549
6.28474
6.3483
6.40599
6.45768
6.50329
6.54285
6.57643
6.6042
6.62639
6.64329
6.65527
6.66273
6.66614
6.66596
6.66271
6.65689
6.64899
6.63951
6.6289
6.61761
6.60602
6.5945
6.58335
6.57283
6.56316
6.55448
6.54692
6.5405
6.53524
6.53107
6.52788
6.52553
6.52378
6.52237
6.52101
6.51933
6.51696
6.51347
6.50842
6.50136
6.49182
6.47938
6.4636
6.4441
6.42054
6.39264
6.36018
6.32304
6.28115
6.23454
6.18332
6.12765
6.06779
6.00403
5.93671
5.86623
5.79297
5.71735
5.63978
5.56066
5.48039
5.39932
5.3178
5.23615
5.15465
5.07353
4.99304
4.91335
4.83463
4.75702
4.68062
4.60552
4.53179
4.45949
4.38865
4.31929
4.25142
4.18505
4.12018
4.05678
3.99486
3.93439
3.87534
3.81772
3.76148
3.70661
3.65309
3.60091
3.55004
3.50048
3.45221
3.40521
3.35948
3.31501
3.2718
3.22984
3.18914
3.1497
3.11152
3.07461
3.03896
3.00459
2.97151
2.93971
2.90922
2.88005
2.85219
2.82567
2.80048
2.77666
2.7542
2.73312
2.71342
2.69514
2.67826
2.6628
2.64878
2.6362
2.62507
2.6154
2.60719
2.60044
2.59516
2.59135
2.58903
2.58813
1.67771
1.67834
1.68015
1.68323
1.68755
1.69314
1.70002
1.7082
1.71771
1.72856
1.74078
1.7544
1.76945
1.78597
1.80399
1.82354
1.84467
1.86741
1.89182
1.91793
1.9458
1.97547
2.00699
2.04042
2.0758
2.11319
2.15265
2.19422
2.23797
2.28395
2.33222
2.38284
2.43586
2.49135
2.54934
2.60991
2.67309
2.73894
2.80749
2.8788
2.95289
3.02978
3.10949
3.19204
3.27741
3.3656
3.45658
3.55029
3.64668
3.74566
3.84713
3.95097
4.05702
4.16511
4.27504
4.38658
4.49948
4.61345
4.72819
4.84336
4.9586
5.07353
5.18774
5.30081
5.41231
5.52178
5.62877
5.73281
5.83345
5.93022
6.02269
6.11042
6.19301
6.27008
6.34131
6.40641
6.46515
6.51738
6.56303
6.6021
6.63467
6.66092
6.68113
6.69563
6.70483
6.70921
6.70929
6.70563
6.69879