/*--------------------------------*- C++ -*----------------------------------*\
| =========                 |                                                 |
| \\      /  F ield         | OpenFOAM: The Open Source CFD Toolbox           |
|  \\    /   O peration     | Version:  2412                                  |
|   \\  /    A nd           | Website:  www.openfoam.com                      |
|    \\/     M anipulation  |                                                 |
\*---------------------------------------------------------------------------*/
FoamFile
{
    version     2.0;
    format      ascii;
    arch        "LSB;label=32;scalar=64";
    class       surfaceScalarField;
    location    "1.9";
    object      phi;
}
// * * * * * * * * * * * * * * * * * * * * * * * * * * * * * * * * * * * * * //

dimensions      [0 3 -1 0 0 0 0];

oriented        oriented;

internalField   nonuniform List<scalar> 
79600
(
-1.67191e-10
1.58397e-10
-3.98995e-10
2.31804e-10
-6.48046e-10
2.49051e-10
-9.00207e-10
2.52161e-10
-1.15286e-09
2.52648e-10
-1.40589e-09
2.5303e-10
-1.65953e-09
2.5364e-10
-1.91394e-09
2.54404e-10
-2.16919e-09
2.55244e-10
-2.42532e-09
2.56127e-10
-2.68236e-09
2.5704e-10
-2.94034e-09
2.57978e-10
-3.19928e-09
2.58933e-10
-3.45917e-09
2.59893e-10
-3.72002e-09
2.60847e-10
-3.98179e-09
2.61778e-10
-4.24446e-09
2.62671e-10
-4.50797e-09
2.63507e-10
-4.77223e-09
2.64265e-10
-5.03715e-09
2.64926e-10
-5.30262e-09
2.65467e-10
-5.56848e-09
2.65864e-10
-5.83458e-09
2.66093e-10
-6.10071e-09
2.66128e-10
-6.36665e-09
2.65943e-10
-6.63216e-09
2.65509e-10
-6.89696e-09
2.64798e-10
-7.16074e-09
2.63779e-10
-7.42316e-09
2.62421e-10
-7.68386e-09
2.60693e-10
-7.94243e-09
2.58563e-10
-8.19843e-09
2.55997e-10
-8.4514e-09
2.52964e-10
-8.70083e-09
2.49429e-10
-8.94619e-09
2.45358e-10
-9.18691e-09
2.4072e-10
-9.4224e-09
2.35481e-10
-9.65201e-09
2.2961e-10
-9.87508e-09
2.23075e-10
-1.00909e-08
2.15849e-10
-1.02988e-08
2.07905e-10
-1.04981e-08
1.99219e-10
-1.06878e-08
1.89769e-10
-1.08674e-08
1.79537e-10
-1.10359e-08
1.68511e-10
-1.11926e-08
1.56682e-10
-1.13366e-08
1.44045e-10
-1.14672e-08
1.30601e-10
-1.15836e-08
1.16359e-10
-1.16849e-08
1.01328e-10
-1.17704e-08
8.5524e-11
-1.18394e-08
6.89596e-11
-1.1891e-08
5.16564e-11
-1.19245e-08
3.34734e-11
-1.19388e-08
1.42894e-11
-1.19331e-08
-5.65594e-12
-1.19077e-08
-2.5376e-11
-1.18625e-08
-4.51938e-11
-1.17974e-08
-6.51006e-11
-1.17124e-08
-8.50597e-11
-1.16074e-08
-1.04992e-10
-1.14826e-08
-1.24796e-10
-1.13382e-08
-1.4436e-10
-1.11746e-08
-1.63563e-10
-1.09923e-08
-1.82287e-10
-1.07919e-08
-2.0041e-10
-1.05741e-08
-2.17815e-10
-1.03397e-08
-2.34386e-10
-1.00897e-08
-2.50016e-10
-9.82509e-09
-2.64603e-10
-9.54703e-09
-2.78058e-10
-9.25672e-09
-2.90299e-10
-8.95546e-09
-3.01261e-10
-8.64456e-09
-3.1089e-10
-8.32541e-09
-3.19149e-10
-7.99938e-09
-3.26015e-10
-7.66789e-09
-3.31484e-10
-7.33232e-09
-3.35568e-10
-6.99401e-09
-3.38296e-10
-6.65429e-09
-3.39713e-10
-6.3144e-09
-3.39881e-10
-5.97552e-09
-3.38876e-10
-5.63873e-09
-3.36788e-10
-5.305e-09
-3.33719e-10
-4.97522e-09
-3.29782e-10
-4.65012e-09
-3.25097e-10
-4.33033e-09
-3.19791e-10
-4.01633e-09
-3.13996e-10
-3.70849e-09
-3.07844e-10
-3.40702e-09
-3.0147e-10
-3.11202e-09
-2.95003e-10
-2.82345e-09
-2.8857e-10
-2.54115e-09
-2.82292e-10
-2.26488e-09
-2.76279e-10
-1.99424e-09
-2.70634e-10
-1.72879e-09
-2.65449e-10
-1.46799e-09
-2.608e-10
-1.21124e-09
-2.56752e-10
-9.57886e-10
-2.53356e-10
-7.07239e-10
-2.50647e-10
-4.58596e-10
-2.48644e-10
-2.11249e-10
-2.47349e-10
3.54955e-11
-2.46745e-10
2.82306e-10
-2.46811e-10
5.29837e-10
-2.4753e-10
7.78664e-10
-2.48828e-10
1.02929e-09
-2.50624e-10
1.28212e-09
-2.52836e-10
1.5375e-09
-2.55375e-10
1.79564e-09
-2.58139e-10
2.05666e-09
-2.61019e-10
2.32056e-09
-2.63899e-10
2.58722e-09
-2.6666e-10
2.8564e-09
-2.69183e-10
3.12774e-09
-2.71345e-10
3.40078e-09
-2.73031e-10
3.67491e-09
-2.74132e-10
3.94945e-09
-2.74543e-10
4.22363e-09
-2.74169e-10
4.49657e-09
-2.72933e-10
4.76734e-09
-2.70769e-10
5.03496e-09
-2.67621e-10
5.29842e-09
-2.6345e-10
5.55667e-09
-2.58241e-10
5.80866e-09
-2.51987e-10
6.05337e-09
-2.44703e-10
6.28979e-09
-2.36415e-10
6.51696e-09
-2.27165e-10
6.73398e-09
-2.1701e-10
6.94e-09
-2.06019e-10
7.13428e-09
-1.94273e-10
7.31614e-09
-1.81855e-10
7.485e-09
-1.68861e-10
7.64039e-09
-1.55386e-10
7.78192e-09
-1.41531e-10
7.90932e-09
-1.27395e-10
8.02241e-09
-1.13076e-10
8.12109e-09
-9.86717e-11
8.20537e-09
-8.42715e-11
8.27533e-09
-6.99588e-11
8.33115e-09
-5.58121e-11
8.37306e-09
-4.18995e-11
8.40133e-09
-2.82737e-11
8.4163e-09
-1.4969e-11
8.41836e-09
-2.05524e-12
8.4076e-09
1.07548e-11
8.38459e-09
2.302e-11
8.35e-09
3.45827e-11
8.3045e-09
4.55097e-11
8.24863e-09
5.58699e-11
8.18296e-09
6.5667e-11
8.10806e-09
7.49064e-11
8.02446e-09
8.36011e-11
7.9327e-09
9.17685e-11
7.83328e-09
9.94278e-11
7.72668e-09
1.06602e-10
7.61337e-09
1.13312e-10
7.49379e-09
1.19579e-10
7.36837e-09
1.25428e-10
7.23749e-09
1.30882e-10
7.10153e-09
1.35964e-10
6.96083e-09
1.40699e-10
6.81572e-09
1.45111e-10
6.6665e-09
1.49223e-10
6.51345e-09
1.53056e-10
6.35682e-09
1.56632e-10
6.19685e-09
1.5997e-10
6.03376e-09
1.6309e-10
5.86774e-09
1.66011e-10
5.69899e-09
1.6875e-10
5.52768e-09
1.7132e-10
5.35395e-09
1.73737e-10
5.17794e-09
1.76013e-10
4.99979e-09
1.78157e-10
4.81962e-09
1.8018e-10
4.63753e-09
1.82091e-10
4.45363e-09
1.83898e-10
4.26803e-09
1.85608e-10
4.0808e-09
1.87228e-10
3.89204e-09
1.88761e-10
3.70183e-09
1.90212e-10
3.51025e-09
1.91583e-10
3.31737e-09
1.92877e-10
3.12327e-09
1.94096e-10
2.92803e-09
1.95241e-10
2.73171e-09
1.96313e-10
2.5344e-09
1.97311e-10
2.33617e-09
1.98235e-10
2.13709e-09
1.99081e-10
1.93725e-09
1.99846e-10
1.73672e-09
2.00525e-10
1.53561e-09
2.01115e-10
1.33398e-09
2.01622e-10
1.1319e-09
2.02086e-10
9.29295e-10
2.02603e-10
7.26007e-10
2.0329e-10
5.22121e-10
2.03888e-10
3.19936e-10
2.02186e-10
1.3111e-10
1.88824e-10
1.31109e-10
-2.45918e-10
4.04315e-10
-6.04424e-10
5.90309e-10
-9.84571e-10
6.29196e-10
-1.36641e-09
6.34001e-10
-1.74695e-09
6.33175e-10
-2.12675e-09
6.32827e-10
-2.50664e-09
6.33521e-10
-2.88708e-09
6.34843e-10
-3.2683e-09
6.36454e-10
-3.65037e-09
6.38192e-10
-4.03332e-09
6.3999e-10
-4.41716e-09
6.41815e-10
-4.80186e-09
6.43641e-10
-5.1874e-09
6.45436e-10
-5.57372e-09
6.47168e-10
-5.96074e-09
6.48797e-10
-6.34834e-09
6.50282e-10
-6.73641e-09
6.51576e-10
-7.12477e-09
6.5263e-10
-7.51324e-09
6.53392e-10
-7.90158e-09
6.53807e-10
-8.28953e-09
6.53817e-10
-8.6768e-09
6.53362e-10
-9.06305e-09
6.52378e-10
-9.44791e-09
6.50801e-10
-9.83096e-09
6.48561e-10
-1.02118e-08
6.4559e-10
-1.05898e-08
6.41815e-10
-1.09645e-08
6.37165e-10
-1.13354e-08
6.31564e-10
-1.17018e-08
6.24938e-10
-1.2063e-08
6.17211e-10
-1.24184e-08
6.08308e-10
-1.27671e-08
5.98152e-10
-1.31084e-08
5.86671e-10
-1.34415e-08
5.7379e-10
-1.37655e-08
5.59441e-10
-1.40794e-08
5.43557e-10
-1.43824e-08
5.26076e-10
-1.46735e-08
5.0694e-10
-1.49517e-08
4.86098e-10
-1.5216e-08
4.63507e-10
-1.54653e-08
4.3913e-10
-1.56988e-08
4.12942e-10
-1.59152e-08
3.84929e-10
-1.61136e-08
3.55087e-10
-1.62929e-08
3.23425e-10
-1.64523e-08
2.89967e-10
-1.65907e-08
2.54751e-10
-1.67072e-08
2.17827e-10
-1.68009e-08
1.79262e-10
-1.68711e-08
1.39132e-10
-1.69169e-08
9.75215e-11
-1.69379e-08
5.44841e-11
-1.69338e-08
1.01827e-11
-1.69045e-08
-3.4965e-11
-1.68492e-08
-8.06535e-11
-1.67675e-08
-1.2688e-10
-1.66592e-08
-1.73396e-10
-1.65243e-08
-2.19974e-10
-1.63629e-08
-2.66375e-10
-1.61753e-08
-3.12351e-10
-1.59621e-08
-3.5764e-10
-1.57236e-08
-4.01977e-10
-1.54608e-08
-4.45096e-10
-1.51745e-08
-4.8673e-10
-1.48657e-08
-5.26624e-10
-1.45355e-08
-5.64529e-10
-1.41853e-08
-6.00214e-10
-1.38165e-08
-6.33464e-10
-1.34304e-08
-6.64089e-10
-1.30288e-08
-6.91921e-10
-1.26132e-08
-7.16824e-10
-1.21854e-08
-7.38691e-10
-1.17471e-08
-7.5745e-10
-1.13e-08
-7.73062e-10
-1.0846e-08
-7.85528e-10
-1.03867e-08
-7.94883e-10
-9.92374e-09
-8.012e-10
-9.45885e-09
-8.04587e-10
-8.99354e-09
-8.05187e-10
-8.52923e-09
-8.03174e-10
-8.06726e-09
-7.98752e-10
-7.60882e-09
-7.9215e-10
-7.15498e-09
-7.83619e-10
-6.70665e-09
-7.73429e-10
-6.26458e-09
-7.61861e-10
-5.82937e-09
-7.49207e-10
-5.40145e-09
-7.35762e-10
-4.9811e-09
-7.21821e-10
-4.56843e-09
-7.07671e-10
-4.16341e-09
-6.93593e-10
-3.76585e-09
-6.79849e-10
-3.37544e-09
-6.66688e-10
-2.99175e-09
-6.54332e-10
-2.61421e-09
-6.42981e-10
-2.2422e-09
-6.32809e-10
-1.875e-09
-6.23957e-10
-1.51182e-09
-6.16535e-10
-1.15185e-09
-6.10619e-10
-7.94239e-10
-6.06253e-10
-4.38146e-10
-6.03442e-10
-8.2733e-11
-6.02159e-10
2.72797e-10
-6.02344e-10
6.29184e-10
-6.03917e-10
9.8711e-10
-6.06755e-10
1.34717e-09
-6.10686e-10
1.70986e-09
-6.15527e-10
2.07556e-09
-6.21074e-10
2.44453e-09
-6.27101e-10
2.81688e-09
-6.33366e-10
3.19259e-09
-6.39611e-10
3.5715e-09
-6.45573e-10
3.95331e-09
-6.50985e-10
4.33754e-09
-6.5558e-10
4.72361e-09
-6.59096e-10
5.11078e-09
-6.61289e-10
5.49818e-09
-6.61932e-10
5.88483e-09
-6.60813e-10
6.26965e-09
-6.57748e-10
6.65148e-09
-6.52585e-10
7.02908e-09
-6.45206e-10
7.40116e-09
-6.3552e-10
7.76641e-09
-6.23478e-10
8.12349e-09
-6.09064e-10
8.4711e-09
-5.92297e-10
8.80793e-09
-5.73233e-10
9.13273e-09
-5.51961e-10
9.44433e-09
-5.28598e-10
9.7416e-09
-5.03288e-10
1.00235e-08
-4.762e-10
1.02892e-08
-4.47521e-10
1.05378e-08
-4.1745e-10
1.07686e-08
-3.86202e-10
1.09811e-08
-3.53996e-10
1.11748e-08
-3.21052e-10
1.13493e-08
-2.87587e-10
1.15045e-08
-2.53814e-10
1.16401e-08
-2.19942e-10
1.17563e-08
-1.86164e-10
1.18532e-08
-1.52656e-10
1.19309e-08
-1.19584e-10
1.19897e-08
-8.70926e-11
1.20301e-08
-5.53134e-11
1.20524e-08
-2.43765e-11
1.20574e-08
5.74217e-12
1.20455e-08
3.49021e-11
1.20172e-08
6.29333e-11
1.19729e-08
8.97809e-11
1.19133e-08
1.15433e-10
1.18391e-08
1.39878e-10
1.17509e-08
1.63113e-10
1.16494e-08
1.85146e-10
1.15352e-08
2.05999e-10
1.14089e-08
2.25698e-10
1.12712e-08
2.44275e-10
1.11228e-08
2.61771e-10
1.09641e-08
2.78226e-10
1.07959e-08
2.93684e-10
1.06186e-08
3.08195e-10
1.04328e-08
3.21806e-10
1.02389e-08
3.34566e-10
1.00375e-08
3.46523e-10
9.82898e-09
3.57728e-10
9.6138e-09
3.68228e-10
9.39236e-09
3.78069e-10
9.16503e-09
3.87298e-10
8.93217e-09
3.95956e-10
8.6941e-09
4.04084e-10
8.45114e-09
4.11719e-10
8.20358e-09
4.18896e-10
7.95168e-09
4.25646e-10
7.6957e-09
4.32e-10
7.43588e-09
4.37986e-10
7.17244e-09
4.43628e-10
6.90558e-09
4.48948e-10
6.63552e-09
4.53969e-10
6.36242e-09
4.58707e-10
6.08648e-09
4.63176e-10
5.80785e-09
4.67392e-10
5.52669e-09
4.71367e-10
5.24317e-09
4.75109e-10
4.95742e-09
4.78626e-10
4.66958e-09
4.81927e-10
4.37981e-09
4.85015e-10
4.08823e-09
4.87894e-10
3.79498e-09
4.90566e-10
3.50019e-09
4.93028e-10
3.204e-09
4.9528e-10
2.90653e-09
4.97317e-10
2.60792e-09
4.99135e-10
2.30829e-09
5.00743e-10
2.00772e-09
5.02194e-10
1.70615e-09
5.03654e-10
1.40327e-09
5.05488e-10
1.0984e-09
5.08157e-10
7.91128e-10
5.11171e-10
4.84346e-10
5.08984e-10
1.95758e-10
4.77433e-10
3.26866e-10
-2.65857e-10
6.70172e-10
-6.52559e-10
9.77011e-10
-1.06105e-09
1.03768e-09
-1.47007e-09
1.04302e-09
-1.87675e-09
1.03985e-09
-2.28199e-09
1.03807e-09
-2.68691e-09
1.03843e-09
-3.09215e-09
1.04008e-09
-3.49801e-09
1.04231e-09
-3.90462e-09
1.0448e-09
-4.31203e-09
1.0474e-09
-4.72023e-09
1.05002e-09
-5.12922e-09
1.05263e-09
-5.53893e-09
1.05515e-09
-5.94931e-09
1.05755e-09
-6.36024e-09
1.05974e-09
-6.77162e-09
1.06166e-09
-7.18327e-09
1.06323e-09
-7.59501e-09
1.06438e-09
-8.00663e-09
1.06501e-09
-8.41785e-09
1.06504e-09
-8.8284e-09
1.06437e-09
-9.23794e-09
1.0629e-09
-9.64609e-09
1.06053e-09
-1.00524e-08
1.05716e-09
-1.04566e-08
1.05267e-09
-1.08579e-08
1.04695e-09
-1.1256e-08
1.03989e-09
-1.16502e-08
1.03137e-09
-1.20399e-08
1.02127e-09
-1.24245e-08
1.00948e-09
-1.28031e-08
9.95875e-10
-1.31751e-08
9.80334e-10
-1.35397e-08
9.62742e-10
-1.38961e-08
9.42986e-10
-1.42432e-08
9.20953e-10
-1.45803e-08
8.96538e-10
-1.49064e-08
8.69642e-10
-1.52205e-08
8.40172e-10
-1.55216e-08
8.08044e-10
-1.58087e-08
7.73187e-10
-1.60807e-08
7.35539e-10
-1.63366e-08
6.95056e-10
-1.65754e-08
6.51707e-10
-1.67959e-08
6.05481e-10
-1.69972e-08
5.56384e-10
-1.71783e-08
5.04446e-10
-1.7338e-08
4.49718e-10
-1.74755e-08
3.92275e-10
-1.75899e-08
3.32221e-10
-1.76803e-08
2.69683e-10
-1.7746e-08
2.04819e-10
-1.77863e-08
1.37816e-10
-1.78007e-08
6.88942e-11
-1.77888e-08
-1.67592e-12
-1.77502e-08
-7.36077e-11
-1.76842e-08
-1.46634e-10
-1.75906e-08
-2.20442e-10
-1.74694e-08
-2.94644e-10
-1.73205e-08
-3.68862e-10
-1.71441e-08
-4.42703e-10
-1.69407e-08
-5.15766e-10
-1.67107e-08
-5.87636e-10
-1.64548e-08
-6.57897e-10
-1.61738e-08
-7.26132e-10
-1.58686e-08
-7.91929e-10
-1.55403e-08
-8.5489e-10
-1.51902e-08
-9.14632e-10
-1.48196e-08
-9.708e-10
-1.443e-08
-1.02307e-09
-1.40229e-08
-1.07114e-09
-1.36001e-08
-1.11476e-09
-1.31632e-08
-1.15373e-09
-1.2714e-08
-1.18789e-09
-1.22543e-08
-1.21714e-09
-1.17859e-08
-1.24141e-09
-1.13107e-08
-1.26073e-09
-1.08304e-08
-1.27515e-09
-1.03468e-08
-1.2848e-09
-9.86155e-09
-1.28985e-09
-9.3762e-09
-1.29053e-09
-8.89226e-09
-1.28711e-09
-8.41107e-09
-1.27993e-09
-7.93386e-09
-1.26935e-09
-7.46172e-09
-1.25576e-09
-6.99557e-09
-1.23958e-09
-6.53617e-09
-1.22127e-09
-6.0841e-09
-1.20127e-09
-5.63981e-09
-1.18006e-09
-5.20355e-09
-1.15809e-09
-4.7754e-09
-1.13581e-09
-4.35532e-09
-1.11367e-09
-3.94309e-09
-1.09208e-09
-3.53836e-09
-1.07142e-09
-3.14065e-09
-1.05205e-09
-2.74936e-09
-1.03427e-09
-2.36381e-09
-1.01835e-09
-1.98324e-09
-1.00453e-09
-1.60682e-09
-9.92961e-10
-1.23367e-09
-9.83773e-10
-8.62894e-10
-9.7703e-10
-4.93597e-10
-9.72743e-10
-1.24889e-10
-9.70869e-10
2.4408e-10
-9.71314e-10
6.14103e-10
-9.73941e-10
9.85881e-10
-9.78535e-10
1.36006e-09
-9.84862e-10
1.73716e-09
-9.92632e-10
2.11761e-09
-1.00152e-09
2.50169e-09
-1.01117e-09
2.88953e-09
-1.02121e-09
3.28114e-09
-1.03122e-09
3.67635e-09
-1.04078e-09
4.07486e-09
-1.04949e-09
4.47621e-09
-1.05692e-09
4.87977e-09
-1.06265e-09
5.28479e-09
-1.06631e-09
5.69038e-09
-1.06751e-09
6.09553e-09
-1.06595e-09
6.49911e-09
-1.06132e-09
6.89992e-09
-1.05338e-09
7.29666e-09
-1.04194e-09
7.68799e-09
-1.02685e-09
8.07255e-09
-1.00802e-09
8.44893e-09
-9.85437e-10
8.81576e-09
-9.59117e-10
9.17168e-09
-9.29144e-10
9.51538e-09
-8.95648e-10
9.84559e-09
-8.5881e-10
1.01612e-08
-8.18851e-10
1.0461e-08
-7.76032e-10
1.07441e-08
-7.30642e-10
1.10097e-08
-6.82992e-10
1.12569e-08
-6.33413e-10
1.14851e-08
-5.82244e-10
1.16939e-08
-5.29832e-10
1.18829e-08
-4.76521e-10
1.20517e-08
-4.22644e-10
1.22003e-08
-3.68525e-10
1.23286e-08
-3.14469e-10
1.24367e-08
-2.60764e-10
1.25248e-08
-2.07671e-10
1.25931e-08
-1.55428e-10
1.26421e-08
-1.04249e-10
1.2672e-08
-5.43259e-11
1.26836e-08
-5.8103e-12
1.26773e-08
4.11754e-11
1.26538e-08
8.65046e-11
1.26134e-08
1.30095e-10
1.2557e-08
1.7189e-10
1.2485e-08
2.11853e-10
1.23982e-08
2.49966e-10
1.22971e-08
2.86229e-10
1.21824e-08
3.20657e-10
1.20549e-08
3.53282e-10
1.1915e-08
3.84144e-10
1.17635e-08
4.13295e-10
1.16009e-08
4.40792e-10
1.14279e-08
4.66699e-10
1.1245e-08
4.91083e-10
1.10528e-08
5.14017e-10
1.08518e-08
5.35574e-10
1.06425e-08
5.55828e-10
1.04254e-08
5.74853e-10
1.02009e-08
5.92722e-10
9.96944e-09
6.09505e-10
9.73147e-09
6.25271e-10
9.48735e-09
6.40085e-10
9.23743e-09
6.54011e-10
8.98205e-09
6.67106e-10
8.72152e-09
6.79426e-10
8.45616e-09
6.91021e-10
8.18623e-09
7.01939e-10
7.91199e-09
7.12224e-10
7.63371e-09
7.21918e-10
7.35161e-09
7.31057e-10
7.06591e-09
7.39672e-10
6.77682e-09
7.47795e-10
6.48455e-09
7.55453e-10
6.18928e-09
7.62667e-10
5.8912e-09
7.69457e-10
5.59047e-09
7.75842e-10
5.28726e-09
7.81837e-10
4.98174e-09
7.87453e-10
4.67406e-09
7.927e-10
4.36437e-09
7.97585e-10
4.05283e-09
8.02114e-10
3.73958e-09
8.06286e-10
3.42477e-09
8.101e-10
3.10853e-09
8.13557e-10
2.79101e-09
8.16661e-10
2.47231e-09
8.19445e-10
2.15247e-09
8.22032e-10
1.83136e-09
8.24766e-10
1.50849e-09
8.28359e-10
1.18293e-09
8.33712e-10
8.53952e-10
8.40148e-10
5.2437e-10
8.38565e-10
2.12868e-10
7.88945e-10
5.39736e-10
-2.68759e-10
9.38931e-10
-6.57775e-10
1.36603e-09
-1.06787e-09
1.44778e-09
-1.4778e-09
1.45295e-09
-1.8849e-09
1.44695e-09
-2.29028e-09
1.44345e-09
-2.69516e-09
1.44331e-09
-3.10027e-09
1.44519e-09
-3.50598e-09
1.44801e-09
-3.91243e-09
1.45125e-09
-4.31969e-09
1.45466e-09
-4.72778e-09
1.45812e-09
-5.13669e-09
1.46154e-09
-5.54638e-09
1.46485e-09
-5.95679e-09
1.46795e-09
-6.36781e-09
1.47076e-09
-6.77933e-09
1.47318e-09
-7.19119e-09
1.4751e-09
-7.60322e-09
1.4764e-09
-8.01518e-09
1.47697e-09
-8.42682e-09
1.47668e-09
-8.83786e-09
1.4754e-09
-9.24795e-09
1.47299e-09
-9.65672e-09
1.46931e-09
-1.00638e-08
1.4642e-09
-1.04686e-08
1.45753e-09
-1.08708e-08
1.44913e-09
-1.12698e-08
1.43885e-09
-1.16649e-08
1.42652e-09
-1.20556e-08
1.41199e-09
-1.24413e-08
1.39509e-09
-1.2821e-08
1.37565e-09
-1.31942e-08
1.35352e-09
-1.356e-08
1.32853e-09
-1.39175e-08
1.30054e-09
-1.4266e-08
1.26938e-09
-1.46044e-08
1.23493e-09
-1.49318e-08
1.19704e-09
-1.52472e-08
1.1556e-09
-1.55496e-08
1.11048e-09
-1.5838e-08
1.06161e-09
-1.61114e-08
1.00889e-09
-1.63686e-08
9.52279e-10
-1.66086e-08
8.91734e-10
-1.68304e-08
8.27248e-10
-1.70328e-08
7.58836e-10
-1.72149e-08
6.86546e-10
-1.73757e-08
6.10455e-10
-1.75141e-08
5.30677e-10
-1.76292e-08
4.47361e-10
-1.77202e-08
3.60696e-10
-1.77863e-08
2.7091e-10
-1.78267e-08
1.78277e-10
-1.78409e-08
8.31154e-11
-1.78284e-08
-1.42228e-11
-1.77885e-08
-1.13493e-10
-1.77209e-08
-2.142e-10
-1.76255e-08
-3.15899e-10
-1.7502e-08
-4.18084e-10
-1.73507e-08
-5.20232e-10
-1.71716e-08
-6.21801e-10
-1.69651e-08
-7.22232e-10
-1.67318e-08
-8.20959e-10
-1.64723e-08
-9.17406e-10
-1.61874e-08
-1.011e-09
-1.58781e-08
-1.10118e-09
-1.55456e-08
-1.18741e-09
-1.51911e-08
-1.26916e-09
-1.48159e-08
-1.34594e-09
-1.44217e-08
-1.41731e-09
-1.401e-08
-1.48287e-09
-1.35824e-08
-1.54228e-09
-1.31409e-08
-1.59527e-09
-1.26872e-08
-1.64161e-09
-1.22232e-08
-1.68117e-09
-1.17507e-08
-1.7139e-09
-1.12716e-08
-1.73979e-09
-1.07878e-08
-1.75895e-09
-1.0301e-08
-1.77155e-09
-9.81305e-09
-1.77783e-09
-9.32546e-09
-1.77811e-09
-8.83978e-09
-1.77279e-09
-8.35741e-09
-1.7623e-09
-7.8796e-09
-1.74716e-09
-7.40745e-09
-1.72791e-09
-6.94189e-09
-1.70514e-09
-6.48369e-09
-1.67946e-09
-6.03344e-09
-1.65152e-09
-5.59156e-09
-1.62193e-09
-5.15829e-09
-1.59136e-09
-4.73369e-09
-1.56041e-09
-4.31768e-09
-1.52969e-09
-3.90999e-09
-1.49977e-09
-3.51024e-09
-1.47117e-09
-3.11788e-09
-1.4444e-09
-2.73229e-09
-1.41986e-09
-2.3527e-09
-1.39794e-09
-1.97829e-09
-1.37894e-09
-1.60817e-09
-1.36309e-09
-1.2414e-09
-1.35055e-09
-8.77004e-10
-1.34142e-09
-5.14029e-10
-1.33572e-09
-1.51523e-10
-1.33338e-09
2.11419e-10
-1.33426e-09
5.75691e-10
-1.33821e-09
9.4203e-10
-1.34487e-09
1.31113e-09
-1.35396e-09
1.68358e-09
-1.36508e-09
2.05982e-09
-1.37777e-09
2.44019e-09
-1.39154e-09
2.82485e-09
-1.40586e-09
3.21382e-09
-1.42018e-09
3.60695e-09
-1.43391e-09
4.00394e-09
-1.44648e-09
4.40433e-09
-1.4573e-09
4.80748e-09
-1.4658e-09
5.21263e-09
-1.47144e-09
5.61884e-09
-1.47373e-09
6.02508e-09
-1.47218e-09
6.43019e-09
-1.46641e-09
6.83289e-09
-1.45608e-09
7.23186e-09
-1.4409e-09
7.62569e-09
-1.42068e-09
8.01297e-09
-1.39529e-09
8.39225e-09
-1.3647e-09
8.76208e-09
-1.32894e-09
9.12106e-09
-1.28812e-09
9.46783e-09
-1.24241e-09
9.80109e-09
-1.19206e-09
1.01196e-08
-1.13738e-09
1.04223e-08
-1.07873e-09
1.07082e-08
-1.01649e-09
1.09763e-08
-9.51098e-10
1.12259e-08
-8.8301e-10
1.14563e-08
-8.12693e-10
1.16671e-08
-7.40621e-10
1.18579e-08
-6.67265e-10
1.20283e-08
-5.93088e-10
1.21783e-08
-5.18535e-10
1.23079e-08
-4.44026e-10
1.24171e-08
-3.69954e-10
1.25061e-08
-2.96685e-10
1.25752e-08
-2.2455e-10
1.26248e-08
-1.53844e-10
1.26553e-08
-8.48289e-11
1.26672e-08
-1.77213e-11
1.26611e-08
4.73114e-11
1.26376e-08
1.10026e-10
1.25973e-08
1.70418e-10
1.25408e-08
2.28392e-10
1.24687e-08
2.83886e-10
1.23818e-08
3.36873e-10
1.22807e-08
3.87347e-10
1.2166e-08
4.35325e-10
1.20385e-08
4.80842e-10
1.18987e-08
5.23949e-10
1.17473e-08
5.64712e-10
1.15849e-08
6.03206e-10
1.14121e-08
6.39515e-10
1.12294e-08
6.73729e-10
1.10375e-08
7.05942e-10
1.08368e-08
7.36253e-10
1.06279e-08
7.64761e-10
1.04112e-08
7.91564e-10
1.01871e-08
8.16762e-10
9.95618e-09
8.40451e-10
9.71873e-09
8.62721e-10
9.47516e-09
8.83662e-10
9.22582e-09
9.03359e-10
8.97104e-09
9.21889e-10
8.71115e-09
9.39326e-10
8.44644e-09
9.55743e-10
8.17718e-09
9.71206e-10
7.90363e-09
9.85773e-10
7.62606e-09
9.99501e-10
7.34467e-09
1.01244e-09
7.05971e-09
1.02464e-09
6.77137e-09
1.03614e-09
6.47986e-09
1.04697e-09
6.18535e-09
1.05718e-09
5.88804e-09
1.06678e-09
5.58809e-09
1.0758e-09
5.28567e-09
1.08427e-09
4.98093e-09
1.09219e-09
4.67404e-09
1.0996e-09
4.36514e-09
1.10649e-09
4.05439e-09
1.11288e-09
3.74192e-09
1.11876e-09
3.42788e-09
1.12415e-09
3.11241e-09
1.12904e-09
2.79562e-09
1.13345e-09
2.47761e-09
1.13745e-09
2.15839e-09
1.14125e-09
1.83779e-09
1.14537e-09
1.51524e-09
1.15091e-09
1.1897e-09
1.15925e-09
8.60245e-10
1.1696e-09
5.29422e-10
1.16939e-09
2.15752e-10
1.10262e-09
7.55489e-10
-2.67447e-10
1.20638e-09
-6.53482e-10
1.75206e-09
-1.0599e-09
1.8542e-09
-1.4658e-09
1.85884e-09
-1.86872e-09
1.84987e-09
-2.26988e-09
1.84461e-09
-2.67053e-09
1.84397e-09
-3.07144e-09
1.8461e-09
-3.47299e-09
1.84956e-09
-3.87533e-09
1.8536e-09
-4.27856e-09
1.85789e-09
-4.68271e-09
1.86227e-09
-5.08778e-09
1.86661e-09
-5.49374e-09
1.87081e-09
-5.90055e-09
1.87476e-09
-6.30812e-09
1.87833e-09
-6.71634e-09
1.8814e-09
-7.12506e-09
1.88382e-09
-7.53412e-09
1.88546e-09
-7.9433e-09
1.88615e-09
-8.35235e-09
1.88574e-09
-8.761e-09
1.88405e-09
-9.16891e-09
1.88091e-09
-9.57574e-09
1.87613e-09
-9.98106e-09
1.86953e-09
-1.03844e-08
1.86092e-09
-1.07854e-08
1.85008e-09
-1.11834e-08
1.83683e-09
-1.15778e-08
1.82096e-09
-1.1968e-08
1.80225e-09
-1.23535e-08
1.7805e-09
-1.27333e-08
1.75551e-09
-1.31069e-08
1.72706e-09
-1.34733e-08
1.69496e-09
-1.38318e-08
1.65901e-09
-1.41814e-08
1.61901e-09
-1.45212e-08
1.57478e-09
-1.48503e-08
1.52616e-09
-1.51677e-08
1.47299e-09
-1.54724e-08
1.41514e-09
-1.57632e-08
1.35247e-09
-1.60392e-08
1.2849e-09
-1.62993e-08
1.21235e-09
-1.65423e-08
1.13477e-09
-1.67672e-08
1.05217e-09
-1.6973e-08
9.64552e-10
-1.71584e-08
8.71987e-10
-1.73225e-08
7.74576e-10
-1.74643e-08
6.72463e-10
-1.75828e-08
5.65844e-10
-1.7677e-08
4.54959e-10
-1.77462e-08
3.40102e-10
-1.77895e-08
2.21622e-10
-1.78063e-08
9.99208e-11
-1.7796e-08
-2.45698e-11
-1.7758e-08
-1.51515e-10
-1.76919e-08
-2.80244e-10
-1.75976e-08
-4.10204e-10
-1.74749e-08
-5.4076e-10
-1.73239e-08
-6.71245e-10
-1.71448e-08
-8.00964e-10
-1.69378e-08
-9.29201e-10
-1.67035e-08
-1.05523e-09
-1.64426e-08
-1.1783e-09
-1.61559e-08
-1.2977e-09
-1.58444e-08
-1.41269e-09
-1.55092e-08
-1.52257e-09
-1.51517e-08
-1.62669e-09
-1.47732e-08
-1.72441e-09
-1.43754e-08
-1.81517e-09
-1.39598e-08
-1.89845e-09
-1.35283e-08
-1.97381e-09
-1.30826e-08
-2.04091e-09
-1.26248e-08
-2.09946e-09
-1.21566e-08
-2.1493e-09
-1.16802e-08
-2.19034e-09
-1.11974e-08
-2.22261e-09
-1.07101e-08
-2.24623e-09
-1.02202e-08
-2.26141e-09
-9.72954e-09
-2.26849e-09
-9.23977e-09
-2.26788e-09
-8.75247e-09
-2.26008e-09
-8.2691e-09
-2.24567e-09
-7.79094e-09
-2.22531e-09
-7.31914e-09
-2.1997e-09
-6.85466e-09
-2.16962e-09
-6.39828e-09
-2.13584e-09
-5.95059e-09
-2.0992e-09
-5.51201e-09
-2.06052e-09
-5.08275e-09
-2.02061e-09
-4.66286e-09
-1.98029e-09
-4.25221e-09
-1.94034e-09
-3.85049e-09
-1.90148e-09
-3.45725e-09
-1.86441e-09
-3.07191e-09
-1.82974e-09
-2.69375e-09
-1.79803e-09
-2.32194e-09
-1.76975e-09
-1.95558e-09
-1.7453e-09
-1.59369e-09
-1.72498e-09
-1.23525e-09
-1.70899e-09
-8.79205e-10
-1.69747e-09
-5.2451e-10
-1.69041e-09
-1.70124e-10
-1.68776e-09
1.84966e-10
-1.68935e-09
5.41615e-10
-1.69486e-09
9.00758e-10
-1.70401e-09
1.26313e-09
-1.71633e-09
1.62936e-09
-1.7313e-09
1.99996e-09
-1.74836e-09
2.37529e-09
-1.76687e-09
2.75557e-09
-1.78613e-09
3.14082e-09
-1.80543e-09
3.53092e-09
-1.82401e-09
3.92557e-09
-1.84112e-09
4.32429e-09
-1.85601e-09
4.72641e-09
-1.86792e-09
5.13115e-09
-1.87617e-09
5.53753e-09
-1.8801e-09
5.94445e-09
-1.8791e-09
6.35069e-09
-1.87264e-09
6.75491e-09
-1.8603e-09
7.15571e-09
-1.84169e-09
7.55162e-09
-1.81658e-09
7.94113e-09
-1.7848e-09
8.32272e-09
-1.74628e-09
8.69488e-09
-1.70109e-09
9.05612e-09
-1.64935e-09
9.40502e-09
-1.5913e-09
9.74023e-09
-1.52726e-09
1.00605e-08
-1.45763e-09
1.03646e-08
-1.38286e-09
1.06516e-08
-1.30347e-09
1.09205e-08
-1.22001e-09
1.11706e-08
-1.13308e-09
1.14012e-08
-1.04326e-09
1.16117e-08
-9.51192e-10
1.18019e-08
-8.57465e-10
1.19715e-08
-7.62677e-10
1.21204e-08
-6.67399e-10
1.22485e-08
-5.72175e-10
1.23561e-08
-4.77511e-10
1.24433e-08
-3.83874e-10
1.25104e-08
-2.91687e-10
1.25579e-08
-2.01328e-10
1.25862e-08
-1.13129e-10
1.25958e-08
-2.7361e-11
1.25874e-08
5.57663e-11
1.25615e-08
1.35899e-10
1.25188e-08
2.13086e-10
1.24601e-08
2.87179e-10
1.23858e-08
3.58113e-10
1.22969e-08
4.25848e-10
1.21938e-08
4.90382e-10
1.20774e-08
5.51737e-10
1.19483e-08
6.09954e-10
1.18072e-08
6.65101e-10
1.16546e-08
7.1726e-10
1.14913e-08
7.66525e-10
1.13178e-08
8.13005e-10
1.11347e-08
8.56816e-10
1.09426e-08
8.98077e-10
1.07419e-08
9.36913e-10
1.05332e-08
9.73451e-10
1.0317e-08
1.00782e-09
1.00936e-08
1.04013e-09
9.86357e-09
1.07051e-09
9.62721e-09
1.09909e-09
9.38492e-09
1.12596e-09
9.13705e-09
1.15123e-09
8.88393e-09
1.17502e-09
8.62585e-09
1.19741e-09
8.36312e-09
1.21848e-09
8.09599e-09
1.23834e-09
7.82473e-09
1.25704e-09
7.54956e-09
1.27467e-09
7.27072e-09
1.29129e-09
6.98841e-09
1.30696e-09
6.70284e-09
1.32172e-09
6.4142e-09
1.33563e-09
6.12266e-09
1.34873e-09
5.8284e-09
1.36105e-09
5.53158e-09
1.37263e-09
5.23236e-09
1.38349e-09
4.93089e-09
1.39366e-09
4.62733e-09
1.40317e-09
4.32181e-09
1.41201e-09
4.01449e-09
1.42021e-09
3.70548e-09
1.42777e-09
3.39494e-09
1.4347e-09
3.08298e-09
1.441e-09
2.76972e-09
1.44671e-09
2.45524e-09
1.45193e-09
2.13955e-09
1.45693e-09
1.82245e-09
1.46247e-09
1.50337e-09
1.46999e-09
1.18122e-09
1.4814e-09
8.54973e-10
1.49585e-09
5.26957e-10
1.4974e-09
2.15302e-10
1.41428e-09
9.7079e-10
-2.65771e-10
1.47215e-09
-6.4883e-10
2.13512e-09
-1.0518e-09
2.25717e-09
-1.4541e-09
2.26115e-09
-1.85343e-09
2.24921e-09
-2.25107e-09
2.24224e-09
-2.64828e-09
2.24119e-09
-3.04582e-09
2.24365e-09
-3.44408e-09
2.24781e-09
-3.84322e-09
2.25274e-09
-4.24335e-09
2.25803e-09
-4.64452e-09
2.26344e-09
-5.04673e-09
2.26883e-09
-5.44998e-09
2.27407e-09
-5.85422e-09
2.27901e-09
-6.25939e-09
2.28351e-09
-6.6654e-09
2.28741e-09
-7.0721e-09
2.29053e-09
-7.47933e-09
2.2927e-09
-7.88691e-09
2.29373e-09
-8.29459e-09
2.29342e-09
-8.7021e-09
2.29156e-09
-9.10913e-09
2.28794e-09
-9.51533e-09
2.28233e-09
-9.9203e-09
2.27451e-09
-1.03236e-08
2.26423e-09
-1.07248e-08
2.25125e-09
-1.11233e-08
2.23532e-09
-1.15185e-08
2.2162e-09
-1.19099e-08
2.19363e-09
-1.22967e-08
2.16735e-09
-1.26783e-08
2.13712e-09
-1.30539e-08
2.10267e-09
-1.34227e-08
2.06377e-09
-1.37839e-08
2.02016e-09
-1.41365e-08
1.97162e-09
-1.44796e-08
1.91792e-09
-1.48123e-08
1.85885e-09
-1.51335e-08
1.79423e-09
-1.54423e-08
1.72388e-09
-1.57374e-08
1.64765e-09
-1.60179e-08
1.56542e-09
-1.62827e-08
1.47711e-09
-1.65306e-08
1.38265e-09
-1.67604e-08
1.28203e-09
-1.69711e-08
1.17527e-09
-1.71616e-08
1.06245e-09
-1.73307e-08
9.43688e-10
-1.74774e-08
8.19161e-10
-1.76006e-08
6.891e-10
-1.76995e-08
5.53798e-10
-1.7773e-08
4.13612e-10
-1.78203e-08
2.6896e-10
-1.78407e-08
1.20329e-10
-1.78335e-08
-3.17574e-11
-1.77982e-08
-1.86837e-10
-1.77343e-08
-3.44106e-10
-1.76417e-08
-5.02887e-10
-1.752e-08
-6.62409e-10
-1.73694e-08
-8.21857e-10
-1.719e-08
-9.80378e-10
-1.69821e-08
-1.13709e-09
-1.67462e-08
-1.29109e-09
-1.6483e-08
-1.44148e-09
-1.61934e-08
-1.58735e-09
-1.58783e-08
-1.7278e-09
-1.55389e-08
-1.86197e-09
-1.51765e-08
-1.98904e-09
-1.47927e-08
-2.10824e-09
-1.4389e-08
-2.21885e-09
-1.39672e-08
-2.32025e-09
-1.35291e-08
-2.41189e-09
-1.30767e-08
-2.49333e-09
-1.2612e-08
-2.56423e-09
-1.21369e-08
-2.62438e-09
-1.16535e-08
-2.67369e-09
-1.1164e-08
-2.71216e-09
-1.06702e-08
-2.73997e-09
-1.01743e-08
-2.75738e-09
-9.67796e-09
-2.76479e-09
-9.1831e-09
-2.76273e-09
-8.69135e-09
-2.75182e-09
-8.20423e-09
-2.73279e-09
-7.7231e-09
-2.70644e-09
-7.24913e-09
-2.67366e-09
-6.78334e-09
-2.63541e-09
-6.32652e-09
-2.59266e-09
-5.87928e-09
-2.54644e-09
-5.44203e-09
-2.49777e-09
-5.01496e-09
-2.44768e-09
-4.59809e-09
-2.39716e-09
-4.19125e-09
-2.34718e-09
-3.79407e-09
-2.29865e-09
-3.40605e-09
-2.25243e-09
-3.02651e-09
-2.20927e-09
-2.65466e-09
-2.16988e-09
-2.28959e-09
-2.13482e-09
-1.93029e-09
-2.1046e-09
-1.57569e-09
-2.07958e-09
-1.22466e-09
-2.06002e-09
-8.76051e-10
-2.04607e-09
-5.28712e-10
-2.03775e-09
-1.81506e-10
-2.03497e-09
1.66652e-10
-2.0375e-09
5.16836e-10
-2.04504e-09
8.6995e-10
-2.05712e-09
1.22683e-09
-2.0732e-09
1.58819e-09
-2.09266e-09
1.95461e-09
-2.11477e-09
2.3265e-09
-2.13875e-09
2.7041e-09
-2.16373e-09
3.08749e-09
-2.18881e-09
3.47653e-09
-2.21306e-09
3.87094e-09
-2.23552e-09
4.2702e-09
-2.25526e-09
4.67364e-09
-2.27136e-09
5.0804e-09
-2.28293e-09
5.48946e-09
-2.28915e-09
5.89963e-09
-2.28927e-09
6.30962e-09
-2.28263e-09
6.71801e-09
-2.26868e-09
7.12329e-09
-2.24697e-09
7.52387e-09
-2.21717e-09
7.91817e-09
-2.17909e-09
8.30454e-09
-2.13266e-09
8.68139e-09
-2.07793e-09
9.04714e-09
-2.01509e-09
9.40028e-09
-1.94443e-09
9.73937e-09
-1.86636e-09
1.00631e-08
-1.78136e-09
1.03703e-08
-1.69001e-09
1.06597e-08
-1.59296e-09
1.09306e-08
-1.4909e-09
1.11821e-08
-1.38457e-09
1.14136e-08
-1.27471e-09
1.16245e-08
-1.16209e-09
1.18145e-08
-1.04745e-09
1.19833e-08
-9.31548e-10
1.2131e-08
-8.15074e-10
1.22575e-08
-6.98701e-10
1.23631e-08
-5.83052e-10
1.24479e-08
-4.68701e-10
1.25124e-08
-3.56168e-10
1.2557e-08
-2.4591e-10
1.25822e-08
-1.38329e-10
1.25886e-08
-3.37507e-11
1.25767e-08
6.76027e-11
1.25474e-08
1.65218e-10
1.25013e-08
2.59219e-10
1.2439e-08
3.49425e-10
1.23614e-08
4.35749e-10
1.22691e-08
5.18146e-10
1.21629e-08
5.96617e-10
1.20434e-08
6.71194e-10
1.19114e-08
7.41936e-10
1.17676e-08
8.08928e-10
1.16126e-08
8.72275e-10
1.1447e-08
9.32096e-10
1.12715e-08
9.88524e-10
1.10866e-08
1.0417e-09
1.08929e-08
1.09178e-09
1.06909e-08
1.13891e-09
1.04811e-08
1.18324e-09
1.0264e-08
1.22493e-09
1.004e-08
1.26414e-09
9.80954e-09
1.301e-09
9.57297e-09
1.33566e-09
9.33068e-09
1.36826e-09
9.083e-09
1.39892e-09
8.83025e-09
1.42777e-09
8.57273e-09
1.45493e-09
8.31072e-09
1.4805e-09
8.04447e-09
1.50459e-09
7.77424e-09
1.52729e-09
7.50024e-09
1.54868e-09
7.2227e-09
1.56884e-09