/*--------------------------------*- C++ -*----------------------------------*\
| =========                 |                                                 |
| \\      /  F ield         | OpenFOAM: The Open Source CFD Toolbox           |
|  \\    /   O peration     | Version:  2412                                  |
|   \\  /    A nd           | Website:  www.openfoam.com                      |
|    \\/     M anipulation  |                                                 |
\*---------------------------------------------------------------------------*/
FoamFile
{
    version     2.0;
    format      ascii;
    arch        "LSB;label=32;scalar=64";
    class       volVectorField;
    location    "1.9";
    object      U;
}
// * * * * * * * * * * * * * * * * * * * * * * * * * * * * * * * * * * * * * //

dimensions      [0 1 -1 0 0 0 0];

internalField   nonuniform List<vector> 
40000
(
(-6.7095e-05 5.85101e-05 0)
(-0.000278688 7.86341e-05 0)
(-0.00052199 8.41565e-05 0)
(-0.000773959 8.54769e-05 0)
(-0.00102661 8.59998e-05 0)
(-0.0012794 8.63793e-05 0)
(-0.00153269 8.67452e-05 0)
(-0.00178669 8.7119e-05 0)
(-0.00204151 8.75058e-05 0)
(-0.0022972 8.79095e-05 0)
(-0.00255379 8.83331e-05 0)
(-0.0028113 8.87769e-05 0)
(-0.00306976 8.92395e-05 0)
(-0.00332918 8.97173e-05 0)
(-0.00358956 9.02061e-05 0)
(-0.00385088 9.07006e-05 0)
(-0.00411311 9.1195e-05 0)
(-0.00437621 9.16828e-05 0)
(-0.00464011 9.2157e-05 0)
(-0.00490472 9.26104e-05 0)
(-0.00516994 9.30349e-05 0)
(-0.00543563 9.34222e-05 0)
(-0.00570164 9.37635e-05 0)
(-0.00596779 9.40497e-05 0)
(-0.00623386 9.42708e-05 0)
(-0.00649963 9.44168e-05 0)
(-0.00676483 9.44767e-05 0)
(-0.00702917 9.44394e-05 0)
(-0.00729233 9.42933e-05 0)
(-0.00755395 9.40262e-05 0)
(-0.00781365 9.36258e-05 0)
(-0.00807101 9.30793e-05 0)
(-0.00832557 9.23735e-05 0)
(-0.00857685 9.1495e-05 0)
(-0.00882433 9.043e-05 0)
(-0.00906747 8.91647e-05 0)
(-0.00930566 8.76852e-05 0)
(-0.00953831 8.59775e-05 0)
(-0.00976476 8.40281e-05 0)
(-0.00998433 8.18237e-05 0)
(-0.0101963 7.93514e-05 0)
(-0.0104 7.65992e-05 0)
(-0.0105946 7.35558e-05 0)
(-0.0107794 7.02109e-05 0)
(-0.0109535 6.65556e-05 0)
(-0.0111162 6.25823e-05 0)
(-0.0112667 5.82848e-05 0)
(-0.0114042 5.36588e-05 0)
(-0.0115277 4.87008e-05 0)
(-0.0116367 4.3408e-05 0)
(-0.0117302 3.7775e-05 0)
(-0.0118076 3.17913e-05 0)
(-0.011868 2.54485e-05 0)
(-0.0119107 1.87489e-05 0)
(-0.0119348 1.16623e-05 0)
(-0.0119392 4.20475e-06 0)
(-0.0119234 -3.41059e-06 0)
(-0.0118881 -1.09236e-05 0)
(-0.011833 -1.84602e-05 0)
(-0.0117578 -2.6041e-05 0)
(-0.0116628 -3.36452e-05 0)
(-0.0115478 -4.12356e-05 0)
(-0.0114132 -4.87679e-05 0)
(-0.0112591 -5.6194e-05 0)
(-0.0110861 -6.34643e-05 0)
(-0.0108946 -7.05283e-05 0)
(-0.0106854 -7.73359e-05 0)
(-0.0104591 -8.38377e-05 0)
(-0.0102168 -8.99868e-05 0)
(-0.0099593 -9.5739e-05 0)
(-0.00968779 -0.000101054 0)
(-0.00940343 -0.000105895 0)
(-0.00910747 -0.000110231 0)
(-0.0088012 -0.000114037 0)
(-0.008486 -0.000117293 0)
(-0.00816324 -0.000119988 0)
(-0.00783431 -0.000122116 0)
(-0.00750062 -0.000123679 0)
(-0.00716353 -0.000124686 0)
(-0.00682437 -0.000125154 0)
(-0.00648444 -0.000125107 0)
(-0.00614493 -0.000124574 0)
(-0.00580699 -0.000123593 0)
(-0.00547164 -0.000122204 0)
(-0.00513981 -0.000120453 0)
(-0.0048123 -0.000118392 0)
(-0.00448981 -0.000116072 0)
(-0.00417288 -0.00011355 0)
(-0.00386194 -0.00011088 0)
(-0.00355727 -0.00010812 0)
(-0.00325904 -0.000105325 0)
(-0.00296726 -0.000102548 0)
(-0.00268185 -9.98421e-05 0)
(-0.00240259 -9.72535e-05 0)
(-0.00212917 -9.48264e-05 0)
(-0.00186117 -9.26e-05 0)
(-0.00159808 -9.06079e-05 0)
(-0.00133936 -8.8878e-05 0)
(-0.00108435 -8.74323e-05 0)
(-0.000832394 -8.62864e-05 0)
(-0.000582795 -8.54488e-05 0)
(-0.000334842 -8.49206e-05 0)
(-8.78381e-05 -8.46942e-05 0)
(0.000158898 -8.47502e-05 0)
(0.000406031 -8.50725e-05 0)
(0.000654175 -8.56362e-05 0)
(0.000903872 -8.64177e-05 0)
(0.00115558 -8.73849e-05 0)
(0.00140967 -8.85003e-05 0)
(0.00166642 -8.97216e-05 0)
(0.001926 -9.10017e-05 0)
(0.00218847 -9.22911e-05 0)
(0.00245377 -9.35401e-05 0)
(0.00272172 -9.4698e-05 0)
(0.00299202 -9.5713e-05 0)
(0.00326426 -9.65364e-05 0)
(0.00353791 -9.71229e-05 0)
(0.00381231 -9.74284e-05 0)
(0.00408675 -9.74137e-05 0)
(0.0043604 -9.70475e-05 0)
(0.00463236 -9.63037e-05 0)
(0.00490166 -9.5159e-05 0)
(0.00516731 -9.35997e-05 0)
(0.00542828 -9.16205e-05 0)
(0.00568353 -8.92216e-05 0)
(0.005932 -8.64106e-05 0)
(0.00617269 -8.32014e-05 0)
(0.0064046 -7.96133e-05 0)
(0.00662681 -7.56723e-05 0)
(0.00683844 -7.14102e-05 0)
(0.00703869 -6.68621e-05 0)
(0.00722685 -6.20652e-05 0)
(0.0074023 -5.70598e-05 0)
(0.0075645 -5.18879e-05 0)
(0.00771303 -4.65911e-05 0)
(0.00784755 -4.12112e-05 0)
(0.00796783 -3.57894e-05 0)
(0.00807374 -3.03651e-05 0)
(0.00816524 -2.49743e-05 0)
(0.00824237 -1.96496e-05 0)
(0.00830525 -1.44212e-05 0)
(0.0083541 -9.31366e-06 0)
(0.00838917 -4.34202e-06 0)
(0.00841076 4.95641e-07 0)
(0.00841933 5.23797e-06 0)
(0.00841497 9.75909e-06 0)
(0.00839795 1.4038e-05 0)
(0.00836905 1.80695e-05 0)
(0.00832893 2.18683e-05 0)
(0.00827816 2.54221e-05 0)
(0.00821732 2.87276e-05 0)
(0.00814697 3.17931e-05 0)
(0.00806765 3.46313e-05 0)
(0.0079799 3.72557e-05 0)
(0.00788423 3.96796e-05 0)
(0.00778115 4.1916e-05 0)
(0.00767113 4.39767e-05 0)
(0.00755463 4.58725e-05 0)
(0.00743207 4.76149e-05 0)
(0.00730386 4.92153e-05 0)
(0.00717038 5.06846e-05 0)
(0.007032 5.20341e-05 0)
(0.00688905 5.32747e-05 0)
(0.00674184 5.4416e-05 0)
(0.00659065 5.54674e-05 0)
(0.00643577 5.64381e-05 0)
(0.00627743 5.7336e-05 0)
(0.00611586 5.8169e-05 0)
(0.00595127 5.89451e-05 0)
(0.00578385 5.96708e-05 0)
(0.00561379 6.03513e-05 0)
(0.00544124 6.09921e-05 0)
(0.00526634 6.15978e-05 0)
(0.00508924 6.21717e-05 0)
(0.00491005 6.27169e-05 0)
(0.0047289 6.32367e-05 0)
(0.00454588 6.37336e-05 0)
(0.00436111 6.42096e-05 0)
(0.00417468 6.46665e-05 0)
(0.00398667 6.51053e-05 0)
(0.00379717 6.55264e-05 0)
(0.00360625 6.59302e-05 0)
(0.00341401 6.63174e-05 0)
(0.0032205 6.66877e-05 0)
(0.00302582 6.70405e-05 0)
(0.00283002 6.73757e-05 0)
(0.0026332 6.76928e-05 0)
(0.00243541 6.79905e-05 0)
(0.00223674 6.82669e-05 0)
(0.00203727 6.85198e-05 0)
(0.00183707 6.87461e-05 0)
(0.00163624 6.89415e-05 0)
(0.00143486 6.91014e-05 0)
(0.00123302 6.92238e-05 0)
(0.00103073 6.93139e-05 0)
(0.000827839 6.93738e-05 0)
(0.000624071 6.93135e-05 0)
(0.000419792 6.85901e-05 0)
(0.000220518 6.49164e-05 0)
(5.11847e-05 5.0417e-05 0)
(-8.68422e-05 0.000271733 0)
(-0.000418729 0.00040128 0)
(-0.000792738 0.000430326 0)
(-0.00117576 0.000435036 0)
(-0.0015571 0.000435314 0)
(-0.00193704 0.000435575 0)
(-0.00231673 0.000436347 0)
(-0.00269683 0.000437441 0)
(-0.00307764 0.000438687 0)
(-0.00345928 0.000440006 0)
(-0.0038418 0.000441369 0)
(-0.0042252 0.000442761 0)
(-0.00460948 0.000444166 0)
(-0.00499462 0.000445567 0)
(-0.00538057 0.000446939 0)
(-0.00576726 0.000448257 0)
(-0.0061546 0.000449493 0)
(-0.00654247 0.000450615 0)
(-0.00693072 0.000451588 0)
(-0.00731918 0.000452378 0)
(-0.00770764 0.000452947 0)
(-0.00809584 0.000453253 0)
(-0.00848351 0.000453256 0)
(-0.00887035 0.000452913 0)
(-0.00925598 0.000452176 0)
(-0.00964002 0.000451 0)
(-0.010022 0.000449334 0)
(-0.0104016 0.00044713 0)
(-0.0107781 0.000444335 0)
(-0.011151 0.000440897 0)
(-0.0115198 0.000436762 0)
(-0.0118837 0.000431877 0)
(-0.0122421 0.000426188 0)
(-0.0125943 0.000419638 0)
(-0.0129395 0.000412175 0)
(-0.0132768 0.000403746 0)
(-0.0136055 0.000394297 0)
(-0.0139246 0.00038378 0)
(-0.0142333 0.000372146 0)
(-0.0145305 0.000359352 0)
(-0.0148154 0.000345356 0)
(-0.0150868 0.000330125 0)
(-0.0153438 0.000313625 0)
(-0.0155854 0.000295835 0)
(-0.0158105 0.000276737 0)
(-0.016018 0.000256322 0)
(-0.0162071 0.000234589 0)
(-0.0163766 0.000211547 0)
(-0.0165257 0.000187213 0)
(-0.0166532 0.000161611 0)
(-0.0167585 0.00013477 0)
(-0.0168405 0.000106719 0)
(-0.0168986 7.74789e-05 0)
(-0.0169321 4.70844e-05 0)
(-0.0169406 1.56375e-05 0)
(-0.0169237 -1.65831e-05 0)
(-0.0168817 -4.92171e-05 0)
(-0.0168132 -8.2038e-05 0)
(-0.0167182 -0.000115038 0)
(-0.0165965 -0.000148104 0)
(-0.0164483 -0.000181086 0)
(-0.0162737 -0.000213809 0)
(-0.0160731 -0.00024609 0)
(-0.0158471 -0.000277736 0)
(-0.0155964 -0.000308553 0)
(-0.0153216 -0.00033835 0)
(-0.0150238 -0.000366938 0)
(-0.0147041 -0.000394134 0)
(-0.0143637 -0.000419768 0)
(-0.0140039 -0.000443682 0)
(-0.0136261 -0.000465733 0)
(-0.013232 -0.000485796 0)
(-0.0128231 -0.000503769 0)
(-0.0124012 -0.00051957 0)
(-0.0119678 -0.000533142 0)
(-0.0115249 -0.000544454 0)
(-0.011074 -0.000553502 0)
(-0.0106171 -0.000560308 0)
(-0.0101557 -0.000564921 0)
(-0.00969161 -0.000567416 0)
(-0.00922631 -0.000567896 0)
(-0.00876132 -0.000566482 0)
(-0.00829801 -0.000563322 0)
(-0.00783767 -0.00055858 0)
(-0.00738141 -0.000552436 0)
(-0.00693023 -0.000545085 0)
(-0.00648495 -0.00053673 0)
(-0.00604626 -0.000527583 0)
(-0.00561466 -0.000517858 0)
(-0.00519051 -0.000507767 0)
(-0.004774 -0.000497521 0)
(-0.00436518 -0.000487322 0)
(-0.00396392 -0.000477362 0)
(-0.00356998 -0.000467821 0)
(-0.00318298 -0.000458863 0)
(-0.00280243 -0.000450633 0)
(-0.00242773 -0.000443256 0)
(-0.0020582 -0.000436837 0)
(-0.00169308 -0.000431456 0)
(-0.00133158 -0.00042717 0)
(-0.000972862 -0.000424009 0)
(-0.000616079 -0.000421978 0)
(-0.000260391 -0.000421054 0)
(9.5008e-05 -0.000421184 0)
(0.000450913 -0.000422297 0)
(0.000808017 -0.000424303 0)
(0.00116697 -0.000427096 0)
(0.00152831 -0.000430549 0)
(0.00189248 -0.000434517 0)
(0.0022598 -0.000438835 0)
(0.00263046 -0.000443328 0)
(0.0030045 -0.00044781 0)
(0.00338185 -0.000452089 0)
(0.00376225 -0.000455973 0)
(0.00414534 -0.000459266 0)
(0.00453057 -0.000461781 0)
(0.00491728 -0.000463343 0)
(0.00530468 -0.000463785 0)
(0.00569183 -0.000462955 0)
(0.00607771 -0.000460724 0)
(0.00646119 -0.000456984 0)
(0.00684108 -0.000451648 0)
(0.00721609 -0.000444653 0)
(0.00758495 -0.000435967 0)
(0.00794631 -0.000425582 0)
(0.00829885 -0.000413514 0)
(0.00864126 -0.000399807 0)
(0.00897228 -0.000384525 0)
(0.00929067 -0.000367758 0)
(0.00959529 -0.000349614 0)
(0.00988506 -0.000330218 0)
(0.010159 -0.000309705 0)
(0.0104163 -0.000288224 0)
(0.0106562 -0.00026593 0)
(0.0108779 -0.000242984 0)
(0.0110811 -0.000219545 0)
(0.0112653 -0.00019577 0)
(0.0114302 -0.000171817 0)
(0.0115756 -0.000147831 0)
(0.0117016 -0.000123952 0)
(0.0118081 -0.000100305 0)
(0.0118954 -7.70056e-05 0)
(0.0119636 -5.41485e-05 0)
(0.0120132 -3.18053e-05 0)
(0.0120444 -1.00107e-05 0)
(0.012058 1.1129e-05 0)
(0.0120546 3.15293e-05 0)
(0.0120344 5.10844e-05 0)
(0.011998 6.97618e-05 0)
(0.011946 8.75358e-05 0)
(0.011879 0.000104397 0)
(0.0117977 0.000120351 0)
(0.0117027 0.000135417 0)
(0.0115947 0.000149618 0)
(0.0114744 0.000162983 0)
(0.0113423 0.000175543 0)
(0.0111992 0.00018733 0)
(0.0110455 0.000198379 0)
(0.010882 0.000208723 0)
(0.0107091 0.000218402 0)
(0.0105274 0.000227452 0)
(0.0103375 0.000235911 0)
(0.0101397 0.000243816 0)
(0.00993469 0.000251203 0)
(0.00972276 0.000258109 0)
(0.00950438 0.000264567 0)
(0.00927991 0.000270612 0)
(0.00904975 0.000276273 0)
(0.00881421 0.00028158 0)
(0.00857363 0.000286562 0)
(0.00832831 0.000291243 0)
(0.00807852 0.000295645 0)
(0.00782452 0.00029979 0)
(0.00756657 0.000303697 0)
(0.00730489 0.000307383 0)
(0.00703969 0.000310862 0)
(0.00677119 0.000314151 0)
(0.00649957 0.000317261 0)
(0.00622501 0.000320201 0)
(0.00594768 0.00032298 0)
(0.00566775 0.000325608 0)
(0.00538538 0.000328088 0)
(0.0051007 0.000330426 0)
(0.00481388 0.000332626 0)
(0.00452504 0.000334691 0)
(0.00423434 0.000336621 0)
(0.00394189 0.000338419 0)
(0.00364785 0.000340081 0)
(0.00335233 0.000341604 0)
(0.00305547 0.000342984 0)
(0.0027574 0.000344215 0)
(0.00245827 0.000345294 0)
(0.00215817 0.000346242 0)
(0.00185715 0.000347144 0)
(0.00155507 0.000348199 0)
(0.00125141 0.000349652 0)
(0.00094522 0.000351086 0)
(0.000636409 0.000348606 0)
(0.000333994 0.000325641 0)
(6.8557e-05 0.0002228 0)
(-9.1843e-05 0.000535234 0)
(-0.000453088 0.000781347 0)
(-0.000855332 0.000831261 0)
(-0.00126618 0.000836542 0)
(-0.00167407 0.000834706 0)
(-0.00207969 0.000833744 0)
(-0.00248455 0.000834326 0)
(-0.00288953 0.000835831 0)
(-0.00329505 0.000837763 0)
(-0.00370128 0.000839878 0)
(-0.00410829 0.000842071 0)
(-0.00451611 0.000844292 0)
(-0.00492472 0.0008465 0)
(-0.00533409 0.000848656 0)
(-0.00574416 0.000850713 0)
(-0.00615485 0.000852619 0)
(-0.00656603 0.000854318 0)
(-0.00697758 0.000855749 0)
(-0.00738933 0.000856849 0)
(-0.00780106 0.000857547 0)
(-0.00821254 0.000857772 0)
(-0.00862349 0.000857447 0)
(-0.00903361 0.000856493 0)
(-0.00944253 0.000854827 0)
(-0.00984988 0.000852364 0)
(-0.0102552 0.000849015 0)
(-0.010658 0.00084469 0)
(-0.0110579 0.000839294 0)
(-0.0114541 0.000832735 0)
(-0.0118462 0.000824915 0)
(-0.0122335 0.000815738 0)
(-0.0126152 0.000805107 0)
(-0.0129907 0.000792924 0)
(-0.0133592 0.000779094 0)
(-0.0137198 0.000763522 0)
(-0.0140718 0.000746116 0)
(-0.0144141 0.000726789 0)
(-0.0147458 0.000705457 0)
(-0.0150661 0.000682043 0)
(-0.0153739 0.000656478 0)
(-0.0156682 0.000628698 0)
(-0.015948 0.000598652 0)
(-0.0162121 0.000566299 0)
(-0.0164597 0.000531611 0)
(-0.0166895 0.000494575 0)
(-0.0169006 0.000455193 0)
(-0.0170919 0.000413485 0)
(-0.0172625 0.000369487 0)
(-0.0174113 0.000323257 0)
(-0.0175374 0.000274872 0)
(-0.0176399 0.00022443 0)
(-0.017718 0.000172049 0)
(-0.0177711 0.00011786 0)
(-0.0177985 6.20074e-05 0)
(-0.0177997 4.73275e-06 0)
(-0.0177746 -5.36356e-05 0)
(-0.0177223 -0.000112852 0)
(-0.0176425 -0.000172749 0)
(-0.0175351 -0.00023299 0)
(-0.0174 -0.000293274 0)
(-0.0172373 -0.000353286 0)
(-0.0170473 -0.000412699 0)
(-0.0168304 -0.00047118 0)
(-0.0165873 -0.000528386 0)
(-0.0163186 -0.000583978 0)
(-0.0160253 -0.000637618 0)
(-0.0157083 -0.000688978 0)
(-0.0153688 -0.000737746 0)
(-0.0150082 -0.000783628 0)
(-0.0146278 -0.000826353 0)
(-0.0142292 -0.00086568 0)
(-0.013814 -0.000901401 0)
(-0.0133838 -0.000933343 0)
(-0.0129404 -0.000961374 0)
(-0.0124857 -0.000985406 0)
(-0.0120214 -0.00100539 0)
(-0.0115493 -0.00102134 0)
(-0.0110713 -0.0010333 0)
(-0.0105891 -0.00104135 0)
(-0.0101044 -0.00104566 0)
(-0.00961891 -0.00104639 0)
(-0.00913407 -0.00104378 0)
(-0.00865134 -0.00103809 0)
(-0.008172 -0.00102961 0)
(-0.0076972 -0.00101867 0)
(-0.00722796 -0.0010056 0)
(-0.0067651 -0.000990779 0)
(-0.00630931 -0.000974572 0)
(-0.0058611 -0.000957357 0)
(-0.00542082 -0.000939512 0)
(-0.00498862 -0.000921406 0)
(-0.00456453 -0.000903396 0)
(-0.00414842 -0.00088582 0)
(-0.00373999 -0.000868993 0)
(-0.00333883 -0.000853202 0)
(-0.0029444 -0.000838703 0)
(-0.00255607 -0.000825715 0)
(-0.00217309 -0.000814421 0)
(-0.00179468 -0.00080496 0)
(-0.00141998 -0.000797432 0)
(-0.0010481 -0.000791891 0)
(-0.000678139 -0.000788345 0)
(-0.00030921 -0.00078676 0)
(5.95484e-05 -0.000787057 0)
(0.000428983 -0.000789122 0)
(0.000799824 -0.00079278 0)
(0.00117275 -0.00079784 0)
(0.00154835 -0.00080407 0)
(0.0019271 -0.000811204 0)
(0.00230934 -0.000818955 0)
(0.0026953 -0.000827009 0)
(0.00308504 -0.000835038 0)
(0.00347847 -0.000842702 0)
(0.00387538 -0.000849657 0)
(0.00427537 -0.000855565 0)
(0.00467791 -0.000860089 0)
(0.0050823 -0.000862913 0)
(0.00548772 -0.000863744 0)
(0.00589323 -0.000862313 0)
(0.00629775 -0.000858383 0)
(0.00670011 -0.000851756 0)
(0.00709907 -0.000842278 0)
(0.0074933 -0.000829832 0)
(0.00788144 -0.000814351 0)
(0.00826212 -0.000795814 0)
(0.00863394 -0.000774245 0)
(0.00899553 -0.00074971 0)
(0.00934555 -0.000722322 0)
(0.00968271 -0.000692227 0)
(0.0100058 -0.000659608 0)
(0.0103137 -0.00062468 0)
(0.0106054 -0.000587678 0)
(0.0108798 -0.00054886 0)
(0.0111364 -0.000508495 0)
(0.0113742 -0.000466863 0)
(0.0115929 -0.000424245 0)
(0.0117918 -0.000380922 0)
(0.0119708 -0.000337166 0)
(0.0121296 -0.000293242 0)
(0.012268 -0.000249398 0)
(0.0123863 -0.000205867 0)
(0.0124844 -0.00016286 0)
(0.0125626 -0.000120569 0)
(0.0126212 -7.91668e-05 0)
(0.0126606 -3.88167e-05 0)
(0.0126812 4.12883e-07 0)
(0.0126838 3.8401e-05 0)
(0.0126688 7.50137e-05 0)
(0.0126368 0.000110169 0)
(0.0125883 0.000143827 0)
(0.012524 0.000175966 0)
(0.0124445 0.000206577 0)
(0.0123504 0.000235665 0)
(0.0122425 0.000263248 0)
(0.0121212 0.000289355 0)
(0.0119874 0.000314021 0)
(0.0118416 0.000337292 0)
(0.0116845 0.000359218 0)
(0.0115166 0.000379852 0)
(0.0113385 0.000399251 0)
(0.0111509 0.000417478 0)
(0.0109541 0.000434592 0)
(0.0107489 0.000450654 0)
(0.0105356 0.000465728 0)
(0.0103147 0.000479873 0)
(0.0100866 0.000493147 0)
(0.00985184 0.000505608 0)
(0.00961072 0.00051731 0)
(0.00936362 0.000528304 0)
(0.00911089 0.000538638 0)
(0.00885287 0.000548357 0)
(0.00858986 0.000557503 0)
(0.00832215 0.000566113 0)
(0.00805001 0.000574224 0)
(0.00777369 0.00058187 0)
(0.00749345 0.000589079 0)
(0.00720949 0.000595878 0)
(0.00692205 0.000602292 0)
(0.00663133 0.00060834 0)
(0.00633751 0.000614041 0)
(0.0060408 0.00061941 0)
(0.00574135 0.000624463 0)
(0.00543934 0.000629209 0)
(0.00513494 0.000633659 0)
(0.0048283 0.00063782 0)
(0.00451958 0.000641696 0)
(0.00420894 0.000645291 0)
(0.00389651 0.000648604 0)
(0.00358245 0.000651633 0)
(0.00326689 0.000654376 0)
(0.00294999 0.000656832 0)
(0.00263186 0.000659019 0)
(0.00231261 0.000661021 0)
(0.00199221 0.000663087 0)
(0.00167042 0.00066574 0)
(0.00134652 0.000669644 0)
(0.00101923 0.000674199 0)
(0.0006881 0.000672086 0)
(0.000363086 0.000631311 0)
(7.34155e-05 0.000431739 0)
(-9.28333e-05 0.000804539 0)
(-0.000457548 0.00117172 0)
(-0.00086157 0.00124311 0)
(-0.00127363 0.00124848 0)
(-0.00168211 0.00124397 0)
(-0.00208797 0.00124138 0)
(-0.00249285 0.00124152 0)
(-0.00289773 0.00124329 0)
(-0.0033031 0.00124583 0)
(-0.00370917 0.0012487 0)
(-0.00411603 0.0012517 0)
(-0.00452371 0.00125474 0)
(-0.00493223 0.00125775 0)
(-0.00534155 0.00126066 0)
(-0.00575161 0.00126339 0)
(-0.00616236 0.00126588 0)
(-0.00657366 0.00126803 0)
(-0.00698539 0.00126976 0)
(-0.00739738 0.00127097 0)
(-0.00780943 0.00127155 0)
(-0.00822129 0.0012714 0)
(-0.00863269 0.00127039 0)
(-0.00904333 0.00126843 0)
(-0.00945285 0.00126538 0)
(-0.00986085 0.00126111 0)
(-0.0102669 0.0012555 0)
(-0.0106705 0.00124841 0)
(-0.0110712 0.0012397 0)
(-0.0114684 0.00122924 0)
(-0.0118615 0.00121689 0)
(-0.0122498 0.00120251 0)
(-0.0126326 0.00118594 0)
(-0.0130092 0.00116707 0)
(-0.0133789 0.00114574 0)
(-0.0137407 0.00112183 0)
(-0.0140939 0.00109519 0)
(-0.0144375 0.00106572 0)
(-0.0147706 0.00103329 0)
(-0.0150922 0.000997789 0)
(-0.0154013 0.00095913 0)
(-0.0156969 0.000917227 0)
(-0.015978 0.000872011 0)
(-0.0162435 0.000823432 0)
(-0.0164923 0.000771456 0)
(-0.0167234 0.000716074 0)
(-0.0169357 0.000657298 0)
(-0.0171281 0.000595166 0)
(-0.0172997 0.000529744 0)
(-0.0174494 0.000461126 0)
(-0.0175763 0.000389439 0)
(-0.0176795 0.000314844 0)
(-0.0177582 0.000237536 0)
(-0.0178115 0.00015775 0)
(-0.0178389 7.57526e-05 0)
(-0.0178398 -8.1664e-06 0)
(-0.0178136 -9.37095e-05 0)
(-0.0177599 -0.000180536 0)
(-0.0176784 -0.00026825 0)
(-0.0175689 -0.000356404 0)
(-0.0174314 -0.000444545 0)
(-0.0172661 -0.000532208 0)
(-0.0170732 -0.000618911 0)
(-0.0168531 -0.000704166 0)
(-0.0166066 -0.000787478 0)
(-0.0163342 -0.000868354 0)
(-0.0160369 -0.000946308 0)
(-0.0157158 -0.00102087 0)
(-0.015372 -0.00109159 0)
(-0.0150069 -0.00115805 0)
(-0.0146219 -0.00121985 0)
(-0.0142186 -0.00127667 0)
(-0.0137987 -0.0013282 0)
(-0.0133638 -0.0013742 0)
(-0.0129159 -0.00141448 0)
(-0.0124567 -0.00144893 0)
(-0.0119881 -0.00147748 0)
(-0.0115121 -0.00150015 0)
(-0.0110304 -0.00151702 0)
(-0.0105448 -0.00152822 0)
(-0.0100572 -0.00153398 0)
(-0.00956919 -0.00153456 0)
(-0.00908236 -0.0015303 0)
(-0.00859816 -0.00152158 0)
(-0.00811792 -0.00150883 0)
(-0.00764282 -0.00149253 0)
(-0.00717386 -0.00147317 0)
(-0.00671191 -0.00145129 0)
(-0.00625763 -0.00142743 0)
(-0.00581154 -0.00140215 0)
(-0.00537396 -0.00137598 0)
(-0.00494504 -0.00134946 0)
(-0.00452477 -0.00132312 0)
(-0.00411297 -0.00129745 0)
(-0.00370931 -0.00127289 0)
(-0.00331333 -0.00124988 0)
(-0.00292444 -0.00122877 0)
(-0.00254193 -0.0012099 0)
(-0.00216503 -0.00119351 0)
(-0.00179286 -0.00117981 0)
(-0.00142451 -0.00116896 0)
(-0.00105902 -0.00116101 0)
(-0.000695422 -0.001156 0)
(-0.000332765 -0.00115386 0)
(2.98687e-05 -0.00115449 0)
(0.000393404 -0.00115774 0)
(0.000758645 -0.00116332 0)
(0.0011263 -0.00117097 0)
(0.00149703 -0.00118035 0)
(0.00187134 -0.00119106 0)
(0.00224962 -0.0012027 0)
(0.00263212 -0.00121479 0)
(0.00301895 -0.00122686 0)
(0.00341002 -0.00123841 0)
(0.00380513 -0.00124895 0)
(0.00420388 -0.00125797 0)
(0.00460574 -0.00126499 0)
(0.00500999 -0.00126954 0)
(0.00541579 -0.00127119 0)
(0.00582216 -0.00126954 0)
(0.00622799 -0.00126426 0)
(0.00663207 -0.00125504 0)
(0.00703309 -0.00124165 0)
(0.00742969 -0.00122394 0)
(0.00782046 -0.00120178 0)
(0.00820395 -0.00117515 0)
(0.00857873 -0.00114407 0)
(0.00894336 -0.00110865 0)
(0.00929645 -0.00106903 0)
(0.00963668 -0.00102543 0)
(0.00996278 -0.000978109 0)
(0.0102736 -0.000927377 0)
(0.010568 -0.000873574 0)
(0.0108452 -0.000817071 0)
(0.0111042 -0.000758257 0)
(0.0113444 -0.000697537 0)
(0.0115651 -0.000635317 0)
(0.011766 -0.000572007 0)
(0.0119466 -0.000508003 0)
(0.0121069 -0.000443687 0)
(0.0122467 -0.000379423 0)
(0.0123661 -0.00031555 0)
(0.0124652 -0.00025238 0)
(0.0125443 -0.000190199 0)
(0.0126036 -0.000129262 0)
(0.0126436 -6.9796e-05 0)
(0.0126647 -1.19921e-05 0)
(0.0126675 4.39962e-05 0)
(0.0126526 9.80428e-05 0)
(0.0126206 0.00015005 0)
(0.0125721 0.000199949 0)
(0.0125078 0.000247697 0)
(0.0124282 0.000293272 0)
(0.0123341 0.000336668 0)
(0.0122261 0.000377903 0)
(0.0121049 0.000417008 0)
(0.0119711 0.000454029 0)
(0.0118254 0.000489023 0)
(0.0116683 0.000522056 0)
(0.0115006 0.000553202 0)
(0.0113228 0.00058254 0)
(0.0111354 0.000610151 0)
(0.010939 0.000636123 0)
(0.0107341 0.00066054 0)
(0.0105212 0.00068349 0)
(0.0103007 0.000705059 0)
(0.0100731 0.000725328 0)
(0.00983884 0.000744379 0)
(0.00959825 0.000762288 0)
(0.00935172 0.000779128 0)
(0.00909959 0.000794969 0)
(0.00884218 0.000809875 0)
(0.00857981 0.000823906 0)
(0.00831276 0.00083712 0)
(0.0080413 0.000849569 0)
(0.00776569 0.000861301 0)
(0.00748615 0.00087236 0)
(0.00720293 0.000882786 0)
(0.00691623 0.000892614 0)
(0.00662626 0.000901874 0)
(0.0063332 0.000910596 0)
(0.00603725 0.000918804 0)
(0.00573858 0.000926519 0)
(0.00543735 0.000933759 0)
(0.00513374 0.000940539 0)
(0.00482789 0.000946872 0)
(0.00451996 0.000952767 0)
(0.0042101 0.000958229 0)
(0.00389846 0.000963261 0)
(0.00358518 0.000967864 0)
(0.00327039 0.000972038 0)
(0.00295424 0.000975794 0)
(0.00263682 0.000979179 0)
(0.00231823 0.000982358 0)
(0.00199842 0.000985769 0)
(0.00167707 0.000990308 0)
(0.00135339 0.000997112 0)
(0.00102593 0.00100543 0)
(0.000694007 0.00100439 0)
(0.000367573 0.000945971 0)
(7.44651e-05 0.000647522 0)
(-9.25313e-05 0.0010729 0)
(-0.000455019 0.00155965 0)
(-0.000855565 0.00165178 0)
(-0.00126372 0.00165675 0)
(-0.00166805 0.00164929 0)
(-0.00206968 0.00164491 0)
(-0.00247033 0.00164453 0)
(-0.002871 0.00164653 0)
(-0.00327218 0.00164966 0)
(-0.00367411 0.00165329 0)
(-0.00407689 0.00165713 0)
(-0.00448059 0.00166103 0)
(-0.00488521 0.0016649 0)
(-0.00529074 0.00166863 0)
(-0.00569715 0.00167214 0)
(-0.00610436 0.0016753 0)
(-0.00651229 0.00167802 0)
(-0.0069208 0.00168016 0)
(-0.00732973 0.00168159 0)
(-0.0077389 0.00168219 0)
(-0.00814807 0.0016818 0)
(-0.00855699 0.00168027 0)
(-0.00896534 0.00167745 0)
(-0.00937279 0.00167318 0)
(-0.00977895 0.00166728 0)
(-0.0101834 0.00165959 0)
(-0.0105857 0.00164992 0)
(-0.0109852 0.0016381 0)
(-0.0113816 0.00162395 0)
(-0.011774 0.00160727 0)
(-0.012162 0.00158789 0)
(-0.0125448 0.00156562 0)
(-0.0129217 0.00154027 0)
(-0.0132918 0.00151167 0)
(-0.0136544 0.00147963 0)
(-0.0140086 0.001444 0)
(-0.0143536 0.0014046 0)
(-0.0146882 0.00136129 0)
(-0.0150117 0.00131393 0)
(-0.0153229 0.0012624 0)
(-0.0156208 0.00120658 0)
(-0.0159045 0.0011464 0)
(-0.0161727 0.00108178 0)
(-0.0164244 0.00101269 0)
(-0.0166586 0.000939116 0)
(-0.0168741 0.000861084 0)
(-0.0170699 0.000778645 0)
(-0.0172448 0.000691891 0)
(-0.0173979 0.000600951 0)
(-0.0175282 0.000505998 0)
(-0.0176347 0.000407248 0)
(-0.0177166 0.000304962 0)
(-0.0177729 0.000199449 0)
(-0.0178031 9.10628e-05 0)
(-0.0178063 -1.98197e-05 0)
(-0.0177822 -0.000132805 0)
(-0.0177302 -0.000247444 0)
(-0.01765 -0.000363193 0)
(-0.0175415 -0.00047948 0)
(-0.0174046 -0.00059571 0)
(-0.0172394 -0.000711265 0)
(-0.0170462 -0.000825509 0)
(-0.0168254 -0.000937794 0)
(-0.0165777 -0.00104747 0)
(-0.0163037 -0.00115388 0)
(-0.0160044 -0.00125638 0)
(-0.0156808 -0.00135437 0)
(-0.0153342 -0.00144723 0)
(-0.0149659 -0.00153443 0)
(-0.0145774 -0.00161545 0)
(-0.0141704 -0.00168984 0)
(-0.0137465 -0.00175721 0)
(-0.0133076 -0.00181725 0)
(-0.0128555 -0.00186971 0)
(-0.0123922 -0.00191444 0)
(-0.0119196 -0.00195137 0)
(-0.0114396 -0.00198051 0)
(-0.0109543 -0.00200197 0)
(-0.0104655 -0.00201595 0)
(-0.00997494 -0.00202273 0)
(-0.00948449 -0.00202268 0)
(-0.00899575 -0.00201624 0)
(-0.00851024 -0.00200392 0)
(-0.00802932 -0.0019863 0)
(-0.00755422 -0.00196401 0)
(-0.00708597 -0.00193772 0)
(-0.00662547 -0.00190814 0)
(-0.00617338 -0.00187598 0)
(-0.00573022 -0.00184198 0)
(-0.0052963 -0.00180686 0)
(-0.00487175 -0.00177134 0)
(-0.00445652 -0.00173611 0)
(-0.00405039 -0.00170182 0)
(-0.00365298 -0.00166907 0)
(-0.00326378 -0.00163842 0)
(-0.00288212 -0.00161036 0)
(-0.00250724 -0.00158531 0)
(-0.00213826 -0.00156362 0)
(-0.00177424 -0.00154555 0)
(-0.00141418 -0.0015313 0)
(-0.00105705 -0.00152097 0)
(-0.000701777 -0.00151457 0)
(-0.000347332 -0.00151205 0)
(7.26045e-06 -0.00151324 0)
(0.000363045 -0.00151792 0)
(0.000720913 -0.00152578 0)
(0.0010816 -0.00153641 0)
(0.00144584 -0.00154938 0)
(0.00181421 -0.00156417 0)
(0.00218715 -0.00158022 0)
(0.00256494 -0.00159691 0)
(0.00294771 -0.00161361 0)
(0.00333541 -0.00162966 0)
(0.00372783 -0.00164438 0)
(0.00412458 -0.00165712 0)
(0.00452508 -0.00166721 0)
(0.00492862 -0.00167405 0)
(0.00533431 -0.00167704 0)
(0.00574111 -0.00167567 0)
(0.00614785 -0.00166947 0)
(0.00655327 -0.00165804 0)
(0.00695598 -0.00164108 0)
(0.00735455 -0.00161835 0)
(0.00774748 -0.00158972 0)
(0.00813326 -0.00155514 0)
(0.00851036 -0.00151464 0)
(0.00887729 -0.00146835 0)
(0.00923259 -0.00141648 0)
(0.00957487 -0.0013593 0)
(0.00990281 -0.00129717 0)
(0.0102152 -0.0012305 0)
(0.010511 -0.00115973 0)
(0.0107891 -0.00108535 0)
(0.0110487 -0.0010079 0)
(0.0112892 -0.00092789 0)
(0.0115098 -0.000845876 0)
(0.0117103 -0.000762394 0)
(0.0118903 -0.000677969 0)
(0.0120496 -0.000593109 0)
(0.0121881 -0.000508293 0)
(0.012306 -0.000423973 0)
(0.0124033 -0.000340562 0)
(0.0124805 -0.000258437 0)
(0.0125377 -0.000177936 0)
(0.0125756 -9.93577e-05 0)
(0.0125945 -2.29609e-05 0)
(0.012595 5.10511e-05 0)
(0.0125777 0.00012252 0)
(0.0125434 0.000191323 0)
(0.0124925 0.00025737 0)
(0.0124259 0.000320601 0)
(0.0123442 0.000380983 0)
(0.0122481 0.000438512 0)
(0.0121383 0.000493207 0)
(0.0120154 0.000545107 0)
(0.0118802 0.000594272 0)
(0.0117332 0.000640772 0)
(0.0115752 0.000684693 0)
(0.0114067 0.000726131 0)
(0.0112283 0.000765187 0)
(0.0110406 0.00080197 0)
(0.0108441 0.000836589 0)
(0.0106393 0.000869157 0)
(0.0104267 0.000899786 0)
(0.0102068 0.000928586 0)
(0.00998002 0.000955665 0)
(0.00974673 0.000981129 0)
(0.00950733 0.00100508 0)
(0.00926218 0.0010276 0)
(0.00901161 0.0010488 0)
(0.00875594 0.00106875 0)
(0.00849547 0.00108753 0)
(0.00823048 0.00110522 0)
(0.00796123 0.00112189 0)
(0.00768796 0.0011376 0)
(0.0074109 0.00115241 0)
(0.00713028 0.00116637 0)
(0.00684629 0.00117953 0)
(0.00655914 0.00119192 0)
(0.006269 0.00120359 0)
(0.00597606 0.00121457 0)
(0.00568048 0.00122489 0)
(0.00538243 0.00123458 0)
(0.00508205 0.00124364 0)
(0.0047795 0.00125211 0)
(0.00447493 0.00125999 0)
(0.00416848 0.00126729 0)
(0.00386028 0.00127403 0)
(0.00355048 0.00128019 0)
(0.0032392 0.0012858 0)
(0.00292657 0.00129086 0)
(0.0026127 0.00129547 0)
(0.00229764 0.00129987 0)
(0.00198134 0.0013047 0)
(0.00166348 0.00131123 0)
(0.00134324 0.0013211 0)
(0.00101913 0.00133348 0)
(0.000690283 0.00133407 0)
(0.000366458 0.00125894 0)
(7.4529e-05 0.000863296 0)
(-9.20304e-05 0.00133944 0)
(-0.000452006 0.001944 0)
(-0.000849254 0.00205621 0)
(-0.00125384 0.00206055 0)
(-0.00165455 0.00205009 0)
(-0.00205262 0.00204397 0)
(-0.00244979 0.00204311 0)
(-0.00284705 0.00204539 0)
(-0.0032449 0.00204919 0)
(-0.00364358 0.00205366 0)
(-0.00404321 0.00205843 0)
(-0.00444386 0.00206331 0)
(-0.00484556 0.00206815 0)
(-0.0052483 0.00207285 0)
(-0.00565207 0.00207727 0)
(-0.0060568 0.00208127 0)
(-0.00646242 0.00208473 0)
(-0.0068688 0.00208747 0)
(-0.00727581 0.00208933 0)
(-0.00768327 0.00209015 0)
(-0.00809095 0.00208975 0)
(-0.00849861 0.00208794 0)
(-0.00890595 0.00208451 0)
(-0.00931264 0.00207927 0)
(-0.00971831 0.00207201 0)
(-0.0101225 0.00206251 0)
(-0.0105249 0.00205055 0)
(-0.0109248 0.00203591 0)
(-0.0113218 0.00201836 0)
(-0.0117152 0.00199766 0)
(-0.0121045 0.0019736 0)
(-0.0124889 0.00194593 0)
(-0.0128676 0.00191442 0)
(-0.01324 0.00187886 0)
(-0.0136051 0.00183903 0)
(-0.0139622 0.0017947 0)
(-0.0143102 0.00174569 0)
(-0.0146483 0.00169181 0)
(-0.0149755 0.00163287 0)
(-0.0152907 0.00156872 0)
(-0.0155928 0.00149924 0)
(-0.0158809 0.00142431 0)
(-0.0161537 0.00134386 0)
(-0.0164103 0.00125783 0)
(-0.0166493 0.00116621 0)
(-0.0168698 0.00106903 0)
(-0.0170706 0.000966345 0)
(-0.0172505 0.00085828 0)
(-0.0174086 0.000744992 0)
(-0.0175437 0.000626694 0)
(-0.0176549 0.000503655 0)
(-0.0177412 0.000376197 0)
(-0.0178018 0.000244701 0)
(-0.0178357 0.000109602 0)
(-0.0178424 -2.86272e-05 0)
(-0.0178212 -0.000169475 0)
(-0.0177716 -0.000312354 0)
(-0.0176934 -0.000456602 0)
(-0.0175862 -0.000601514 0)
(-0.01745 -0.00074635 0)
(-0.0172849 -0.000890335 0)
(-0.0170911 -0.00103267 0)
(-0.0168691 -0.00117255 0)
(-0.0166194 -0.00130915 0)
(-0.0163428 -0.00144165 0)
(-0.0160401 -0.00156925 0)
(-0.0157126 -0.00169117 0)
(-0.0153615 -0.00180666 0)
(-0.0149881 -0.00191503 0)
(-0.014594 -0.00201563 0)
(-0.014181 -0.00210791 0)
(-0.0137507 -0.00219137 0)
(-0.0133051 -0.00226562 0)