/*--------------------------------*- C++ -*----------------------------------*\
| =========                 |                                                 |
| \\      /  F ield         | OpenFOAM: The Open Source CFD Toolbox           |
|  \\    /   O peration     | Version:  2412                                  |
|   \\  /    A nd           | Website:  www.openfoam.com                      |
|    \\/     M anipulation  |                                                 |
\*---------------------------------------------------------------------------*/
FoamFile
{
    version     2.0;
    format      ascii;
    arch        "LSB;label=32;scalar=64";
    class       volScalarField;
    location    "1.08";
    object      alpha.water;
}
// * * * * * * * * * * * * * * * * * * * * * * * * * * * * * * * * * * * * * //

dimensions      [0 0 0 0 0 0 0];

internalField   nonuniform List<scalar> 
40000
(
4.4278e-199
3.41446e-190
2.19934e-189
2.83588e-189
2.98006e-189
2.85498e-189
2.60848e-189
2.30561e-189
1.9818e-189
1.66304e-189
1.36263e-189
1.08908e-189
8.48461e-190
6.43515e-190
4.74491e-190
3.39571e-190
2.35424e-190
1.57828e-190
1.02092e-190
6.35712e-191
3.80088e-191
2.176e-191
1.18928e-191
6.18481e-192
3.04944e-192
1.41983e-192
6.2154e-193
2.54567e-193
9.70327e-194
3.42231e-194
1.10998e-194
3.28861e-195
8.83689e-196
2.13683e-196
4.60867e-197
8.77539e-198
1.45865e-198
2.09236e-199
2.56034e-200
2.64052e-201
2.2649e-202
1.59415e-203
9.10053e-205
4.17628e-206
1.53206e-207
4.48813e-209
1.05428e-210
2.0047e-212
3.12807e-214
4.06958e-216
4.48276e-218
4.22765e-220
3.42044e-222
2.33496e-224
1.49162e-226
9.61982e-229
6.17148e-231
3.93801e-233
2.49924e-235
1.57758e-237
9.90541e-240
6.18759e-242
3.84628e-244
2.37988e-246
1.46618e-248
8.9959e-251
5.49769e-253
3.34623e-255
2.02771e-257
1.22234e-259
7.3214e-262
4.34998e-264
2.55834e-266
1.48568e-268
8.49523e-271
4.76854e-273
2.61919e-275
1.40307e-277
7.30543e-280
3.68434e-282
1.79339e-284
8.3946e-287
3.76416e-289
1.61036e-291
6.54468e-294
2.51489e-296
9.09009e-299
3.07272e-301
9.65017e-304
2.79461e-306
7.39658e-309
1.77038e-311
3.78495e-314
6.57811e-317
0
0
0
0
0
0
0
0
0
0
0
0
1.18406e-314
6.30273e-312
2.94374e-309
1.22721e-306
4.62565e-304
1.593e-301
5.05645e-299
1.49033e-296
4.10484e-294
1.06244e-291
2.59682e-289
6.02004e-287
1.32886e-284
2.803e-282
5.668e-280
1.10201e-277
2.06573e-275
3.74274e-273
6.56988e-271
1.11978e-268
1.85701e-266
3.00226e-264
4.74066e-262
7.32406e-260
1.10897e-257
1.64831e-255
2.40874e-253
3.46598e-251
4.91795e-249
6.89105e-247
9.54853e-245
1.31019e-242
1.78267e-240
2.40838e-238
3.23498e-236
4.32592e-234
5.76643e-232
7.67195e-230
1.02002e-227
1.35683e-225
1.80779e-223
2.21841e-221
2.26448e-219
1.96222e-217
1.4494e-215
9.09682e-214
4.81693e-212
2.13298e-210
7.82782e-209
2.36246e-207
5.83298e-206
1.17618e-204
1.94088e-203
2.635e-202
2.96777e-201
2.80265e-200
2.24403e-199
1.53949e-198
9.14484e-198
4.75441e-197
2.18673e-196
8.98534e-196
3.32663e-195
1.11824e-194
3.43676e-194
9.7194e-194
2.54424e-193
6.19853e-193
1.4128e-192
3.02751e-192
6.12826e-192
1.17665e-191
2.15088e-191
3.75526e-191
6.27968e-191
1.00836e-190
1.5585e-190
2.32356e-190
3.3488e-190
4.67525e-190
6.33595e-190
8.34986e-190
1.07165e-189
1.34111e-189
1.63805e-189
1.95445e-189
2.28021e-189
2.60392e-189
2.91328e-189
3.19296e-189
3.39335e-189
3.09284e-189
5.65226e-190
1.87667e-199
2.59114e-195
2.30545e-186
1.14275e-185
1.3476e-185
1.35863e-185
1.29424e-185
1.1896e-185
1.06095e-185
9.21619e-186
7.81215e-186
6.46369e-186
5.21773e-186
4.10634e-186
3.14718e-186
2.346e-186
1.69832e-186
1.1919e-186
8.09474e-187
5.30873e-187
3.35455e-187
2.03729e-187
1.18598e-187
6.59836e-188
3.49725e-188
1.75959e-188
8.37113e-189
3.7494e-189
1.57341e-189
6.15346e-190
2.23013e-190
7.44427e-191
2.27389e-191
6.31155e-192
1.57982e-192
3.53503e-193
6.99916e-194
1.21243e-194
1.81661e-195
2.32777e-196
2.52085e-197
2.27664e-198
1.69132e-199
1.02148e-200
4.97052e-202
1.93742e-203
6.04201e-205
1.51415e-206
3.08071e-208
5.16848e-210
7.28865e-212
8.82147e-214
9.34707e-216
8.81869e-218
7.50408e-220
6.18533e-222
5.10877e-224
4.19746e-226
3.43062e-228
2.78924e-230
2.25603e-232
1.81543e-234
1.45351e-236
1.15795e-238
9.17935e-241
7.24055e-243
5.68212e-245
4.43507e-247
3.44128e-249
2.65239e-251
2.02854e-253
1.5373e-255
1.15243e-257
8.52861e-260
6.21666e-262
4.45204e-264
3.12399e-266
2.14174e-268
1.43033e-270
9.27623e-273
5.82337e-275
3.52688e-277
2.05352e-279
1.14523e-281
6.09333e-284
3.07991e-286
1.47204e-288
6.61869e-291
2.78349e-293
1.08775e-295
3.92031e-298
1.29155e-300
3.84867e-303
1.02399e-305
2.3934e-308
4.81172e-311
8.08375e-314
1.31584e-316
0
0
0
0
0
0
1.00004e-314
7.42929e-312
4.42107e-309
2.1985e-306
9.40117e-304
3.5306e-301
1.18349e-298
3.58688e-296
9.93281e-294
2.53529e-291
6.00903e-289
1.331e-286
2.77053e-284
5.44615e-282
1.01544e-279
1.80283e-277
3.05865e-275
4.97482e-273
7.78001e-271
1.17306e-268
1.70958e-266
2.41382e-264
3.30917e-262
4.4139e-260
5.73928e-258
7.28812e-256
9.05421e-254
1.10225e-251
1.31699e-249
1.54674e-247
1.78817e-245
2.0378e-243
2.29223e-241
2.54835e-239
2.80357e-237
3.05592e-235
3.30419e-233
3.54796e-231
3.78764e-229
4.02449e-227
4.26054e-225
4.49864e-223
4.74235e-221
4.99606e-219
5.02768e-217
4.48443e-215
3.51498e-213
2.39661e-211
1.40538e-209
7.00262e-208
2.92937e-206
1.01753e-204
2.90894e-203
6.80633e-202
1.30143e-200
2.03841e-199
2.62996e-198
2.81955e-197
2.53996e-196
1.94458e-195
1.27851e-194
7.29381e-194
3.64952e-193
1.61885e-192
6.42905e-192
2.30514e-191
7.5177e-191
2.24516e-190
6.17948e-190
1.57677e-189
3.75052e-189
8.35942e-189
1.75441e-188
3.48243e-188
6.564e-188
1.17911e-187
2.02496e-187
3.33417e-187
5.27713e-187
8.04801e-187
1.18525e-186
1.68923e-186
2.33439e-186
3.13383e-186
4.09372e-186
5.21098e-186
6.47189e-186
7.8509e-186
9.31158e-186
1.08082e-185
1.22891e-185
1.36996e-185
1.49735e-185
1.58932e-185
1.45214e-185
2.71613e-186
1.12676e-195
5.842e-192
5.49389e-183
2.56118e-182
2.87795e-182
2.82276e-182
2.6619e-182
2.44214e-182
2.18382e-182
1.90671e-182
1.62657e-182
1.35558e-182
1.10306e-182
8.75696e-183
6.77485e-183
5.1015e-183
3.73345e-183
2.65095e-183
1.82306e-183
1.21175e-183
7.76771e-184
4.79051e-184
2.83488e-184
1.60512e-184
8.66824e-185
4.44927e-185
2.16223e-185
9.90612e-186
4.25796e-186
1.70807e-186
6.35866e-187
2.18361e-187
6.87329e-188
1.96962e-188
5.10027e-189
1.1832e-189
2.43386e-190
4.38867e-191
6.85815e-192
9.18472e-193
1.04188e-193
9.87481e-195
7.70821e-196
4.89487e-197
2.50447e-198
1.02545e-199
3.35207e-201
8.77694e-203
1.85826e-204
3.22944e-206
4.69631e-208
5.83892e-210
6.33974e-212
6.1254e-214
5.34716e-216
4.52274e-218
3.83147e-220
3.22835e-222
2.70556e-224
2.25535e-226
1.87011e-228
1.54256e-230
1.26579e-232
1.03333e-234
8.39226e-237
6.78022e-239
5.4482e-241
4.35268e-243
3.45553e-245
2.72382e-247
2.12948e-249
1.6489e-251
1.26242e-253
9.53774e-256
7.09485e-258
5.18355e-260
3.70979e-262
2.59353e-264
1.76596e-266
1.16758e-268
7.47186e-271
4.61283e-273
2.73772e-275
1.55631e-277
8.44065e-280
4.34895e-282
2.11888e-284
9.71197e-287
4.16381e-289
1.65888e-291
6.09537e-294
2.04742e-296
6.22067e-299
1.68762e-301
4.0222e-304
8.24602e-307
1.41313e-309
1.94251e-312
2.00662e-315
0
0
0
1.31617e-316
1.57931e-313
1.53062e-310
1.11465e-307
6.50819e-305
3.1753e-302
1.33215e-299
4.90819e-297
1.61411e-294
4.79933e-292
1.30385e-289
3.26492e-287
7.5917e-285
1.64969e-282
3.36881e-280
6.4967e-278
1.18835e-275
2.06983e-273
3.44507e-271
5.4971e-269
8.4338e-267
1.24752e-264
1.78361e-262
2.47057e-260
3.32268e-258
4.34776e-256
5.54586e-254
6.90861e-252
8.4194e-250
1.00544e-247
1.17841e-245
1.35753e-243
1.53938e-241
1.72061e-239
1.89817e-237
2.06949e-235
2.23256e-233
2.38602e-231
2.5292e-229
2.66206e-227
2.78518e-225
2.89967e-223
3.00712e-221
3.10951e-219
3.20916e-217
3.30867e-215
3.25899e-213
2.84992e-211
2.1891e-209
1.4599e-207
8.34856e-206
4.04186e-204
1.6362e-202
5.47736e-201
1.50345e-199
3.36741e-198
6.15143e-197
9.19652e-196
1.13234e-194
1.15916e-193
9.98428e-193
7.32221e-192
4.62012e-191
2.53397e-190
1.22112e-189
5.22705e-189
2.00732e-188
6.9734e-188
2.20737e-187
6.40893e-187
1.71747e-186
4.27304e-186
9.92484e-186
2.16322e-185
4.44589e-185
8.65311e-185
1.6012e-184
2.82683e-184
4.77628e-184
7.74527e-184
1.20854e-183
1.81886e-183
2.64611e-183
3.72905e-183
5.10006e-183
6.78156e-183
8.78078e-183
1.10864e-182
1.36671e-182
1.64686e-182
1.94176e-182
2.24236e-182
2.53841e-182
2.81919e-182
3.07188e-182
3.2536e-182
2.97394e-182
5.66949e-183
2.97971e-192
8.55934e-189
7.61997e-180
3.50984e-179
3.85762e-179
3.72627e-179
3.49074e-179
3.19668e-179
2.86334e-179
2.50965e-179
2.15221e-179
1.80507e-179
1.47956e-179
1.18419e-179
9.24397e-180
7.02916e-180
5.19904e-180
3.73418e-180
2.59994e-180
1.75124e-180
1.13871e-180
7.13079e-181
4.28937e-181
2.47152e-181
1.35991e-181
7.12099e-182
3.5351e-182
1.65671e-182
7.29427e-183
3.00144e-183
1.14779e-183
4.05518e-184
1.31544e-184
3.89209e-185
1.0428e-185
2.50866e-186
5.36261e-187
1.00681e-187
1.64134e-188
2.29813e-189
2.73188e-190
2.7187e-191
2.23103e-192
1.49044e-193
8.02338e-195
3.4528e-196
1.18349e-197
3.23762e-199
7.12846e-201
1.28125e-202
1.91557e-204
2.43423e-206
2.68725e-208
2.62838e-210
2.3148e-212
1.97058e-214
1.68036e-216
1.42501e-218
1.20188e-220
1.00822e-222
8.41273e-225
6.98281e-227
5.76586e-229
4.73648e-231
3.87083e-233
3.14684e-235
2.54437e-237
2.04533e-239
1.63371e-241
1.29556e-243
1.01889e-245
7.93545e-248
6.11014e-250
4.64195e-252
3.47174e-254
2.54991e-256
1.83437e-258
1.2889e-260
8.81977e-263
5.85972e-265
3.76794e-267
2.33724e-269
1.39369e-271
7.95975e-274
4.33706e-276
2.24498e-278
1.09884e-280
5.05982e-283
2.17929e-285
8.72236e-288
3.21971e-290
1.08648e-292
3.31626e-295
9.03828e-298
2.1641e-300
4.45721e-303
7.67381e-306
1.05976e-308
1.10018e-311
7.63168e-315
0
1.64521e-316
5.38166e-313
7.7831e-310
7.51083e-307
5.44499e-304
3.16486e-301
1.53713e-298
6.41963e-296
2.35457e-293
7.70827e-291
2.2816e-288
6.17056e-286
1.5382e-283
3.5606e-281
7.70255e-279
1.56589e-276
3.00631e-274
5.47453e-272
9.49293e-270
1.57301e-267
2.49887e-265
3.81691e-263
5.62111e-261
8.0014e-259
1.10347e-256
1.47759e-254
1.92506e-252
2.44491e-250
3.03255e-248
3.67983e-246
4.37562e-244
5.10651e-242
5.85776e-240
6.61435e-238
7.3619e-236
8.08755e-234
8.78062e-232
9.43302e-230
1.00395e-227
1.05978e-225
1.11083e-223
1.15739e-221
1.19995e-219
1.23921e-217
1.27599e-215
1.31125e-213
1.34602e-211
1.31658e-209
1.13957e-207
8.63147e-206
5.65212e-204
3.15907e-202
1.48755e-200
5.82813e-199
1.87947e-197
4.9494e-196
1.06019e-194
1.84856e-193
2.63574e-192
3.09489e-191
3.02317e-190
2.48846e-189
1.74748e-188
1.05782e-187
5.57593e-187
2.58704e-186
1.06833e-185
3.96639e-185
1.33487e-184
4.10091e-184
1.15749e-183
3.01994e-183
7.32563e-183
1.6613e-182
3.54041e-182
7.12424e-182
1.35942e-181
2.46928e-181
4.28424e-181
7.1218e-181
1.13742e-180
1.74973e-180
2.59878e-180
3.73471e-180
5.20389e-180
7.04313e-180
9.27547e-180
1.19039e-179
1.49081e-179
1.82429e-179
2.18367e-179
2.55955e-179
2.9406e-179
3.31409e-179
3.66679e-179
3.98307e-179
4.20914e-179
3.84739e-179
7.47331e-180
4.99427e-189
9.46896e-186
7.44299e-177
3.41629e-176
3.72306e-176
3.56958e-176
3.33203e-176
3.04982e-176
2.73731e-176
2.40807e-176
2.07543e-176
1.75128e-176
1.4456e-176
1.1662e-176
9.18389e-177
7.05111e-177
5.27034e-177
3.82873e-177
2.69874e-177
1.84202e-177
1.2149e-177
7.72489e-178
4.72337e-178
2.76969e-178
1.55281e-178
8.29574e-179
4.20732e-179
2.01714e-179
9.09837e-180
3.84068e-180
1.5089e-180
5.48523e-181
1.83393e-181
5.60351e-182
1.5538e-182
3.8775e-183
8.61684e-184
1.68509e-184
2.86699e-185
4.19893e-186
5.23445e-187
5.47449e-188
4.72763e-189
3.32655e-190
1.88693e-191
8.54981e-193
3.07898e-194
8.81961e-196
2.02408e-197
3.7714e-199
5.80978e-201
7.5603e-203
8.49811e-205
8.42194e-207
7.48508e-209
6.41e-211
5.49953e-213
4.69197e-215
3.9809e-217
3.35926e-219
2.81956e-221
2.35415e-223
1.9554e-225
1.61587e-227
1.32846e-229
1.08649e-231
8.83787e-234
7.14743e-236
5.7435e-238
4.58203e-240
3.62496e-242
2.83983e-244
2.19925e-246
1.68028e-248
1.26368e-250
9.33202e-253
6.74918e-255
4.76711e-257
3.27887e-259
2.18949e-261
1.41495e-263
8.82034e-266
5.28538e-268
3.03334e-270
1.6608e-272
8.63826e-275
4.2485e-277
1.96571e-279
8.50705e-282
3.42119e-284
1.26894e-286
4.30251e-289
1.31956e-291
3.61368e-294
8.69409e-297
1.79926e-299
3.11264e-302
4.31931e-305
4.50572e-308
3.14012e-311
1.09212e-314
6.9514e-313
2.00257e-309
2.88233e-306
2.7682e-303
1.99722e-300
1.15533e-297
5.5845e-295
2.32119e-292
8.47312e-290
2.76073e-287
8.13294e-285
2.18916e-282
5.43145e-280
1.25137e-277
2.69438e-275
5.45201e-273
1.04185e-270
1.88845e-268
3.25952e-266
5.37636e-264
8.50179e-262
1.29271e-259
1.89514e-257
2.68551e-255
3.687e-253
4.91509e-251
6.37519e-249
8.06117e-247
9.95497e-245
1.20274e-242
1.42398e-240
1.65471e-238
1.89006e-236
2.12516e-234
2.35541e-232
2.57678e-230
2.78601e-228
2.98069e-226
3.15935e-224
3.32146e-222
3.46732e-220
3.59801e-218
3.71523e-216
3.8212e-214
3.91855e-212
4.01018e-210
4.09921e-208
3.97927e-206
3.40536e-204
2.53956e-202
1.62989e-200
8.8851e-199
4.06002e-197
1.53587e-195
4.7599e-194
1.19986e-192
2.45294e-191
4.07502e-190
5.53347e-189
6.18885e-188
5.76282e-187
4.52945e-186
3.04389e-185
1.76689e-184
8.94684e-184
3.99484e-183
1.59091e-182
5.70877e-182
1.86086e-181
5.54757e-181
1.52199e-180
3.86561e-180
9.14131e-180
2.02377e-179
4.21625e-179
8.3056e-179
1.55356e-178
2.76973e-178
4.7223e-178
7.72282e-178
1.21473e-177
1.84228e-177
2.70028e-177
3.83326e-177
5.28085e-177
7.07265e-177
9.22461e-177
1.17339e-176
1.45763e-176
1.77058e-176
2.10535e-176
2.4532e-176
2.80382e-176
3.14575e-176
3.46725e-176
3.75459e-176
3.95876e-176
3.61843e-176
7.16344e-177
6.10642e-186
8.44031e-183
5.61171e-174
2.56363e-173
2.78534e-173
2.66251e-173
2.48262e-173
2.27439e-173
2.04655e-173
1.80742e-173
1.56561e-173
1.32908e-173
1.10476e-173
8.98274e-174
7.13592e-174
5.53153e-174
4.17801e-174
3.06986e-174
2.19057e-174
1.51508e-174
1.01359e-174
6.54409e-175
4.06751e-175
2.4274e-175
1.38678e-175
7.55956e-176
3.91735e-176
1.92166e-176
8.88095e-177
3.84648e-177
1.55272e-177
5.80859e-178
2.00192e-178
6.31786e-179
1.81358e-179
4.69647e-180
1.08544e-180
2.21187e-181
3.92908e-182
6.02236e-183
7.87887e-184
8.66781e-185
7.88504e-186
5.85092e-187
3.50261e-188
1.67414e-189
6.34779e-191
1.90843e-192
4.57701e-194
8.86484e-196
1.41093e-197
1.88506e-199
2.16249e-201
2.17587e-203
1.95494e-205
1.6859e-207
1.45688e-209
1.25179e-211
1.06956e-213
9.08854e-216
7.6816e-218
6.45842e-220
5.40205e-222
4.49548e-224
3.72204e-226
3.06575e-228
2.51159e-230
2.04573e-232
1.65565e-234
1.33025e-236
1.05984e-238
8.36103e-241
6.51981e-243
5.01524e-245
3.79711e-247
2.8226e-249
2.05466e-251
1.46056e-253
1.01095e-255
6.79292e-258
4.4171e-260
2.77042e-262
1.67025e-264
9.64407e-267
5.3123e-269
2.77978e-271
1.37542e-273
6.40226e-276
2.78745e-278
1.12777e-280
4.20825e-283
1.4355e-285
4.42931e-288
1.22034e-290
2.95384e-293
6.15022e-296
1.07044e-298
1.49446e-301
1.56846e-304
1.09976e-307
3.86653e-311
2.2187e-309
6.35278e-306
9.08828e-303
8.6756e-300
6.2215e-297
3.57721e-294
1.71869e-291
7.10073e-289
2.57644e-286
8.34433e-284
2.4435e-281
6.53802e-279
1.61249e-276
3.69306e-274
7.9048e-272
1.59011e-269
3.02084e-267
5.44361e-265
9.3413e-263
1.53188e-260
2.40848e-258
3.64119e-256
5.3077e-254
7.47872e-252
1.02099e-249
1.35346e-247
1.74577e-245
2.19526e-243
2.69611e-241
3.23961e-239
3.81476e-237
4.40901e-235
5.00919e-233
5.60233e-231
6.17655e-229
6.72162e-227
7.22949e-225
7.69456e-223
8.11367e-221
8.48611e-219
8.81329e-217
9.09853e-215
9.34663e-213
9.56354e-211
9.75605e-209
9.93145e-207
1.00973e-204
9.71006e-203
8.19937e-201
6.0074e-199
3.77005e-197
1.9995e-195
8.84308e-194
3.22138e-192
9.56965e-191
2.30353e-189
4.48468e-188
7.0854e-187
9.1495e-186
9.73543e-185
8.63228e-184
6.47312e-183
4.16042e-182
2.31467e-181
1.12539e-180
4.83368e-180
1.85563e-179
6.43382e-179
2.03085e-178
5.87417e-178
1.56627e-177
3.87202e-177
8.92492e-177
1.92855e-176
3.92713e-176
7.57198e-176
1.38818e-175
2.42882e-175
4.06899e-175
6.54617e-175
1.01402e-174
1.51613e-174
2.193e-174
3.07507e-174
4.18834e-174
5.55067e-174
7.1696e-174
9.03902e-174
1.11376e-173
1.34292e-173
1.58626e-173
1.83745e-173
2.08914e-173
2.33332e-173
2.56191e-173
2.76557e-173
2.90935e-173
2.65931e-173
5.36766e-174
5.85985e-183
6.28982e-180
3.43519e-171
1.55735e-170
1.69061e-170
1.61518e-170
1.50695e-170
1.38314e-170
1.24841e-170
1.10715e-170
9.64002e-171
8.23376e-171
6.89215e-171
5.6482e-171
4.52627e-171
3.54242e-171
2.70376e-171
2.00933e-171
1.45152e-171
1.01731e-171
6.90358e-172
4.52602e-172
2.85985e-172
1.73711e-172
1.0114e-172
5.62631e-173
2.97946e-173
1.49574e-173
7.08399e-174
3.14861e-174
1.30615e-174
5.02891e-175
1.78691e-175
5.82587e-176
1.73177e-176
4.65562e-177
1.11956e-177
2.37826e-178
4.41261e-179
7.08205e-180
9.73092e-181
1.12715e-181
1.0812e-182
8.47067e-184
5.36021e-185
2.70769e-186
1.08327e-187
3.42645e-189
8.61029e-191
1.73832e-192
2.86667e-194
3.94301e-196
4.62802e-198
4.73832e-200
4.31201e-202
3.74912e-204
3.26715e-206
2.83052e-208
2.43833e-210
2.08888e-212
1.77989e-214
1.50866e-216
1.27221e-218
1.0674e-220
8.91039e-223
7.40005e-225
6.11283e-227
5.02046e-229
4.09698e-231
3.31908e-233
2.66619e-235
2.12055e-237
1.66696e-239
1.29254e-241
9.8633e-244
7.38914e-246
5.42024e-248
3.88236e-250
2.70751e-252
1.83288e-254
1.20068e-256
7.58637e-259
4.60739e-261
2.67984e-263
1.48696e-265
7.83781e-268
3.90648e-270
1.83168e-272
8.0333e-275
3.27402e-277
1.23067e-279
4.22889e-282
1.31446e-284
3.64828e-287
8.89595e-290
1.86595e-292
3.27172e-295
4.60159e-298
4.86531e-301
3.43678e-304
1.21729e-307
6.33684e-306
1.80104e-302
2.55757e-299
2.42346e-296
1.72514e-293
9.84628e-291
4.69601e-288
1.92595e-285
6.93711e-283
2.23036e-280
6.48379e-278
1.72229e-275
4.21705e-273
9.58876e-271
2.03771e-268
4.06974e-266
7.67657e-264
1.37354e-261
2.3404e-259
3.81111e-257
5.95015e-255
8.9331e-253
1.29317e-250
1.80962e-248
2.45363e-246
3.23054e-244
4.13883e-242
5.16961e-240
6.30678e-238
7.528e-236
8.80622e-234
1.01116e-231
1.14134e-229
1.26826e-227
1.38928e-225
1.50224e-223
1.6055e-221
1.69798e-219
1.7792e-217
1.84918e-215
1.90842e-213
1.95779e-211
1.99849e-209
2.03187e-207
2.05945e-205
2.08281e-203
2.1035e-201
1.99996e-199
1.66288e-197
1.19422e-195
7.31022e-194
3.76209e-192
1.60594e-190
5.61789e-189
1.59544e-187
3.65833e-186
6.76779e-185
1.01499e-183
1.24462e-182
1.25839e-181
1.06136e-180
7.5867e-180
4.66075e-179
2.48412e-178
1.15914e-177
4.78679e-177
1.77066e-176
5.92997e-176
1.81219e-175
5.08487e-175
1.31748e-174
3.16963e-174
7.11982e-174
1.50135e-173
2.98756e-173
5.6371e-173
1.01274e-172
1.73874e-172
2.86192e-172
4.52902e-172
6.9087e-172
1.0183e-171
1.45349e-171
2.01314e-171
2.71079e-171
3.55477e-171
4.54708e-171
5.68168e-171
6.94389e-171
8.3109e-171
9.75166e-171
1.12291e-170
1.27008e-170
1.4121e-170
1.54449e-170
1.66205e-170
1.74448e-170
1.59465e-170
3.2832e-171
4.61402e-180
4.01287e-177
1.76134e-168
7.90137e-168
8.5778e-168
8.2013e-168
7.66402e-168
7.05227e-168
6.3877e-168
5.69014e-168
4.98095e-168
4.28084e-168
3.60872e-168
2.98088e-168
2.40978e-168
1.9042e-168
1.46872e-168
1.10399e-168
8.07395e-169
5.73439e-169
3.94748e-169
2.62812e-169
1.68833e-169
1.04391e-169
6.19513e-170
3.5176e-170
1.90402e-170
9.78422e-171
4.74996e-171
2.167e-171
9.23973e-172
3.66194e-172
1.34173e-172
4.52022e-173
1.39187e-173
3.88638e-174
9.72903e-175
2.15542e-175
4.17881e-176
7.02645e-177
1.0148e-177
1.23883e-178
1.25429e-179
1.03877e-180
6.95959e-182
3.72259e-183
1.57477e-184
5.25334e-186
1.38686e-187
2.92681e-189
5.01561e-191
7.12292e-193
8.57675e-195
8.95633e-197
8.27252e-199
7.26067e-201
6.38843e-203
5.58735e-205
4.8585e-207
4.20113e-209
3.61309e-211
3.09108e-213
2.63098e-215
2.22812e-217
1.8775e-219
1.574e-221
1.31254e-223
1.08823e-225
8.96488e-228
7.33144e-230
5.94477e-232
4.77238e-234
3.78634e-236
2.96282e-238
2.28145e-240
1.72452e-242
1.27627e-244
9.22219e-247
6.48773e-249
4.43014e-251
2.92721e-253
1.86546e-255
1.14268e-257
6.70333e-260
3.75138e-262
1.99432e-264
1.00253e-266
4.74109e-269
2.09722e-271
8.62105e-274
3.26854e-276
1.13288e-278
3.55184e-281
9.94371e-284
2.44576e-286
5.17475e-289
9.15247e-292
1.29852e-294
1.38495e-297
9.86868e-301
3.52604e-304
1.66801e-302
4.69956e-299
6.61571e-296
6.21447e-293
4.38548e-290
2.48139e-287
1.17325e-284
4.77035e-282
1.70349e-279
5.42999e-277
1.56505e-274
4.12183e-272
1.00067e-269
2.25609e-267
4.75404e-265
9.41515e-263
1.7611e-260
3.12486e-258
5.28042e-256
8.52782e-254
1.32051e-251
1.96635e-249
2.82345e-247
3.91918e-245
5.27137e-243
6.88521e-241
8.75121e-239
1.08447e-236
1.31268e-234
1.55469e-232
1.80463e-230
2.05623e-228
2.30328e-226
2.53999e-224
2.76139e-222
2.96352e-220
3.14355e-218
3.29989e-216
3.43205e-214
3.54057e-212
3.62686e-210
3.693e-208
3.74152e-206
3.77529e-204
3.79726e-202
3.81043e-200
3.81765e-198
3.58136e-196
2.9255e-194
2.05442e-192
1.22345e-190
6.09258e-189
2.50304e-187
8.38429e-186
2.27005e-184
4.94609e-183
8.67534e-182
1.23272e-180
1.43338e-179
1.37546e-178
1.10225e-177
7.50386e-177
4.40357e-176
2.2474e-175
1.00595e-174
3.99194e-174
1.42213e-173
4.59874e-173
1.36027e-172
3.70192e-172
9.31879e-172
2.18139e-171
4.77411e-171
9.82168e-171
1.90943e-170
3.52492e-170
6.20459e-170
1.04512e-169
1.68991e-169
2.63036e-169
3.95101e-169
5.74059e-169
8.08538e-169
1.10609e-168
1.47242e-168
1.91048e-168
2.42001e-168
2.99685e-168
3.63275e-168
4.31578e-168
5.0303e-168
5.75807e-168
6.47867e-168
7.17043e-168
7.8126e-168
8.38088e-168
8.7763e-168
8.02335e-168
1.68603e-168
3.07043e-177
2.22881e-174
7.72029e-166
3.4175e-165
3.71134e-165
3.55373e-165
3.32829e-165
3.07184e-165
2.79305e-165
2.49967e-165
2.20019e-165
1.90293e-165
1.61567e-165
1.34526e-165
1.09716e-165
8.75388e-166
6.82338e-166
5.1879e-166
3.84135e-166
2.76491e-166
1.9309e-166
1.30561e-166
8.52831e-167
5.36857e-167
3.24805e-167
1.88285e-167
1.04202e-167
5.4827e-168
2.72914e-168
1.27832e-168
5.60351e-169
2.28648e-169
8.64039e-170
3.00871e-170
9.6009e-171
2.78583e-171
7.26418e-172
1.67925e-172
3.40336e-173
5.99869e-174
9.1144e-175
1.17387e-175
1.25576e-176
1.10067e-177
7.82068e-179
4.43802e-180
1.98945e-181
7.01669e-183
1.95132e-184
4.31708e-186
7.71084e-188
1.13404e-189
1.40483e-191
1.50007e-193
1.40939e-195
1.25035e-197
1.11219e-199
9.83199e-202
8.64045e-204
7.55035e-206
6.56189e-208
5.6729e-210
4.87937e-212
4.17589e-214
3.55607e-216
3.01293e-218
2.53923e-220
2.12774e-222
1.77154e-224
1.46417e-226
1.1998e-228
9.73318e-231
7.80278e-233
6.16889e-235
4.79894e-237
3.66435e-239
2.73923e-241
1.99915e-243
1.42038e-245
9.79508e-248
6.53593e-250
4.20622e-252
2.60181e-254
1.54129e-256
8.7102e-259
4.67605e-261
2.37375e-263
1.13364e-265
5.06416e-268
2.10232e-270
8.04965e-273
2.81773e-275
8.92218e-278
2.52276e-280
6.26702e-283
1.33925e-285
2.39244e-288
3.42837e-291
3.6933e-294
2.65817e-297
9.59289e-301
4.13105e-299
1.15228e-295
1.60593e-292
1.49352e-289
1.04349e-286
5.84568e-284
2.73658e-281
1.10169e-278
3.89534e-276
1.22946e-273
3.50887e-271
9.15098e-269
2.19999e-266
4.91193e-264
1.02504e-261
2.01051e-259
3.72462e-257
6.54584e-255
1.09562e-252
1.75271e-250
2.68851e-248
3.96601e-246
5.64182e-244
7.75893e-242
1.034e-239
1.33823e-237
1.68548e-235
2.06984e-233
2.48295e-231
2.91452e-229
3.35312e-227
3.78699e-225
4.20485e-223
4.59665e-221
4.95405e-219
5.27084e-217
5.54303e-215
5.76885e-213
5.94857e-211
6.08416e-209
6.179e-207
6.23748e-205
6.2646e-203
6.26568e-201
6.24605e-199
6.21081e-197
6.16466e-195
5.69365e-193
4.55851e-191
3.12218e-189
1.80385e-187
8.66684e-186
3.41651e-184
1.09252e-182
2.81205e-181
5.80735e-180
9.63557e-179
1.29472e-177
1.42555e-176
1.29676e-175
9.86219e-175
6.38805e-174
3.57877e-173
1.74806e-172
7.50159e-172
2.85882e-171
9.80294e-171
3.05951e-170
8.75685e-170
2.31092e-169
5.65063e-169
1.2867e-168
2.74294e-168
5.5038e-168
1.04503e-167
1.88693e-167
3.25336e-167
5.37539e-167
8.53721e-167
1.30682e-166
1.93271e-166
2.7679e-166
3.84659e-166
5.19715e-166
6.83923e-166
8.77995e-166
1.1013e-165
1.35157e-165
1.62495e-165
1.91617e-165
2.21851e-165
2.52437e-165
2.82532e-165
3.11274e-165
3.37844e-165
3.61279e-165
3.77447e-165
3.45121e-165
7.40777e-166
1.76287e-174
1.091e-171
2.93103e-163
1.27712e-162
1.38743e-162
1.33103e-162
1.24984e-162
1.15738e-162
1.05663e-162
9.50249e-163
8.41134e-163
7.32193e-163
6.26181e-163
5.25599e-163
4.32488e-163
3.48444e-163
2.74496e-163
2.11117e-163
1.58278e-163
1.15466e-163
8.18137e-164
5.61903e-164
3.7327e-164
2.39277e-164
1.47624e-164
8.7395e-165
4.94692e-165
2.66619e-165
1.36131e-165
6.54873e-166
2.95202e-166
1.24046e-166
4.8358e-167
1.74106e-167
5.76046e-168
1.73817e-168
4.72428e-169
1.14018e-169
2.41682e-170
4.46814e-171
7.1492e-172
9.72534e-173
1.10037e-173
1.02199e-174
7.71474e-176
4.65383e-177
2.21548e-178
8.28235e-180
2.43306e-181
5.65965e-183
1.05686e-184
1.61471e-186
2.06414e-188
2.25995e-190
2.16505e-192
1.94419e-194
1.75061e-196
1.56626e-198
1.39285e-200
1.2315e-202
1.08287e-204
9.47154e-207
8.24233e-209
7.13699e-211
6.14935e-213
5.27174e-215
4.49554e-217
3.81168e-219
3.21115e-221
2.68534e-223
2.22636e-225
1.82721e-227
1.48181e-229
1.18502e-231
9.32392e-234
7.20026e-236
5.44306e-238
4.01694e-240
2.88578e-242
2.01214e-244
1.35749e-246
8.83267e-249
5.52388e-251
3.30842e-253
1.89032e-255
1.02604e-257
5.26629e-260
2.54296e-262
1.14862e-264
4.82154e-267
1.86676e-269
6.60766e-272
2.11576e-274
6.04964e-277
1.51978e-279
3.28438e-282
5.93356e-285
8.59903e-288
9.36842e-291
6.81909e-294
2.48873e-297
9.77373e-296
2.69552e-292
3.71456e-289
3.41582e-286
2.35984e-283
1.30722e-280
6.05136e-278
2.40903e-275
8.4233e-273
2.62917e-270
7.4208e-268
1.91402e-265
4.55104e-263
1.00501e-260
2.07447e-258
4.02476e-256
7.37571e-254
1.28232e-251
2.12337e-249
3.36071e-247
5.10051e-245
7.44494e-243
1.04799e-240
1.42625e-238
1.88105e-236
2.40947e-234
3.00367e-232
3.65118e-230
4.33568e-228
5.03822e-226
5.73859e-224
6.41684e-222
7.05462e-220
7.63627e-218
8.14962e-216
8.58636e-214
8.94215e-212
9.21629e-210
9.41136e-208
9.5325e-206
9.58685e-204
9.58275e-202
9.52923e-200
9.43536e-198
9.30988e-196
9.16082e-194
8.99524e-192
8.16065e-190
6.38767e-188
4.25528e-186
2.37811e-184
1.09896e-182
4.14348e-181
1.26092e-179
3.07625e-178
6.00604e-177
9.40486e-176
1.1926e-174
1.24165e-173
1.06941e-172
7.70881e-172
4.74578e-171
2.53643e-170
1.18513e-169
4.87299e-169
1.78213e-168
5.87786e-168
1.76964e-167
4.89939e-167
1.25343e-166
2.97635e-166
6.59095e-166
1.3681e-165
2.67639e-165
4.96131e-165
8.75872e-165
1.47872e-164
2.3959e-164
3.73671e-164
5.6243e-164
8.18881e-164
1.15582e-163
1.58474e-163
2.11453e-163
2.75059e-163
3.49349e-163
4.33895e-163
5.27699e-163
6.29219e-163
7.36455e-163
8.46942e-163
9.57929e-163
1.06645e-162
1.16954e-162
1.26445e-162
1.34788e-162
1.40492e-162
1.28491e-162
2.81978e-163
8.86306e-172
4.74905e-169
9.71422e-161
4.15642e-160
4.51659e-160
4.3422e-160
4.08899e-160
3.79993e-160
3.48401e-160
3.14899e-160
2.80356e-160
2.45651e-160
2.11634e-160
1.79095e-160
1.48697e-160
1.20984e-160
9.63333e-161
7.49555e-161
5.69055e-161
4.20803e-161
3.0256e-161
2.11112e-161
1.42656e-161
9.31488e-162
5.86254e-162
3.54601e-162
2.05395e-162
1.1345e-162
5.94458e-163
2.93834e-163
1.36258e-163
5.89814e-164
2.37277e-164
8.83664e-165
3.03336e-165
9.52635e-166
2.70119e-166
6.81075e-167
1.51069e-167
2.93155e-168
4.94526e-169
7.11465e-170
8.52328e-171
8.39887e-172
6.74852e-173
4.3365e-174
2.19724e-175
8.7297e-177
2.71676e-178
6.66453e-180
1.3052e-181
2.07836e-183
2.75046e-185
3.09685e-187
3.03297e-189
2.7611e-191
2.52026e-193
2.28515e-195
2.05905e-197
1.8444e-199
1.64292e-201
1.45569e-203
1.28322e-205
1.12557e-207
9.82437e-210
8.53209e-212
7.3708e-214
6.33113e-216
5.40317e-218
4.57715e-220
3.84392e-222
3.19534e-224
2.62445e-226
2.12542e-228
1.69338e-230
1.32405e-232
1.01336e-234
7.57104e-237
5.50606e-239
3.8863e-241
2.65402e-243
1.74801e-245
1.10657e-247
6.70873e-250
3.88014e-252
2.13195e-254
1.10771e-256
5.41483e-259
2.47604e-261
1.05223e-263
4.12454e-266
1.47811e-268
4.79192e-271
1.38729e-273
3.52877e-276
7.72168e-279
1.41252e-281
2.07281e-284
2.28669e-287
1.6854e-290
6.22847e-294
2.23458e-292
6.08583e-289
8.28205e-286
7.52117e-283
5.13146e-280
2.80729e-277
1.28345e-274
5.04628e-272
1.74271e-269
5.37268e-267
1.49785e-264
3.81615e-262
8.96333e-260
1.95537e-257
3.98737e-255
7.64296e-253
1.38386e-250
2.37725e-248
3.88972e-246
6.08365e-244
9.12464e-242
1.31631e-239
1.83139e-237
2.46362e-235
3.2119e-233
4.06721e-231
5.01269e-229
6.02457e-227
7.07382e-225
8.12842e-223
9.15577e-221
1.01251e-218
1.10094e-216
1.1787e-214
1.24427e-212
1.29674e-210
1.33586e-208
1.36193e-206
1.3757e-204
1.37829e-202
1.37101e-200
1.35535e-198
1.33277e-196
1.30471e-194
1.27249e-192
1.23728e-190
1.20006e-188
1.06678e-186
8.14146e-185
5.25963e-183
2.83423e-181
1.2555e-179
4.51212e-178
1.30234e-176
3.00233e-175
5.52713e-174
8.1486e-173
9.73069e-172
9.56564e-171
7.79084e-170
5.31541e-169
3.10633e-168
1.58263e-167
7.06955e-167
2.78321e-166
9.75921e-166
3.09329e-165
8.97776e-165
2.40322e-164
5.95843e-164
1.37357e-163
2.95691e-163
5.97377e-163
1.13879e-162
2.05989e-162
3.55378e-162
5.87233e-162
9.327e-162
1.42806e-161
2.11301e-161
3.02813e-161
4.2118e-161
5.69666e-161
7.50579e-161
9.65014e-161
1.21249e-160
1.49102e-160
1.79689e-160
2.12484e-160
2.46829e-160
2.81939e-160
3.16955e-160
3.50981e-160
3.83129e-160
4.12599e-160
4.38411e-160
4.55891e-160
4.17101e-160
9.37018e-161
3.9438e-169
1.85e-166
2.81958e-158
1.18168e-157
1.28417e-157
1.23739e-157
1.16878e-157
1.0902e-157
1.00401e-157
9.12163e-158
8.16926e-158
7.20608e-158
6.25482e-158
5.33714e-158
4.47181e-158
3.67478e-158
2.95792e-158
2.32872e-158
1.79058e-158
1.34244e-158
9.79684e-159
6.94661e-159
4.77654e-159
3.17831e-159
2.04165e-159
1.26248e-159
7.48813e-160
4.24189e-160
2.28254e-160
1.15994e-160
5.53604e-161
2.46956e-161
1.02565e-161
3.95338e-162
1.40922e-162
4.61145e-163
1.36563e-163
3.60023e-164
8.36169e-165
1.70462e-165
3.03593e-166
4.62628e-167
5.87506e-168
6.15073e-169
5.27165e-170
3.61634e-171
1.95473e-172
8.27704e-174
2.7371e-175
7.10304e-177
1.46362e-178
2.43722e-180
3.35036e-182
3.89184e-184
3.90767e-186
3.61256e-188
3.34766e-190
3.08055e-192
2.81637e-194
2.55926e-196
2.31242e-198
2.07817e-200
1.85809e-202
1.65307e-204
1.46344e-206
1.2891e-208
1.12955e-210
9.84077e-213
8.51806e-215
7.31831e-217
6.23282e-219
5.25397e-221
4.37551e-223
3.59265e-225