/*--------------------------------*- C++ -*----------------------------------*\
| =========                 |                                                 |
| \\      /  F ield         | OpenFOAM: The Open Source CFD Toolbox           |
|  \\    /   O peration     | Version:  2412                                  |
|   \\  /    A nd           | Website:  www.openfoam.com                      |
|    \\/     M anipulation  |                                                 |
\*---------------------------------------------------------------------------*/
FoamFile
{
    version     2.0;
    format      ascii;
    arch        "LSB;label=32;scalar=64";
    class       surfaceScalarField;
    location    "1.08";
    object      alphaPhi0.water;
}
// * * * * * * * * * * * * * * * * * * * * * * * * * * * * * * * * * * * * * //

dimensions      [0 3 -1 0 0 0 0];

oriented        oriented;

internalField   nonuniform List<scalar> 
79600
(
8.32261e-210
-4.86958e-206
1.22836e-200
-3.96044e-197
1.27791e-199
-2.52875e-196
2.33165e-199
-3.24977e-196
3.19765e-199
-3.40771e-196
3.78311e-199
-3.26246e-196
4.10989e-199
-2.97986e-196
4.20504e-199
-2.63362e-196
4.10128e-199
-2.26379e-196
3.84605e-199
-1.89975e-196
3.47945e-199
-1.55662e-196
3.04063e-199
-1.24417e-196
2.56912e-199
-9.6931e-197
2.09887e-199
-7.35178e-197
1.65722e-199
-5.42072e-197
1.26356e-199
-3.87924e-197
9.29143e-200
-2.68935e-197
6.58049e-200
-1.80282e-197
4.48086e-200
-1.16606e-197
2.92775e-200
-7.26014e-198
1.83146e-200
-4.34027e-198
1.0941e-200
-2.48449e-198
6.22444e-201
-1.3577e-198
3.36186e-201
-7.05968e-199
1.71789e-201
-3.48026e-199
8.27335e-202
-1.62013e-199
3.73926e-202
-7.0905e-200
1.57848e-202
-2.90305e-200
6.19105e-203
-1.10596e-200
2.24338e-203
-3.89772e-201
7.46438e-204
-1.26287e-201
2.26557e-204
-3.73672e-202
6.22821e-205
-1.00252e-202
1.53876e-205
-2.41973e-203
3.38665e-206
-5.20747e-204
6.57251e-207
-9.88803e-205
1.11218e-207
-1.63747e-205
1.6223e-208
-2.33727e-206
2.0164e-209
-2.84186e-207
2.10999e-210
-2.90726e-208
1.83439e-211
-2.46771e-209
1.30728e-212
-1.71291e-210
7.54841e-214
-9.60014e-212
3.50014e-215
-4.30026e-213
1.29611e-216
-1.52825e-214
3.82881e-218
-4.29497e-216
9.06062e-220
-9.55946e-218
1.7339e-221
-1.69542e-219
2.72015e-223
-2.41822e-221
3.5545e-225
-2.79911e-223
3.92879e-227
-2.63659e-225
3.71419e-229
-1.98609e-227
3.00928e-231
-1.10119e-229
2.05512e-233
-2.69995e-232
1.31205e-235
8.05247e-239
8.44779e-238
1.39135e-240
5.40501e-240
1.45647e-242
3.436e-242
1.29167e-244
2.17013e-244
1.05125e-246
1.36174e-246
8.10539e-249
8.48997e-249
6.01643e-251
5.26002e-251
4.33952e-253
3.2391e-253
3.05961e-255
1.98301e-255
2.1173e-257
1.20726e-257
1.44238e-259
7.31031e-260
9.69434e-262
4.40318e-262
6.43861e-264
2.63774e-264
4.23019e-266
1.57088e-266
2.75065e-268
9.29257e-269
1.77005e-270
5.45328e-271
1.12651e-272
3.16922e-273
7.08218e-275
1.81999e-275
4.39089e-277
1.03012e-277
2.67891e-279
5.72983e-280
1.60432e-281
3.12222e-282
9.4044e-284
1.66112e-284
5.37984e-286
8.59903e-287
2.99393e-288
4.31573e-289
1.61561e-290
2.09229e-291
8.42571e-293
9.76124e-294
4.23209e-295
4.36508e-296
2.04e-297
1.8633e-298
9.40164e-300
7.55885e-301
4.12622e-302
2.90027e-303
1.71722e-304
1.04702e-305
6.74545e-307
3.53564e-308
2.48817e-309
1.10946e-310
8.56929e-312
3.21059e-313
2.73763e-314
8.49238e-316
8.0521e-317
2.03158e-318
2.16129e-319
4.3379e-321
5.2371e-322
9.88131e-324
0
0
0
0
0
0
0
0
0
0
0
0
0
0
0
0
0
0
0
0
0
0
0
0
0
0
0
-1.35868e-321
0
-7.22032e-319
1.87745e-322
-3.37319e-316
8.71087e-320
-1.4066e-313
3.5862e-317
-5.30315e-311
1.33292e-314
-1.82677e-308
4.51967e-312
-5.79986e-306
1.41033e-309
-1.70984e-303
4.07991e-307
-4.71054e-301
1.10116e-304
-1.21949e-298
2.78819e-302
-2.98135e-296
6.65526e-300
-6.91298e-294
1.50398e-297
-1.5263e-291
3.23015e-295
-3.22016e-289
6.61645e-293
-6.51293e-287
1.29661e-290
-1.26655e-284
2.4379e-288
-2.37467e-282
4.40948e-286
-4.30343e-280
7.69068e-284
-7.55577e-278
1.2963e-281
-1.28811e-275
2.11588e-279
-2.13668e-273
3.35056e-277
-3.45531e-271
5.15622e-275
-5.4576e-269
7.7238e-273
-8.43432e-267
1.12777e-270
-1.27752e-264
1.60714e-268
-1.8996e-262
2.23796e-266
-2.77724e-260
3.04827e-264
-3.99836e-258
4.06427e-262
-5.67689e-256
5.30752e-260
-7.96026e-254
6.79149e-258
-1.10394e-251
8.51441e-256
-1.51626e-249
1.04515e-253
-2.06542e-247
1.25456e-251
-2.79404e-245
1.46899e-249
-3.75863e-243
1.67046e-247
-5.03464e-241
1.83045e-245
-6.72368e-239
1.90488e-243
-8.96369e-237
1.8265e-241
-1.19434e-234
1.49391e-239
-1.59229e-232
7.53407e-238
-1.95321e-230
-1.73159e-231
-1.99097e-228
-6.22005e-229
-1.72107e-226
-9.47587e-227
-1.26696e-224
-1.04564e-224
-7.91701e-223
-9.16095e-223
-4.16977e-221
-6.54363e-221
-1.83473e-219
-3.83426e-219
-6.68412e-218
-1.83966e-217
-2.00059e-216
-7.19441e-216
-4.89373e-215
-2.28264e-214
-9.76658e-214
-5.85946e-213
-1.59349e-212
-1.21743e-211
-2.1368e-211
-2.0555e-210
-2.37461e-210
-2.8395e-209
-2.21028e-209
-3.2403e-208
-1.74242e-208
-3.09096e-207
-1.17562e-207
-2.49441e-206
-6.86026e-207
-1.72169e-205
-3.49969e-206
-1.0274e-204
-1.57752e-205
-5.3598e-204
-6.34489e-205
-2.47179e-203
-2.2964e-204
-1.01792e-202
-7.53614e-204
-3.77568e-202
-2.25801e-203
-1.27117e-201
-6.2165e-203
-3.91151e-201
-1.5817e-202
-1.10721e-200
-3.73948e-202
-2.90022e-200
-8.25689e-202
-7.0691e-200
-1.71101e-201
-1.61176e-199
-3.34272e-201
-3.45481e-199
-6.18185e-201
-6.99494e-199
-1.08601e-200
-1.34333e-198
-1.81785e-200
-2.45597e-198
-2.90688e-200
-4.28859e-198
-4.4508e-200
-7.17244e-198
-6.53886e-200
-1.15186e-197
-9.23468e-200
-1.78051e-197
-1.25593e-199
-2.65485e-197
-1.64749e-199
-3.8266e-197
-2.08767e-199
-5.34267e-197
-2.55831e-199
-7.24085e-197
-3.03361e-199
-9.54281e-197
-3.48121e-199
-1.22477e-196
-3.86404e-199
-1.53273e-196
-4.14436e-199
-1.87208e-196
-4.28814e-199
-2.23363e-196
-4.26904e-199
-2.60591e-196
-4.07079e-199
-2.97594e-196
-3.68564e-199
-3.32946e-196
-3.09004e-199
-3.64899e-196
-2.06177e-199
-3.87778e-196
-2.39224e-200
-3.53295e-196
-3.49515e-210
-6.43108e-197
-2.09606e-206
7.78871e-206
-2.85393e-202
1.40471e-196
-2.63975e-193
1.02768e-195
-1.3095e-192
1.60854e-195
-1.54109e-192
2.02776e-195
-1.55162e-192
2.32356e-195
-1.47704e-192
2.49875e-195
-1.35703e-192
2.55302e-195
-1.20999e-192
2.49935e-195
-1.05095e-192
2.35644e-195
-8.90772e-193
2.14543e-195
-7.36975e-193
1.88884e-195
-5.94885e-193
1.6091e-195
-4.68151e-193
1.32639e-195
-3.5878e-193
1.05751e-195
-2.67428e-193
8.14817e-196
-1.9358e-193
6.06032e-196
-1.35843e-193
4.34514e-196
-9.22455e-194
2.99805e-196
-6.04879e-194
1.98688e-196
-3.82155e-194
1.26197e-196
-2.32048e-194
7.66296e-197
-1.35057e-194
4.43645e-197
-7.5125e-195
2.44142e-197
-3.98088e-195
1.27275e-197
-2.00243e-195
6.26176e-198
-9.52375e-196
2.89511e-198
-4.2641e-196
1.25197e-198
-1.78848e-196
5.03755e-199
-6.98947e-197
1.87547e-199
-2.53051e-197
6.42171e-200
-8.43547e-198
2.00927e-200
-2.57224e-198
5.70513e-201
-7.12501e-199
1.45894e-201
-1.77915e-199
3.33107e-202
-3.96971e-200
6.72167e-203
-7.83124e-201
1.18528e-203
-1.34996e-201
1.80579e-204
-2.00963e-202
2.35021e-205
-2.55373e-203
2.58228e-206
-2.73645e-204
2.36365e-207
-2.4375e-205
1.77784e-208
-1.77775e-206
1.08599e-209
-1.04762e-207
5.33937e-211
-4.93458e-209
2.10072e-212
-1.84231e-210
6.60615e-214
-5.42764e-212
1.66774e-215
-1.26233e-213
3.41489e-217
-2.32995e-215
5.76004e-219
-3.44293e-217
8.15867e-221
-4.11024e-219
9.90818e-223
-3.97799e-221
1.05239e-224
-3.07166e-223
9.94315e-227
-1.74598e-225
8.46444e-229
-4.44261e-228
6.97275e-231
7.49982e-234
5.74979e-233
1.67368e-235
4.71153e-235
2.24943e-237
3.83644e-237
2.55876e-239
3.10422e-239
2.67006e-241
2.496e-241
2.63936e-243
1.99444e-243
2.5117e-245
1.5838e-245
2.3225e-247
1.24997e-247
2.0989e-249
9.80439e-250
1.86109e-251
7.64245e-252
1.62346e-253
5.91917e-254
1.39576e-255
4.55362e-256
1.1841e-257
3.47759e-258
9.91841e-260
2.63431e-260
8.20387e-262
1.97711e-262
6.69825e-264
1.46803e-264
5.39409e-266
1.07647e-266
4.27914e-268
7.77899e-269
3.33869e-270
5.52664e-271
2.55698e-272
3.85016e-273
1.91795e-274
2.6227e-275
1.40551e-276
1.7417e-277
1.0036e-278
1.12406e-279
6.96304e-281
7.02704e-282
4.68027e-283
4.24072e-284
3.03835e-285
2.46171e-286
1.89886e-287
1.36937e-288
1.13856e-289
7.27029e-291
6.52617e-292
3.66816e-293
3.56219e-294
1.75052e-295
1.8438e-296
7.8606e-298
9.00861e-299
3.30212e-300
4.13371e-301
1.28921e-302
1.77126e-303
4.64251e-305
7.04143e-306
1.52838e-307
2.57761e-308
4.55146e-310
8.61227e-311
1.21028e-312
2.59883e-313
2.82733e-315
6.99183e-316
5.68135e-318
1.6501e-318
9.54041e-321
3.34482e-321
1.4822e-323
4.94066e-324
0
0
0
0
0
0
0
0
0
0
0
0
0
0
-1.18082e-321
0
-8.76196e-319
5.18769e-322
-5.21575e-316
3.07334e-319
-2.59449e-313
1.51576e-316
-1.10979e-310
6.41929e-314
-4.16908e-308
2.38413e-311
-1.39792e-305
7.892e-309
-4.23803e-303
2.35853e-306
-1.17393e-300
6.4304e-304
-2.99722e-298
1.61348e-301
-7.10582e-296
3.7534e-299
-1.57435e-293
8.14654e-297
-3.27792e-291
1.65883e-294
-6.44516e-289
3.18434e-292
-1.202e-286
5.78747e-290
-2.13455e-284
9.99729e-288
-3.62225e-282
1.64705e-285
-5.8928e-280
2.59614e-283
-9.21756e-278
3.92624e-281
-1.39009e-275
5.71202e-279
-2.02626e-273
8.01317e-277
-2.86149e-271
1.08634e-274
-3.9236e-269
1.42612e-272
-5.23435e-267
1.81624e-270
-6.8072e-265
2.24774e-268
-8.64561e-263
2.70747e-266
-1.07423e-260
3.17855e-264
-1.30794e-258
3.64152e-262
-1.56298e-256
4.07576e-260
-1.83589e-254
4.4609e-258
-2.12274e-252
4.77797e-256
-2.41939e-250
5.01036e-254
-2.72182e-248
5.14525e-252
-3.02633e-246
5.17364e-250
-3.32984e-244
5.08995e-248
-3.63001e-242
4.8923e-246
-3.92538e-240
4.582e-244
-4.21545e-238
4.1625e-242
-4.50068e-236
3.6384e-240
-4.7825e-234
3.01462e-238
-5.06329e-232
2.29582e-236
-5.34632e-230
1.48583e-234
-5.63574e-228
5.864e-233
-5.66909e-226
-2.67572e-227
-5.04939e-224
-9.22249e-225
-3.94828e-222
-1.37477e-222
-2.68291e-220
-1.4861e-220
-1.56637e-218
-1.27351e-218
-7.76301e-217
-8.87215e-217
-3.22688e-215
-5.05195e-215
-1.11267e-213
-2.34594e-213
-3.15455e-212
-8.84189e-212
-7.31251e-211
-2.69316e-210
-1.38384e-209
-6.61638e-209
-2.14305e-208
-1.31312e-207
-2.73098e-207
-2.11581e-206
-2.88886e-206
-2.78875e-205
-2.56502e-205
-3.03815e-204
-1.93346e-204
-2.77076e-203
-1.25021e-203
-2.1418e-202
-7.00661e-203
-1.41869e-201
-3.44e-202
-8.13906e-201
-1.49547e-201
-4.08964e-200
-5.81336e-201
-1.82006e-199
-2.03765e-200
-7.24805e-199
-6.48766e-200
-2.60484e-198
-1.88894e-199
-8.51153e-198
-5.06122e-199
-2.54585e-197
-1.25528e-198
-7.01521e-197
-2.89754e-198
-1.79153e-196
-6.25666e-198
-4.26391e-196
-1.26981e-197
-9.50799e-196
-2.43275e-197
-1.99617e-195
-4.41666e-197
-3.96353e-195
-7.62475e-197
-7.47278e-195
-1.25545e-196
-1.34267e-194
-1.97674e-196
-2.30637e-194
-2.98339e-196
-3.79828e-194
-4.32514e-196
-6.0128e-194
-6.03429e-196
-9.17148e-194
-8.11615e-196
-1.35089e-193
-1.05393e-195
-1.92554e-193
-1.32306e-195
-2.6612e-193
-1.60722e-195
-3.57281e-193
-1.89034e-195
-4.66743e-193
-2.15303e-195
-5.94149e-193
-2.37382e-195
-7.37928e-193
-2.53135e-195
-8.95176e-193
-2.6065e-195
-1.06174e-192
-2.58454e-195
-1.23238e-192
-2.4567e-195
-1.40121e-192
-2.21939e-195
-1.56202e-192
-1.8597e-195
-1.70729e-192
-1.24485e-195
-1.8123e-192
-1.47801e-196
-1.65572e-192
-2.6712e-206
-3.08614e-193
-1.26031e-202
1.55054e-202
-6.45312e-199
3.31509e-193
-6.2369e-190
2.36369e-192
-2.91587e-189
3.55679e-192
-3.27309e-189
4.36693e-192
-3.20776e-189
4.94662e-192
-3.02351e-189
5.29969e-192
-2.77302e-189
5.41998e-192
-2.47923e-189
5.32566e-192
-2.16437e-189
5.04771e-192
-1.84622e-189
4.6252e-192
-1.53855e-189
4.10206e-192
-1.25189e-189
3.52327e-192
-9.93804e-190
2.93047e-192
-7.68822e-190
2.35937e-192
-5.78894e-190
1.83729e-192
-4.23624e-190
1.38226e-192
-3.0077e-190
1.00336e-192
-2.06819e-190
7.01534e-193
-1.37452e-190
4.71587e-193
-8.80992e-191
3.04129e-193
-5.4325e-191
1.87713e-193
-3.21432e-191
1.1059e-193
-1.8197e-191
6.20046e-194
-9.82563e-192
3.29742e-194
-5.04261e-192
1.65709e-194
-2.45016e-192
7.83649e-195
-1.12226e-192
3.47099e-195
-4.82196e-193
1.43249e-195
-1.93313e-193
5.47804e-196
-7.1899e-194
1.92963e-196
-2.46596e-194
6.22154e-197
-7.7496e-195
1.82377e-197
-2.21649e-195
4.82478e-198
-5.7269e-196
1.14209e-198
-1.32512e-196
2.39429e-199
-2.71667e-197
4.39487e-200
-4.87614e-198
6.9833e-201
-7.57282e-199
9.49905e-202
-1.0061e-199
1.09326e-202
-1.1298e-200
1.05019e-203
-1.05673e-201
8.29986e-205
-8.10278e-203
5.3308e-206
-5.02368e-204
2.75589e-207
-2.48985e-205
1.13899e-208
-9.77126e-207
3.75445e-210
-3.01892e-208
9.90317e-212
-7.33694e-210
2.11013e-213
-1.40857e-211
3.687e-215
-2.15323e-213
5.3854e-217
-2.64371e-215
6.71865e-219
-2.61651e-217
7.31271e-221
-2.05605e-219
7.07564e-223
-1.18566e-221
6.17935e-225
-3.08203e-224
5.22357e-227
8.52648e-230
4.41806e-229
1.9678e-231
3.71273e-231
2.71733e-233
3.09996e-233
3.1723e-235
2.57175e-235
3.39571e-237
2.11992e-237
3.44225e-239
1.73638e-239
3.35852e-241
1.41322e-241
3.18335e-243
1.14294e-243
2.94837e-245
9.18471e-246
2.67867e-247
7.33311e-248
2.39353e-249
5.81557e-250
2.10724e-251
4.5794e-252
1.82994e-253
3.57828e-254
1.56839e-255
2.77214e-256
1.32679e-257
2.12682e-258
1.10744e-259
1.61357e-260
9.11281e-262
1.20841e-262
7.38368e-264
8.9149e-265
5.88155e-266
6.46365e-267
4.59705e-268
4.59391e-269
3.51791e-270
3.19176e-271
2.62942e-272
2.16144e-273
1.9146e-274
1.42227e-275
1.35439e-276
9.06444e-278
9.28096e-279
5.5764e-280
6.14192e-281
3.29972e-282
3.91277e-283
1.87103e-284
2.39146e-285
1.01258e-286
1.39727e-287
5.20776e-289
7.77432e-290
2.53339e-291
4.10196e-292
1.15967e-293
2.04306e-294
4.96628e-296
9.55701e-297
1.97667e-298
4.17482e-299
7.25696e-301
1.69202e-301
2.43579e-303
6.31489e-304
7.39579e-306
2.15122e-306
2.00523e-308
6.61886e-309
4.77661e-311
1.81574e-311
9.78776e-314
4.36969e-314
1.67656e-316
9.03278e-317
2.30363e-319
1.55863e-319
2.37152e-322
2.17389e-322
0
0
0
0
0
0
0
0
-1.4822e-323
0
-1.87103e-320
1.97626e-323
-1.81409e-317
1.69761e-320
-1.32151e-314
1.22943e-317
-7.7185e-312
7.1293e-315
-3.76698e-309
3.4497e-312
-1.58087e-306
1.43332e-309
-5.82635e-304
5.22253e-307
-1.91662e-301
1.69601e-304
-5.70047e-299
4.97242e-302
-1.5491e-296
1.32999e-299
-3.88012e-294
3.27383e-297
-9.02462e-292
7.47131e-295
-1.96157e-289
1.59083e-292
-4.00672e-287
3.17786e-290
-7.72881e-285
5.98454e-288
-1.41406e-282
1.06705e-285
-2.46353e-280
1.80828e-283
-4.10124e-278
2.92264e-281
-6.54549e-276
4.51937e-279
-1.00443e-273
6.70515e-277
-1.48602e-271
9.56969e-275
-2.12499e-269
1.31699e-272
-2.94393e-267
1.75151e-270
-3.95994e-265
2.25558e-268
-5.18241e-263
2.81792e-266
-6.61144e-261
3.421e-264
-8.23709e-259
4.04211e-262
-1.00396e-256
4.65482e-260
-1.19905e-254
5.23095e-258
-1.40546e-252
5.74266e-256
-1.61923e-250
6.16463e-254
-1.83627e-248
6.47563e-252
-2.05256e-246
6.65952e-250
-2.26448e-244
6.70615e-248
-2.46891e-242
6.61157e-246
-2.66347e-240
6.37704e-244
-2.84649e-238
6.00839e-242
-3.01715e-236
5.51515e-240
-3.17538e-234
4.90912e-238
-3.32181e-232
4.20308e-236
-3.45774e-230
3.40972e-234
-3.58499e-228
2.5408e-232
-3.70585e-226
1.60639e-230
-3.82301e-224
6.14196e-229
-3.76399e-222
-1.75531e-223
-3.28683e-220
-5.90287e-221
-2.51857e-218
-8.68641e-219
-1.67388e-216
-9.25089e-217
-9.53013e-215
-7.78096e-215
-4.58909e-213
-5.29679e-213
-1.84592e-211
-2.93299e-211
-6.13409e-210
-1.31801e-209
-1.66971e-208
-4.78476e-208
-3.70499e-207
-1.39799e-206
-6.69843e-206
-3.28407e-205
-9.90115e-205
-6.22019e-204
-1.2041e-203
-9.55753e-203
-1.21617e-202
-1.20118e-201
-1.03247e-201
-1.24856e-200
-7.45488e-201
-1.08806e-199
-4.62607e-200
-8.05294e-199
-2.49247e-199
-5.11724e-198
-1.17855e-198
-2.82143e-197
-4.94412e-198
-1.36492e-196
-1.85845e-197
-5.86016e-196
-6.31139e-197
-2.25613e-195
-1.95039e-196
-7.85474e-195
-5.52066e-196
-2.49081e-194
-1.44019e-195
-7.24205e-194
-3.48284e-195
-1.94274e-193
-7.85026e-195
-4.83697e-193
-1.65763e-194
-1.12399e-192
-3.29445e-194
-2.45063e-192
-6.18868e-194
-5.03775e-192
-1.103e-193
-9.80691e-192
-1.87143e-193
-1.81502e-191
-3.03158e-193
-3.20489e-191
-4.70102e-193
-5.41593e-191
-6.99465e-193
-8.78395e-191
-1.0007e-192
-1.37082e-190
-1.37917e-192
-2.06333e-190
-1.83422e-192
-3.0021e-190
-2.35725e-192
-4.23109e-190
-2.93107e-192
-5.78708e-190
-3.52926e-192
-7.69551e-190
-4.11726e-192
-9.9645e-190
-4.65469e-192
-1.25812e-189
-5.09786e-192
-1.55099e-189
-5.40431e-192
-1.86891e-189
-5.53657e-192
-2.20356e-189
-5.4661e-192
-2.54465e-189
-5.17656e-192
-2.88053e-189
-4.66241e-192
-3.19903e-189
-3.8988e-192
-3.48566e-189
-2.61102e-192
-3.692e-189
-3.16061e-193
-3.37447e-189
-7.26425e-203
-6.41345e-190
-3.32984e-199
2.09848e-199
-9.46039e-196
4.41664e-190
-8.58139e-187
3.19177e-189
-3.96477e-186
4.74767e-189
-4.35538e-186
5.76786e-189
-4.20508e-186
6.5054e-189
-3.9381e-186
6.96357e-189
-3.60562e-186
7.13608e-189
-3.22922e-186
7.03966e-189
-2.83009e-186
6.70744e-189
-2.42688e-186
6.18491e-189
-2.03538e-186
5.52517e-189
-1.66829e-186
4.78413e-189
-1.33521e-186
4.01483e-189
-1.04226e-186
3.26405e-189
-7.92517e-187
2.56882e-189
-5.86152e-187
1.95485e-189
-4.20978e-187
1.43662e-189
-2.93089e-187
1.01788e-189
-1.97401e-187
6.94064e-190
-1.28347e-187
4.54494e-190
-8.03665e-188
2.85146e-190
-4.83393e-188
1.70956e-190
-2.78515e-188
9.76604e-191
-1.53243e-188
5.29842e-191
-8.02431e-189
2.72e-191
-3.98348e-189
1.3158e-191
-1.86671e-189
5.9699e-192
-8.21721e-190
2.5273e-192
-3.37972e-190
9.92813e-193
-1.29148e-190
3.59801e-193
-4.55782e-191
1.19554e-193
-1.47638e-191
3.61858e-194
-4.36087e-192
9.9052e-195
-1.16617e-192
2.43148e-195
-2.79924e-193
5.29727e-196
-5.9663e-194
1.01243e-196
-1.1155e-194
1.67829e-197
-1.80811e-195
2.38679e-198
-2.51289e-196
2.87874e-199
-2.95941e-197
2.90366e-200
-2.9092e-198
2.41258e-201
-2.34768e-199
1.63019e-202
-1.53325e-200
8.86717e-204
-8.0083e-202
3.85186e-205
-3.30954e-203
1.33138e-206
-1.07449e-204
3.66923e-208
-2.7349e-206
8.1307e-210
-5.47436e-208
1.46935e-211
-8.67835e-210
2.20656e-213
-1.09843e-211
2.81371e-215
-1.11413e-213
3.11384e-217
-8.92662e-216
3.0501e-219
-5.23285e-218
2.68744e-221
-1.39848e-220
2.28655e-223
4.98268e-226
1.94671e-225
1.17159e-227
1.64655e-227
1.6327e-229
1.38362e-229
1.92055e-231
1.15516e-231
2.07023e-233
9.58234e-234
2.11276e-235
7.89815e-236
2.07497e-237
6.46873e-238
1.97956e-239
5.26448e-240
1.84528e-241
4.25716e-242
1.68725e-243
3.42027e-244
1.51727e-245
2.72943e-246
1.34426e-247
2.16261e-248
1.17469e-249
1.70024e-250
1.01306e-251
1.32519e-252
8.62256e-254
1.02278e-254
7.2404e-256
7.80499e-257
5.99311e-258
5.87867e-259
4.88392e-260
4.36114e-261
3.91219e-262
3.17922e-263
3.07451e-264
2.27158e-265
2.36532e-266
1.58644e-267
1.77713e-268
1.07979e-269
1.3006e-270
7.1406e-272
9.24639e-273
4.57317e-274
6.36719e-275
2.82699e-276
4.23402e-277
1.6808e-278
2.7102e-279
9.57569e-281
1.6643e-281
5.20658e-283
9.76979e-284
2.69027e-285
5.46125e-286
1.31481e-287
2.89494e-288
6.0465e-290
1.44857e-290
2.60138e-292
6.80753e-293
1.04018e-294
2.98751e-295
3.83648e-297
1.21641e-297
1.29366e-299
4.56081e-300
3.94607e-302
1.56086e-302
1.07485e-304
4.82466e-305
2.57221e-307
1.32967e-307
5.29514e-310
3.21476e-310
9.11222e-313
6.67622e-313
1.25786e-315
1.15735e-315
1.3053e-318
1.6071e-318
9.0414e-322
1.67488e-321
0
0
0
0
-1.97626e-323
0
-6.37987e-320
8.39912e-323
-9.22954e-317
1.18516e-319
-8.90961e-314
1.13902e-316
-6.46113e-311
8.21218e-314
-3.75668e-308
4.74057e-311
-1.82514e-305
2.28345e-308
-7.62482e-303
9.44448e-306
-2.79745e-300
3.42565e-303
-9.16084e-298
1.10744e-300
-2.71234e-295
3.23211e-298
-7.33754e-293
8.60592e-296
-1.8296e-290
2.10881e-293
-4.23626e-288
4.79084e-291
-9.16653e-286
1.01549e-288
-1.86397e-283
2.01943e-286
-3.57945e-281
3.78594e-284
-6.51973e-279
6.72015e-282
-1.13078e-276
1.13375e-279
-1.87415e-274
1.82427e-277
-2.97785e-272
2.80837e-275
-4.54943e-270
4.14813e-273
-6.70111e-268
5.89404e-271
-9.54038e-266
8.07557e-269
-1.31592e-263
1.06926e-266
-1.76235e-261
1.37092e-264
-2.29637e-259
1.70518e-262
-2.91689e-257
2.06106e-260
-3.6184e-255
2.42462e-258
-4.39123e-253
2.77997e-256
-5.22205e-251
3.11046e-254
-6.09484e-249
3.39993e-252
-6.99202e-247
3.63391e-250
-7.89559e-245
3.80064e-248
-8.78835e-243
3.89163e-246
-9.65488e-241
3.90193e-244
-1.04824e-238
3.83017e-242
-1.12611e-236
3.67817e-240
-1.19846e-234
3.45032e-238
-1.26501e-232
3.15298e-236
-1.32579e-230
2.79371e-234
-1.38112e-228
2.38058e-232
-1.43158e-226
1.92157e-230
-1.47796e-224
1.42395e-228
-1.52121e-222
8.93793e-227
-1.56242e-220
3.3577e-225
-1.52753e-218
-7.52809e-220
-1.32024e-216
-2.45954e-217
-9.97528e-215
-3.56562e-215
-6.50956e-213
-3.73344e-213
-3.62219e-211
-3.07537e-211
-1.6964e-209
-2.04086e-209
-6.60395e-208
-1.09625e-207
-2.11397e-206
-4.7552e-206
-5.52047e-205
-1.65865e-204
-1.17148e-203
-4.63801e-203
-2.02152e-202
-1.03967e-201
-2.84971e-201
-1.87593e-200
-3.30484e-200
-2.74472e-199
-3.18511e-199
-3.28532e-198
-2.58398e-198
-3.2549e-197
-1.78649e-197
-2.70818e-196
-1.06353e-196
-1.91797e-195
-5.50695e-196
-1.16864e-194
-2.50697e-195
-6.18949e-194
-1.01457e-194
-2.88148e-193
-3.68693e-194
-1.19301e-192
-1.21295e-193
-4.43902e-192
-3.63781e-193
-1.49681e-191
-1.00098e-192
-4.60573e-191
-2.54229e-192
-1.30159e-190
-5.99414e-192
-3.39882e-190
-1.31912e-191
-8.24909e-190
-2.72337e-191
-1.87126e-189
-5.29935e-191
-3.98839e-189
-9.75961e-191
-8.02623e-189
-1.70744e-190
-1.53162e-188
-2.84699e-190
-2.78223e-188
-4.53733e-190
-4.82759e-188
-6.9295e-190
-8.02574e-188
-1.01647e-189
-1.2819e-187
-1.4351e-189
-1.97217e-187
-1.95375e-189
-2.92937e-187
-2.56908e-189
-4.21008e-187
-3.2673e-189
-5.86655e-187
-4.02366e-189
-7.94028e-187
-4.80206e-189
-1.04572e-186
-5.55678e-189
-1.34206e-186
-6.23581e-189
-1.68073e-186
-6.78424e-189
-2.05666e-186
-7.14976e-189
-2.46176e-186
-7.28704e-189
-2.88544e-186
-7.16227e-189
-3.3149e-186
-6.75712e-189
-3.73581e-186
-6.06701e-189
-4.13325e-186
-5.06208e-189
-4.48961e-186
-3.39045e-189
-4.7445e-186
-4.18313e-190
-4.3365e-186
-1.22442e-199
-8.40102e-187
-5.56848e-196
2.26484e-196
-1.04515e-192
4.21712e-187
-8.30735e-184
3.06592e-186
-3.82344e-183
4.55372e-186
-4.16556e-183
5.51379e-186
-3.9927e-183
6.21001e-186
-3.72636e-183
6.65149e-186
-3.41037e-183
6.83445e-186
-3.0607e-183
6.76953e-186
-2.69246e-183
6.48367e-186
-2.3205e-183
6.01568e-186
-1.95806e-183
5.41229e-186
-1.6163e-183
4.72388e-186
-1.30393e-183
3.99936e-186
-1.02686e-183
3.28305e-186
-7.88392e-184
2.6111e-186
-5.8928e-184
2.00982e-186
-4.2809e-184
1.49531e-186
-3.01742e-184
1.07361e-186
-2.05949e-184
7.42562e-187
-1.35832e-184
4.9374e-187
-8.63679e-185
3.14883e-187
-5.28106e-185
1.92126e-187
-3.0969e-185
1.11834e-187
-1.73645e-185
6.19035e-188
-9.27823e-186
3.24667e-188
-4.70642e-186
1.60678e-188
-2.25674e-186
7.46854e-189
-1.01791e-186
3.24364e-189
-4.29586e-187
1.30911e-189
-1.68677e-187
4.88168e-190
-6.12623e-188
1.67191e-190
-2.04572e-188
5.22596e-191
-6.24157e-189
1.48054e-191
-1.728e-189
3.77015e-192
-4.30451e-190
8.53918e-193
-9.5424e-191
1.7e-193
-1.85921e-191
2.94115e-194
-3.14664e-192
4.37539e-195
-4.57716e-193
5.53435e-196
-5.65761e-194
5.86677e-197
-5.85086e-195
5.12986e-198
-4.97428e-196
3.65106e-199
-3.42638e-197
2.09269e-200
-1.88902e-198
9.57179e-202
-8.23655e-200
3.47616e-203
-2.81618e-201
1.00316e-204
-7.52539e-203
2.31713e-206
-1.57471e-204
4.34109e-208
-2.59611e-206
6.71742e-210
-3.39726e-208
8.77203e-212
-3.54145e-210
9.88489e-214
-2.90124e-212
9.81109e-216
-1.73428e-214
8.7241e-218
-4.80075e-217
7.46723e-220
2.00385e-222
6.39673e-222
4.82163e-224
5.44332e-224
6.78522e-226
4.60158e-226
8.04242e-228
3.8647e-228
8.72886e-230
3.22495e-230
8.96642e-232
2.67395e-232
8.86207e-234
2.20309e-234
8.5076e-236
1.80371e-236
7.9799e-238
1.46738e-238
7.34178e-240
1.18606e-240
6.64305e-242
9.5225e-243
5.922e-244
7.59091e-245
5.20699e-246
6.00419e-247
4.51815e-248
4.70806e-249
3.86911e-250
3.65541e-251
3.26855e-252
2.80599e-253
2.7216e-254
2.12574e-255
2.23088e-256
1.58601e-257
1.79727e-258
1.16265e-259
1.42038e-260
8.35281e-262
1.09876e-262
5.86485e-264
8.29989e-265
4.01288e-266
6.10647e-267
2.66747e-268
4.36386e-269
1.71709e-270
3.02039e-271
1.0668e-272
2.01862e-273
6.37429e-275
1.29857e-275
3.64943e-277
8.01375e-278
1.99402e-279
4.72733e-280
1.03534e-281
2.65545e-282
5.08456e-284
1.41446e-284
2.34958e-286
7.11198e-287
1.01574e-288
3.3584e-289
4.08109e-291
1.48096e-291
1.51246e-293
6.05902e-294
5.12456e-296
2.28271e-296
1.57068e-298
7.84985e-299
4.29888e-301
2.4381e-301
1.03372e-303
6.75174e-304
2.13825e-306
1.64025e-306
3.69738e-309
3.42282e-309
5.1285e-312
5.96224e-312
5.34761e-315
8.31917e-315
3.72538e-318
8.71396e-318
1.29939e-321
6.09183e-321
0
0
-8.24101e-320
1.33398e-322
-2.37479e-316
3.8836e-319
-3.41923e-313
5.57443e-316
-3.28492e-310
5.33174e-313
-2.3708e-307
3.82571e-310
-1.37187e-304
2.19787e-307
-6.63327e-302
1.05361e-304
-2.75795e-299
4.33699e-302
-1.00704e-296
1.56559e-299
-3.28213e-294
5.03711e-297
-9.67172e-292
1.46312e-294
-2.60408e-289
3.87726e-292
-6.46262e-287
9.45595e-290
-1.48933e-284
2.13809e-287
-3.20756e-282
4.51071e-285
-6.49199e-280
8.92804e-283
-1.24088e-277
1.66597e-280
-2.24971e-275
2.94338e-278
-3.8839e-273
4.94269e-276
-6.40756e-271
7.9163e-274
-1.01344e-268
1.21306e-271
-1.54125e-266
1.78355e-269
-2.2599e-264
2.52265e-267
-3.20292e-262
3.44061e-265
-4.39805e-260
4.53496e-263
-5.86383e-258
5.78818e-261
-7.6068e-256
7.16717e-259
-9.61969e-254
8.62433e-257
-1.1881e-251
1.01005e-254
-1.43558e-249
1.15296e-252
-1.6998e-247
1.28434e-250
-1.97538e-245
1.3977e-248
-2.25649e-243
1.48736e-246
-2.53729e-241
1.54883e-244
-2.81229e-239
1.57902e-242
-3.07666e-237
1.57635e-240
-3.32646e-235
1.54065e-238
-3.55879e-233
1.47306e-236
-3.77188e-231
1.37574e-234
-3.96502e-229
1.25159e-232
-4.13853e-227
1.10393e-230
-4.29361e-225
9.3624e-229
-4.43223e-223
7.51886e-227
-4.55692e-221
5.53926e-225
-4.67068e-219
3.44898e-223
-4.77685e-217
1.26754e-221
-4.63475e-215
-2.44364e-216
-3.96034e-213
-7.7049e-214
-2.94604e-211
-1.09704e-211
-1.88418e-209
-1.12632e-209
-1.02254e-207
-9.06229e-208
-4.647e-206
-5.84691e-206
-1.74662e-204
-3.03831e-204
-5.37296e-203
-1.26867e-202
-1.34304e-201
-4.24054e-201
-2.71992e-200
-1.13205e-199
-4.47173e-199
-2.41617e-198
-6.00316e-198
-4.14533e-197
-6.63108e-197
-5.76683e-196
-6.09185e-196
-6.56602e-195
-4.71891e-195
-6.19375e-194
-3.12203e-194
-4.9161e-193
-1.78218e-193
-3.32957e-192
-8.86447e-193
-1.9443e-191
-3.88347e-192
-9.88702e-191
-1.51559e-191
-4.42734e-190
-5.32303e-191
-1.76691e-189
-1.6961e-190
-6.352e-189
-4.93606e-190
-2.07396e-188
-1.32016e-189
-6.19145e-188
-3.26391e-189
-1.70041e-187
-7.50189e-189
-4.32166e-187
-1.61163e-188
-1.02231e-186
-3.25263e-188
-2.26342e-186
-6.19583e-188
-4.71515e-186
-1.11851e-187
-9.28725e-186
-1.9206e-187
-1.73698e-185
-3.14688e-187
-3.09649e-185
-4.93392e-187
-5.27922e-185
-7.42092e-187
-8.63355e-185
-1.07316e-186
-1.358e-184
-1.49521e-186
-2.05959e-184
-2.01072e-186
-3.01887e-184
-2.61407e-186
-4.28558e-184
-3.28975e-186
-5.90402e-184
-4.01225e-186
-7.90719e-184
-4.74602e-186
-1.03129e-183
-5.44742e-186
-1.31178e-183
-6.06808e-186
-1.62947e-183
-6.55797e-186
-1.97924e-183
-6.87048e-186
-2.35334e-183
-6.96603e-186
-2.74202e-183
-6.81586e-186
-3.13374e-183
-6.4056e-186
-3.51572e-183
-5.73341e-186
-3.87487e-183
-4.77305e-186
-4.19586e-183
-3.19726e-186
-4.42407e-183
-4.02162e-187
-4.04365e-183
-1.5027e-196
-7.98755e-184
-6.78558e-193
2.01105e-193
-9.28728e-190
3.15295e-184
-6.19689e-181
2.28733e-183
-2.83716e-180
3.39709e-183
-3.0819e-180
4.11001e-183
-2.94551e-180
4.63029e-183
-2.74628e-180
4.96849e-183
-2.51583e-180
5.12106e-183
-2.26376e-180
5.09401e-183
-1.99927e-180
4.90459e-183
-1.73183e-180
4.57879e-183
-1.47025e-180
4.14873e-183
-1.22216e-180
3.64985e-183
-9.93781e-181
3.11729e-183
-7.89503e-181
2.58372e-183
-6.12027e-181
2.07659e-183
-4.62292e-181
1.6167e-183
-3.39692e-181
1.21772e-183
-2.42406e-181
8.85971e-184
-1.67665e-181
6.21581e-184
-1.12176e-181
4.19674e-184
-7.24312e-182
2.72079e-184
-4.5026e-182
1.68958e-184
-2.68759e-182
1.00221e-184
-1.53585e-182
5.66064e-185
-8.37507e-183
3.03353e-185
-4.34167e-183
1.53615e-185
-2.13063e-183
7.31618e-186
-9.84916e-184
3.2603e-186
-4.26581e-184
1.35205e-186
-1.7214e-184
5.18855e-187
-6.43499e-185
1.83187e-187
-2.21556e-185
5.91441e-188
-6.98387e-186
1.73466e-188
-2.00235e-186
4.58405e-189
-5.17855e-187
1.07985e-189
-1.19457e-187
2.24023e-190
-2.4265e-188
4.04679e-191
-4.2899e-189
6.30076e-192
-6.53475e-190
8.36428e-193
-8.48426e-191
9.32725e-194
-9.23926e-192
8.59165e-195
-8.28403e-193
6.44883e-196
-6.02576e-194
3.90116e-197
-3.51232e-195
1.88236e-198
-1.6189e-196
7.19801e-200
-5.84199e-198
2.1803e-201
-1.64298e-199
5.26314e-203
-3.60381e-201
1.02501e-204
-6.19669e-203
1.63883e-206
-8.40895e-205
2.19732e-208
-9.03625e-207
2.52718e-210
-7.59157e-209
2.54679e-212
-4.64264e-211
2.28947e-214
-1.34005e-213
1.97348e-216
6.17711e-219
1.70287e-218
1.53089e-220
1.45945e-220
2.18023e-222
1.24251e-222
2.60797e-224
1.0509e-224
2.85388e-226
8.83096e-227
2.95439e-228
7.37368e-229
2.94209e-230
6.1181e-231
2.84542e-232
5.04452e-233
2.68861e-234
4.13314e-235
2.49179e-236
3.36469e-237
2.27118e-238
2.72084e-239
2.03951e-240
2.18457e-241
1.80639e-242
1.74037e-243
1.57886e-244
1.37446e-245
1.36186e-246
1.07475e-247
1.15874e-248
8.30827e-250
9.71697e-251
6.33794e-252
8.02076e-253
4.76115e-254
6.50638e-255
3.51383e-256
5.17691e-257
2.54121e-258
4.03146e-259
1.79597e-260
3.06533e-261
1.23678e-262
2.26986e-263
8.27355e-265
1.63247e-265
5.35935e-267
1.13702e-267
3.35042e-269
7.64656e-270
2.01432e-271
4.94949e-272
1.16033e-273
3.07325e-274
6.37874e-276
1.82403e-276
3.33217e-278
1.03085e-278
1.64637e-280
5.52438e-281
7.65407e-283
2.79455e-283
3.32896e-285
1.32765e-285
1.34563e-287
5.89006e-288
5.0172e-290
2.42441e-290
1.71025e-292
9.18931e-293
5.27374e-295
3.17924e-295
1.45217e-297
9.9345e-298
3.51314e-300
2.76787e-300
7.31121e-303
6.76516e-303
1.27192e-305
1.42033e-305
1.77499e-308
2.48918e-308
1.86211e-311
3.49437e-311
1.30515e-314
3.68254e-314
4.58689e-318
2.58919e-317
4.94066e-324
9.11551e-321
-2.63104e-316
5.23072e-319
-7.53605e-313
1.49566e-315
-1.07847e-309
2.13384e-312
-1.02984e-306
2.02858e-309
-7.38766e-304
1.44676e-306
-4.24907e-301
8.26136e-304
-2.04213e-298
3.9364e-301
-8.43955e-296
1.61057e-298
-3.06313e-293
5.77889e-296
-9.92344e-291
1.84811e-293
-2.90674e-288
5.33597e-291
-7.77963e-286
1.40557e-288