/*--------------------------------*- C++ -*----------------------------------*\
| =========                 |                                                 |
| \\      /  F ield         | OpenFOAM: The Open Source CFD Toolbox           |
|  \\    /   O peration     | Version:  2412                                  |
|   \\  /    A nd           | Website:  www.openfoam.com                      |
|    \\/     M anipulation  |                                                 |
\*---------------------------------------------------------------------------*/
FoamFile
{
    version     2.0;
    format      ascii;
    arch        "LSB;label=32;scalar=64";
    class       volScalarField;
    location    "1.08";
    object      p;
}
// * * * * * * * * * * * * * * * * * * * * * * * * * * * * * * * * * * * * * //

dimensions      [1 -1 -2 0 0 0 0];

internalField   nonuniform List<scalar> 
40000
(
0
-0.000100127
-0.000343176
-0.000755631
-0.00134108
-0.00209801
-0.0030253
-0.0041222
-0.00538723
-0.00681898
-0.00841631
-0.0101782
-0.0121036
-0.0141911
-0.016439
-0.018846
-0.0214101
-0.0241297
-0.0270028
-0.0300272
-0.0332008
-0.0365213
-0.0399862
-0.0435931
-0.0473394
-0.0512223
-0.055239
-0.0593864
-0.0636614
-0.0680607
-0.0725808
-0.0772183
-0.0819695
-0.0868304
-0.0917973
-0.0968659
-0.102032
-0.107292
-0.11264
-0.118073
-0.123585
-0.129172
-0.134829
-0.140551
-0.146333
-0.152168
-0.158053
-0.163982
-0.169948
-0.175947
-0.181973
-0.188019
-0.19408
-0.200149
-0.206221
-0.212289
-0.218348
-0.22439
-0.23041
-0.2364
-0.242355
-0.248268
-0.254133
-0.259943
-0.265691
-0.271371
-0.276978
-0.282503
-0.287941
-0.293285
-0.29853
-0.303668
-0.308693
-0.313601
-0.318383
-0.323036
-0.327552
-0.331926
-0.336153
-0.340228
-0.344145
-0.347899
-0.351486
-0.3549
-0.358138
-0.361194
-0.364066
-0.366749
-0.369239
-0.371535
-0.373632
-0.375527
-0.377219
-0.378705
-0.379982
-0.381049
-0.381905
-0.382548
-0.382978
-0.383194
-0.383196
-0.382984
-0.382558
-0.381919
-0.381068
-0.380005
-0.378732
-0.377251
-0.375564
-0.373672
-0.37158
-0.369288
-0.366801
-0.364122
-0.361254
-0.358201
-0.354967
-0.351556
-0.347973
-0.344222
-0.340308
-0.336236
-0.332011
-0.327639
-0.323125
-0.318475
-0.313695
-0.30879
-0.303766
-0.29863
-0.293388
-0.288045
-0.282609
-0.277086
-0.271481
-0.265802
-0.260055
-0.254247
-0.248384
-0.242472
-0.236518
-0.230529
-0.224511
-0.21847
-0.212412
-0.206345
-0.200274
-0.194206
-0.188147
-0.182102
-0.176078
-0.17008
-0.164115
-0.158187
-0.152303
-0.146469
-0.140689
-0.134968
-0.129313
-0.123727
-0.118216
-0.112785
-0.107438
-0.10218
-0.0970157
-0.0919491
-0.0869845
-0.0821256
-0.0773767
-0.0727413
-0.0682234
-0.0638263
-0.0595534
-0.055408
-0.0513932
-0.0475119
-0.0437671
-0.0401618
-0.0366984
-0.0333794
-0.0302071
-0.027184
-0.024312
-0.0215934
-0.0190301
-0.0166235
-0.0143754
-0.0122877
-0.0103615
-0.0085982
-0.00699894
-0.00556474
-0.00429655
-0.00319523
-0.00226166
-0.0014961
-0.0008992
-0.000472488
-0.000216865
-0.000122681
-3.92391
-3.924
-3.92424
-3.92465
-3.92524
-3.926
-3.92693
-3.92802
-3.92929
-3.93072
-3.93232
-3.93408
-3.93601
-3.9381
-3.94035
-3.94275
-3.94532
-3.94804
-3.95091
-3.95394
-3.95711
-3.96044
-3.9639
-3.96751
-3.97126
-3.97514
-3.97916
-3.98331
-3.98759
-3.99199
-3.99651
-4.00115
-4.00591
-4.01077
-4.01574
-4.02081
-4.02598
-4.03124
-4.03659
-4.04203
-4.04754
-4.05313
-4.05879
-4.06452
-4.0703
-4.07614
-4.08203
-4.08796
-4.09393
-4.09993
-4.10596
-4.11201
-4.11808
-4.12415
-4.13022
-4.1363
-4.14236
-4.1484
-4.15443
-4.16042
-4.16638
-4.1723
-4.17817
-4.18398
-4.18973
-4.19542
-4.20103
-4.20656
-4.212
-4.21734
-4.22259
-4.22773
-4.23276
-4.23767
-4.24246
-4.24712
-4.25164
-4.25601
-4.26024
-4.26432
-4.26824
-4.272
-4.27559
-4.27901
-4.28225
-4.2853
-4.28818
-4.29086
-4.29336
-4.29565
-4.29775
-4.29965
-4.30134
-4.30283
-4.30411
-4.30517
-4.30603
-4.30668
-4.30711
-4.30732
-4.30732
-4.30711
-4.30669
-4.30605
-4.30519
-4.30413
-4.30286
-4.30137
-4.29969
-4.29779
-4.2957
-4.2934
-4.29092
-4.28823
-4.28536
-4.28231
-4.27907
-4.27566
-4.27207
-4.26832
-4.2644
-4.26033
-4.2561
-4.25172
-4.24721
-4.24255
-4.23777
-4.23286
-4.22783
-4.22269
-4.21745
-4.2121
-4.20666
-4.20113
-4.19553
-4.18984
-4.18409
-4.17828
-4.17241
-4.1665
-4.16054
-4.15455
-4.14852
-4.14248
-4.13642
-4.13035
-4.12427
-4.1182
-4.11214
-4.10609
-4.10006
-4.09406
-4.08809
-4.08216
-4.07627
-4.07044
-4.06465
-4.05893
-4.05327
-4.04768
-4.04217
-4.03674
-4.03139
-4.02613
-4.02096
-4.01589
-4.01092
-4.00606
-4.00131
-3.99667
-3.99215
-3.98775
-3.98348
-3.97933
-3.97531
-3.97143
-3.96769
-3.96408
-3.96061
-3.95729
-3.95412
-3.9511
-3.94822
-3.9455
-3.94294
-3.94053
-3.93828
-3.93619
-3.93427
-3.9325
-3.9309
-3.92947
-3.9282
-3.9271
-3.92616
-3.9254
-3.9248
-3.92437
-3.92412
-3.92402
-7.84764
-7.84773
-7.84798
-7.8484
-7.84899
-7.84975
-7.85068
-7.85177
-7.85304
-7.85448
-7.85607
-7.85784
-7.85977
-7.86186
-7.86411
-7.86652
-7.86909
-7.87181
-7.87469
-7.87772
-7.8809
-7.88422
-7.88769
-7.8913
-7.89506
-7.89894
-7.90297
-7.90712
-7.9114
-7.91581
-7.92034
-7.92498
-7.92974
-7.93461
-7.93959
-7.94466
-7.94984
-7.95511
-7.96047
-7.96591
-7.97143
-7.97703
-7.98269
-7.98843
-7.99422
-8.00007
-8.00596
-8.0119
-8.01788
-8.02389
-8.02993
-8.03599
-8.04206
-8.04815
-8.05423
-8.06031
-8.06638
-8.07244
-8.07847
-8.08448
-8.09044
-8.09637
-8.10225
-8.10807
-8.11383
-8.11953
-8.12515
-8.13069
-8.13614
-8.1415
-8.14675
-8.15191
-8.15694
-8.16186
-8.16666
-8.17132
-8.17585
-8.18024
-8.18448
-8.18856
-8.19249
-8.19625
-8.19985
-8.20327
-8.20652
-8.20959
-8.21247
-8.21516
-8.21765
-8.21996
-8.22206
-8.22396
-8.22566
-8.22715
-8.22843
-8.2295
-8.23036
-8.231
-8.23143
-8.23165
-8.23165
-8.23144
-8.23101
-8.23037
-8.22952
-8.22845
-8.22717
-8.22569
-8.224
-8.2221
-8.22
-8.2177
-8.21521
-8.21252
-8.20965
-8.20658
-8.20334
-8.19992
-8.19633
-8.19257
-8.18864
-8.18456
-8.18032
-8.17594
-8.17141
-8.16675
-8.16196
-8.15704
-8.152
-8.14685
-8.1416
-8.13624
-8.13079
-8.12526
-8.11964
-8.11395
-8.10819
-8.10236
-8.09649
-8.09056
-8.08459
-8.07859
-8.07256
-8.06651
-8.06043
-8.05435
-8.04827
-8.04219
-8.03612
-8.03006
-8.02402
-8.01801
-8.01204
-8.0061
-8.0002
-7.99436
-7.98856
-7.98283
-7.97717
-7.97157
-7.96605
-7.96061
-7.95525
-7.94999
-7.94481
-7.93974
-7.93476
-7.9299
-7.92514
-7.9205
-7.91597
-7.91157
-7.90729
-7.90314
-7.89911
-7.89523
-7.89148
-7.88787
-7.8844
-7.88107
-7.8779
-7.87487
-7.87199
-7.86927
-7.8667
-7.86429
-7.86204
-7.85995
-7.85802
-7.85626
-7.85466
-7.85322
-7.85195
-7.85085
-7.84991
-7.84915
-7.84855
-7.84812
-7.84787
-7.84777
-11.7712
-11.7713
-11.7715
-11.772
-11.7726
-11.7733
-11.7743
-11.7754
-11.7766
-11.7781
-11.7797
-11.7814
-11.7834
-11.7855
-11.7877
-11.7901
-11.7927
-11.7954
-11.7983
-11.8013
-11.8045
-11.8079
-11.8113
-11.815
-11.8187
-11.8226
-11.8266
-11.8308
-11.8351
-11.8395
-11.844
-11.8487
-11.8535
-11.8583
-11.8633
-11.8684
-11.8736
-11.8789
-11.8843
-11.8897
-11.8952
-11.9009
-11.9065
-11.9123
-11.9181
-11.9239
-11.9299
-11.9358
-11.9418
-11.9478
-11.9539
-11.96
-11.966
-11.9721
-11.9782
-11.9843
-11.9904
-11.9965
-12.0025
-12.0086
-12.0146
-12.0205
-12.0264
-12.0322
-12.038
-12.0437
-12.0494
-12.0549
-12.0604
-12.0658
-12.071
-12.0762
-12.0812
-12.0862
-12.091
-12.0957
-12.1002
-12.1046
-12.1089
-12.113
-12.1169
-12.1207
-12.1243
-12.1277
-12.131
-12.1341
-12.1369
-12.1396
-12.1422
-12.1445
-12.1466
-12.1485
-12.1502
-12.1517
-12.153
-12.154
-12.1549
-12.1555
-12.156
-12.1562
-12.1562
-12.156
-12.1556
-12.1549
-12.1541
-12.153
-12.1517
-12.1502
-12.1485
-12.1466
-12.1445
-12.1422
-12.1397
-12.137
-12.1341
-12.131
-12.1278
-12.1244
-12.1208
-12.117
-12.113
-12.1089
-12.1047
-12.1003
-12.0958
-12.0911
-12.0863
-12.0813
-12.0763
-12.0711
-12.0659
-12.0605
-12.055
-12.0495
-12.0438
-12.0381
-12.0323
-12.0265
-12.0206
-12.0147
-12.0087
-12.0027
-11.9966
-11.9905
-11.9845
-11.9784
-11.9723
-11.9662
-11.9601
-11.954
-11.948
-11.9419
-11.9359
-11.93
-11.9241
-11.9182
-11.9124
-11.9067
-11.901
-11.8954
-11.8899
-11.8844
-11.879
-11.8738
-11.8686
-11.8635
-11.8585
-11.8536
-11.8489
-11.8442
-11.8397
-11.8353
-11.831
-11.8268
-11.8228
-11.8189
-11.8151
-11.8115
-11.808
-11.8047
-11.8015
-11.7985
-11.7956
-11.7929
-11.7903
-11.7879
-11.7856
-11.7835
-11.7816
-11.7798
-11.7782
-11.7768
-11.7755
-11.7744
-11.7735
-11.7727
-11.7721
-11.7717
-11.7714
-11.7713
-15.6946
-15.6947
-15.6949
-15.6954
-15.696
-15.6967
-15.6977
-15.6988
-15.7
-15.7015
-15.7031
-15.7049
-15.7068
-15.7089
-15.7112
-15.7136
-15.7162
-15.7189
-15.7218
-15.7248
-15.728
-15.7314
-15.7348
-15.7385
-15.7422
-15.7461
-15.7502
-15.7544
-15.7587
-15.7631
-15.7676
-15.7723
-15.7771
-15.782
-15.787
-15.7921
-15.7973
-15.8026
-15.808
-15.8134
-15.819
-15.8246
-15.8303
-15.8361
-15.8419
-15.8478
-15.8537
-15.8597
-15.8657
-15.8717
-15.8778
-15.8839
-15.89
-15.8961
-15.9023
-15.9084
-15.9145
-15.9206
-15.9266
-15.9327
-15.9387
-15.9447
-15.9506
-15.9564
-15.9622
-15.968
-15.9736
-15.9792
-15.9847
-15.9901
-15.9954
-16.0006
-16.0057
-16.0106
-16.0155
-16.0202
-16.0247
-16.0291
-16.0334
-16.0375
-16.0415
-16.0453
-16.0489
-16.0524
-16.0556
-16.0587
-16.0616
-16.0643
-16.0669
-16.0692
-16.0713
-16.0732
-16.0749
-16.0764
-16.0777
-16.0788
-16.0797
-16.0803
-16.0807
-16.081
-16.081
-16.0807
-16.0803
-16.0797
-16.0788
-16.0777
-16.0764
-16.075
-16.0732
-16.0713
-16.0692
-16.0669
-16.0644
-16.0617
-16.0588
-16.0557
-16.0524
-16.049
-16.0454
-16.0416
-16.0376
-16.0335
-16.0292
-16.0248
-16.0202
-16.0155
-16.0107
-16.0058
-16.0007
-15.9955
-15.9902
-15.9848
-15.9793
-15.9737
-15.9681
-15.9624
-15.9566
-15.9507
-15.9448
-15.9388
-15.9328
-15.9268
-15.9207
-15.9146
-15.9085
-15.9024
-15.8963
-15.8901
-15.884
-15.8779
-15.8719
-15.8658
-15.8598
-15.8538
-15.8479
-15.842
-15.8362
-15.8304
-15.8247
-15.8191
-15.8136
-15.8081
-15.8027
-15.7974
-15.7922
-15.7871
-15.7821
-15.7772
-15.7725
-15.7678
-15.7632
-15.7588
-15.7545
-15.7504
-15.7463
-15.7424
-15.7386
-15.735
-15.7315
-15.7282
-15.725
-15.722
-15.7191
-15.7163
-15.7138
-15.7113
-15.7091
-15.707
-15.705
-15.7033
-15.7017
-15.7002
-15.699
-15.6978
-15.6969
-15.6961
-15.6955
-15.6951
-15.6949
-15.6948
-19.6178
-19.6179
-19.6182
-19.6186
-19.6192
-19.62
-19.6209
-19.622
-19.6233
-19.6247
-19.6264
-19.6281
-19.6301
-19.6322
-19.6344
-19.6369
-19.6395
-19.6422
-19.6451
-19.6482
-19.6514
-19.6547
-19.6582
-19.6618
-19.6656
-19.6695
-19.6736
-19.6778
-19.6821
-19.6865
-19.6911
-19.6958
-19.7006
-19.7055
-19.7105
-19.7156
-19.7209
-19.7262
-19.7316
-19.7371
-19.7426
-19.7483
-19.754
-19.7598
-19.7656
-19.7715
-19.7775
-19.7835
-19.7895
-19.7956
-19.8017
-19.8078
-19.814
-19.8201
-19.8263
-19.8324
-19.8386
-19.8447
-19.8508
-19.8569
-19.8629
-19.8689
-19.8748
-19.8807
-19.8866
-19.8923
-19.898
-19.9036
-19.9091
-19.9146
-19.9199
-19.9251
-19.9302
-19.9352
-19.9401
-19.9448
-19.9494
-19.9538
-19.9581
-19.9622
-19.9662
-19.97
-19.9737
-19.9772
-19.9805
-19.9836
-19.9865
-19.9892
-19.9917
-19.9941
-19.9962
-19.9981
-19.9999
-20.0014
-20.0027
-20.0038
-20.0046
-20.0053
-20.0057
-20.0059
-20.0059
-20.0057
-20.0053
-20.0046
-20.0038
-20.0027
-20.0014
-19.9999
-19.9982
-19.9963
-19.9941
-19.9918
-19.9893
-19.9865
-19.9836
-19.9805
-19.9772
-19.9738
-19.9701
-19.9663
-19.9623
-19.9582
-19.9539
-19.9495
-19.9449
-19.9401
-19.9353
-19.9303
-19.9252
-19.92
-19.9147
-19.9092
-19.9037
-19.8981
-19.8924
-19.8867
-19.8808
-19.8749
-19.869
-19.863
-19.857
-19.8509
-19.8448
-19.8387
-19.8325
-19.8264
-19.8202
-19.8141
-19.808
-19.8018
-19.7957
-19.7897
-19.7836
-19.7776
-19.7717
-19.7658
-19.7599
-19.7541
-19.7484
-19.7428
-19.7372
-19.7317
-19.7263
-19.721
-19.7158
-19.7107
-19.7057
-19.7007
-19.6959
-19.6913
-19.6867
-19.6823
-19.6779
-19.6738
-19.6697
-19.6658
-19.662
-19.6584
-19.6549
-19.6515
-19.6483
-19.6453
-19.6424
-19.6396
-19.6371
-19.6346
-19.6324
-19.6303
-19.6283
-19.6265
-19.6249
-19.6235
-19.6222
-19.6211
-19.6201
-19.6194
-19.6188
-19.6183
-19.6181
-19.618
-23.5409
-23.541
-23.5412
-23.5417
-23.5423
-23.543
-23.544
-23.5451
-23.5464
-23.5478
-23.5495
-23.5512
-23.5532
-23.5553
-23.5576
-23.56
-23.5626
-23.5654
-23.5683
-23.5713
-23.5745
-23.5779
-23.5814
-23.5851
-23.5889
-23.5928
-23.5969
-23.6011
-23.6054
-23.6099
-23.6145
-23.6192
-23.624
-23.6289
-23.634
-23.6391
-23.6443
-23.6497
-23.6551
-23.6606
-23.6662
-23.6719
-23.6777
-23.6835
-23.6893
-23.6953
-23.7013
-23.7073
-23.7134
-23.7195
-23.7256
-23.7318
-23.7379
-23.7441
-23.7503
-23.7565
-23.7626
-23.7688
-23.7749
-23.781
-23.7871
-23.7932
-23.7991
-23.8051
-23.8109
-23.8167
-23.8225
-23.8281
-23.8337
-23.8391
-23.8445
-23.8497
-23.8549
-23.8599
-23.8648
-23.8695
-23.8742
-23.8786
-23.883
-23.8871
-23.8911
-23.895
-23.8987
-23.9022
-23.9055
-23.9086
-23.9115
-23.9143
-23.9168
-23.9192
-23.9213
-23.9233
-23.925
-23.9265
-23.9279
-23.929
-23.9298
-23.9305
-23.9309
-23.9312
-23.9312
-23.9309
-23.9305
-23.9298
-23.929
-23.9279
-23.9266
-23.9251
-23.9233
-23.9214
-23.9192
-23.9169
-23.9143
-23.9116
-23.9087
-23.9055
-23.9022
-23.8987
-23.8951
-23.8912
-23.8872
-23.883
-23.8787
-23.8742
-23.8696
-23.8649
-23.86
-23.855
-23.8498
-23.8446
-23.8392
-23.8338
-23.8282
-23.8226
-23.8168
-23.811
-23.8052
-23.7993
-23.7933
-23.7872
-23.7812
-23.7751
-23.7689
-23.7628
-23.7566
-23.7504
-23.7442
-23.7381
-23.7319
-23.7257
-23.7196
-23.7135
-23.7074
-23.7014
-23.6954
-23.6895
-23.6836
-23.6778
-23.672
-23.6664
-23.6608
-23.6553
-23.6498
-23.6445
-23.6392
-23.6341
-23.6291
-23.6241
-23.6193
-23.6146
-23.61
-23.6056
-23.6012
-23.597
-23.593
-23.589
-23.5852
-23.5816
-23.5781
-23.5747
-23.5715
-23.5684
-23.5655
-23.5628
-23.5602
-23.5578
-23.5555
-23.5534
-23.5514
-23.5496
-23.548
-23.5466
-23.5453
-23.5442
-23.5432
-23.5425
-23.5418
-23.5414
-23.5412
-23.5411
-27.4638
-27.4639
-27.4641
-27.4646
-27.4652
-27.466
-27.4669
-27.468
-27.4693
-27.4708
-27.4724
-27.4742
-27.4761
-27.4783
-27.4805
-27.483
-27.4856
-27.4884
-27.4913
-27.4944
-27.4976
-27.501
-27.5045
-27.5082
-27.512
-27.5159
-27.52
-27.5243
-27.5286
-27.5331
-27.5377
-27.5424
-27.5473
-27.5522
-27.5573
-27.5625
-27.5677
-27.5731
-27.5786
-27.5841
-27.5897
-27.5954
-27.6012
-27.6071
-27.613
-27.619
-27.625
-27.631
-27.6371
-27.6433
-27.6495
-27.6557
-27.6619
-27.6681
-27.6743
-27.6805
-27.6867
-27.693
-27.6991
-27.7053
-27.7114
-27.7175
-27.7235
-27.7295
-27.7354
-27.7412
-27.747
-27.7527
-27.7583
-27.7638
-27.7692
-27.7745
-27.7797
-27.7847
-27.7896
-27.7944
-27.7991
-27.8036
-27.808
-27.8122
-27.8162
-27.8201
-27.8238
-27.8273
-27.8307
-27.8338
-27.8368
-27.8396
-27.8421
-27.8445
-27.8467
-27.8486
-27.8504
-27.8519
-27.8533
-27.8544
-27.8552
-27.8559
-27.8564
-27.8566
-27.8566
-27.8564
-27.8559
-27.8553
-27.8544
-27.8533
-27.852
-27.8504
-27.8487
-27.8467
-27.8446
-27.8422
-27.8396
-27.8369
-27.8339
-27.8307
-27.8274
-27.8239
-27.8202
-27.8163
-27.8123
-27.8081
-27.8037
-27.7992
-27.7945
-27.7897
-27.7848
-27.7797
-27.7746
-27.7693
-27.7639
-27.7584
-27.7528
-27.7471
-27.7413
-27.7355
-27.7296
-27.7236
-27.7176
-27.7115
-27.7054
-27.6992
-27.6931
-27.6869
-27.6807
-27.6744
-27.6682
-27.662
-27.6558
-27.6496
-27.6434
-27.6373
-27.6312
-27.6251
-27.6191
-27.6131
-27.6072
-27.6014
-27.5956
-27.5899
-27.5843
-27.5787
-27.5732
-27.5679
-27.5626
-27.5574
-27.5524
-27.5474
-27.5426
-27.5379
-27.5333
-27.5288
-27.5244
-27.5202
-27.5161
-27.5122
-27.5083
-27.5047
-27.5011
-27.4978
-27.4945
-27.4915
-27.4885
-27.4858
-27.4832
-27.4807
-27.4784
-27.4763
-27.4744
-27.4726
-27.4709
-27.4695
-27.4682
-27.4671
-27.4661
-27.4654
-27.4648
-27.4643
-27.4641
-27.464
-31.3865
-31.3866
-31.3869
-31.3873
-31.3879
-31.3887
-31.3896
-31.3908
-31.3921
-31.3935
-31.3952
-31.397
-31.3989
-31.4011
-31.4034
-31.4058
-31.4084
-31.4112
-31.4142
-31.4172
-31.4205
-31.4239
-31.4274
-31.4311
-31.435
-31.4389
-31.443
-31.4473
-31.4517
-31.4562
-31.4608
-31.4656
-31.4704
-31.4754
-31.4805
-31.4857
-31.491
-31.4964
-31.5019
-31.5075
-31.5132
-31.5189
-31.5247
-31.5306
-31.5366
-31.5426
-31.5486
-31.5548
-31.5609
-31.5671
-31.5733
-31.5795
-31.5858
-31.5921
-31.5983
-31.6046
-31.6109
-31.6171
-31.6233
-31.6295
-31.6357
-31.6418
-31.6479
-31.6539
-31.6599
-31.6658
-31.6716
-31.6773
-31.683
-31.6885
-31.694
-31.6993
-31.7046
-31.7097
-31.7146
-31.7195
-31.7242
-31.7287
-31.7331
-31.7374
-31.7415
-31.7454
-31.7491
-31.7527
-31.7561
-31.7593
-31.7623
-31.7651
-31.7677
-31.7701
-31.7722
-31.7742
-31.776
-31.7775
-31.7789
-31.78
-31.7809
-31.7816
-31.782
-31.7822
-31.7822
-31.782
-31.7816
-31.7809
-31.78
-31.7789
-31.7776
-31.776
-31.7743
-31.7723
-31.7701
-31.7677
-31.7651
-31.7623
-31.7593
-31.7561
-31.7528
-31.7492
-31.7455
-31.7415
-31.7375
-31.7332
-31.7288
-31.7243
-31.7196
-31.7147
-31.7098
-31.7047
-31.6994
-31.6941
-31.6886
-31.6831
-31.6774
-31.6717
-31.6659
-31.66
-31.654
-31.648
-31.642
-31.6358
-31.6297
-31.6235
-31.6172
-31.611
-31.6047
-31.5985
-31.5922
-31.5859
-31.5797
-31.5734
-31.5672
-31.561
-31.5549
-31.5488
-31.5427
-31.5367
-31.5308
-31.5249
-31.5191
-31.5133
-31.5076
-31.5021
-31.4966
-31.4912
-31.4859
-31.4807
-31.4756
-31.4706
-31.4657
-31.461
-31.4563
-31.4518
-31.4475
-31.4432
-31.4391
-31.4351
-31.4313
-31.4276
-31.4241
-31.4207
-31.4174
-31.4143
-31.4114
-31.4086
-31.406
-31.4035
-31.4012
-31.3991
-31.3971
-31.3953
-31.3937
-31.3922
-31.3909
-31.3898
-31.3889
-31.3881
-31.3875
-31.387
-31.3868
-31.3867
-35.3091
-35.3092
-35.3094
-35.3099
-35.3105
-35.3113
-35.3122
-35.3133
-35.3146
-35.3161
-35.3178
-35.3196
-35.3215
-35.3237
-35.326
-35.3285
-35.3311
-35.3339
-35.3369
-35.34
-35.3432
-35.3467
-35.3502
-35.3539
-35.3578
-35.3618
-35.3659
-35.3702
-35.3746
-35.3791
-35.3838
-35.3886
-35.3935
-35.3985
-35.4036
-35.4089
-35.4142
-35.4197
-35.4252
-35.4308
-35.4365
-35.4423
-35.4482
-35.4541
-35.4601
-35.4662
-35.4723
-35.4784
-35.4846
-35.4909
-35.4971
-35.5034
-35.5097
-35.516
-35.5224
-35.5287
-35.535
-35.5413
-35.5476
-35.5538
-35.5601
-35.5662
-35.5724
-35.5785
-35.5845
-35.5904
-35.5963
-35.6021
-35.6078
-35.6134
-35.6189
-35.6243
-35.6296
-35.6347
-35.6398
-35.6447
-35.6494
-35.654
-35.6585
-35.6628
-35.6669
-35.6708
-35.6746
-35.6782
-35.6816
-35.6849
-35.6879
-35.6907
-35.6934
-35.6958
-35.698
-35.7
-35.7018
-35.7034
-35.7047
-35.7058
-35.7068
-35.7074
-35.7079
-35.7081
-35.7081
-35.7079
-35.7074
-35.7068
-35.7059
-35.7047
-35.7034
-35.7018
-35.7
-35.698
-35.6958
-35.6934
-35.6908
-35.688
-35.6849
-35.6817
-35.6783
-35.6747
-35.6709
-35.667
-35.6628
-35.6586
-35.6541
-35.6495
-35.6448
-35.6399
-35.6348
-35.6297
-35.6244
-35.619
-35.6135
-35.6079
-35.6022
-35.5964
-35.5905
-35.5846
-35.5786
-35.5725
-35.5664
-35.5602
-35.554
-35.5477
-35.5414
-35.5351
-35.5288
-35.5225
-35.5162
-35.5098
-35.5035
-35.4972
-35.491
-35.4847
-35.4786
-35.4724
-35.4663
-35.4602
-35.4542
-35.4483
-35.4424
-35.4367
-35.431
-35.4253
-35.4198
-35.4144
-35.409
-35.4038
-35.3987
-35.3937
-35.3887
-35.384
-35.3793
-35.3748
-35.3704
-35.3661
-35.362
-35.358
-35.3541
-35.3504
-35.3468
-35.3434
-35.3401
-35.337
-35.3341
-35.3313
-35.3287
-35.3262
-35.3239
-35.3217
-35.3198
-35.3179
-35.3163
-35.3148
-35.3135
-35.3124
-35.3114
-35.3107
-35.31
-35.3096
-35.3093
-35.3092
-39.2314
-39.2315
-39.2318
-39.2322
-39.2329
-39.2337
-39.2346
-39.2358
-39.2371
-39.2385
-39.2402
-39.242
-39.244
-39.2462
-39.2485
-39.251
-39.2536
-39.2564
-39.2594
-39.2625
-39.2658
-39.2693
-39.2729
-39.2766
-39.2805
-39.2845
-39.2887
-39.293
-39.2974
-39.302
-39.3067
-39.3115
-39.3164
-39.3215
-39.3267
-39.3319
-39.3373
-39.3428
-39.3484
-39.354
-39.3598
-39.3656
-39.3715
-39.3775
-39.3836
-39.3897
-39.3958
-39.402
-39.4083
-39.4146
-39.4209
-39.4273
-39.4336
-39.44
-39.4464
-39.4528
-39.4592
-39.4655
-39.4719
-39.4782
-39.4845
-39.4907
-39.4969
-39.5031
-39.5091
-39.5151
-39.5211
-39.5269
-39.5327
-39.5384
-39.5439
-39.5494
-39.5547
-39.56
-39.565
-39.57
-39.5748
-39.5795
-39.584
-39.5883
-39.5925
-39.5965
-39.6003
-39.604
-39.6074
-39.6107
-39.6138
-39.6166
-39.6193
-39.6217
-39.624
-39.626
-39.6278
-39.6294
-39.6308
-39.6319
-39.6328
-39.6335
-39.634
-39.6342
-39.6342
-39.634
-39.6335
-39.6329
-39.6319
-39.6308
-39.6294
-39.6279
-39.6261
-39.624
-39.6218
-39.6193
-39.6167
-39.6138
-39.6107
-39.6075
-39.604
-39.6004
-39.5966
-39.5926
-39.5884
-39.584
-39.5795
-39.5749
-39.5701
-39.5651
-39.56
-39.5548
-39.5495
-39.544
-39.5385
-39.5328
-39.527
-39.5212
-39.5153
-39.5092
-39.5032
-39.497
-39.4908
-39.4846
-39.4783
-39.472
-39.4656
-39.4593
-39.4529
-39.4465
-39.4401
-39.4338
-39.4274
-39.421
-39.4147
-39.4084
-39.4022
-39.396
-39.3898
-39.3837
-39.3777
-39.3717
-39.3658
-39.3599
-39.3542
-39.3485
-39.3429
-39.3375
-39.3321
-39.3268
-39.3216
-39.3166
-39.3117
-39.3068
-39.3021
-39.2976
-39.2931
-39.2888
-39.2847
-39.2807
-39.2768
-39.273
-39.2694
-39.266
-39.2627
-39.2596
-39.2566
-39.2538
-39.2512
-39.2487
-39.2463
-39.2442
-39.2422
-39.2404
-39.2387
-39.2372
-39.2359
-39.2348
-39.2338
-39.233
-39.2324
-39.232
-39.2317
-39.2316
-43.1536
-43.1538
-43.154
-43.1545
-43.1551
-43.1559
-43.1568
-43.158
-43.1593
-43.1608
-43.1625
-43.1643
-43.1663
-43.1685
-43.1708
-43.1733
-43.176
-43.1788
-43.1818
-43.185
-43.1883
-43.1917
-43.1954
-43.1991
-43.203
-43.2071
-43.2113
-43.2156
-43.2201
-43.2247
-43.2294
-43.2343
-43.2393
-43.2444
-43.2496
-43.2549
-43.2603
-43.2658
-43.2715
-43.2772
-43.283
-43.2889
-43.2948
-43.3009
-43.307
-43.3131
-43.3194
-43.3256
-43.3319
-43.3383
-43.3447
-43.3511
-43.3575
-43.364
-43.3704
-43.3769
-43.3833
-43.3897
-43.3962
-43.4026
-43.4089
-43.4152
-43.4215
-43.4277
-43.4339
-43.4399
-43.4459
-43.4519
-43.4577
-43.4634
-43.4691
-43.4746
-43.48
-43.4853
-43.4904
-43.4955
-43.5003
-43.5051
-43.5096
-43.514
-43.5182
-43.5223
-43.5262
-43.5299
-43.5334
-43.5367
-43.5398
-43.5427
-43.5454
-43.5479
-43.5502
-43.5522
-43.5541
-43.5557
-43.5571
-43.5582
-43.5592
-43.5599
-43.5603
-43.5606
-43.5606
-43.5603
-43.5599
-43.5592
-43.5583
-43.5571
-43.5557
-43.5541
-43.5523
-43.5502
-43.548
-43.5455
-43.5428
-43.5399
-43.5368
-43.5334
-43.5299
-43.5263
-43.5224
-43.5183
-43.5141
-43.5097
-43.5051
-43.5004
-43.4955
-43.4905
-43.4854
-43.4801
-43.4747
-43.4692
-43.4635
-43.4578
-43.452
-43.4461
-43.44
-43.434
-43.4278
-43.4216
-43.4153
-43.409
-43.4027
-43.3963
-43.3899
-43.3834
-43.377
-43.3705
-43.3641
-43.3576
-43.3512
-43.3448
-43.3384
-43.3321
-43.3258
-43.3195
-43.3133
-43.3071
-43.301
-43.295
-43.289
-43.2831
-43.2773
-43.2716
-43.266
-43.2605
-43.255
-43.2497
-43.2445
-43.2394
-43.2344
-43.2296
-43.2249
-43.2203
-43.2158
-43.2115
-43.2073
-43.2032
-43.1993
-43.1955
-43.1919
-43.1885
-43.1851
-43.182
-43.179
-43.1762
-43.1735
-43.171
-43.1687
-43.1665
-43.1645
-43.1626
-43.161
-43.1595
-43.1582
-43.157
-43.1561
-43.1553
-43.1546
-43.1542
-43.1539
-43.1538
-47.0757
-47.0758
-47.0761
-47.0765
-47.0771
-47.0779
-47.0789
-47.0801
-47.0814
-47.0829
-47.0846
-47.0864
-47.0884
-47.0906
-47.093
-47.0955
-47.0982
-47.101
-47.1041
-47.1072
-47.1106
-47.1141
-47.1177
-47.1215
-47.1254
-47.1295
-47.1338
-47.1381
-47.1426
-47.1473
-47.1521
-47.157
-47.162
-47.1671
-47.1724
-47.1777
-47.1832
-47.1888
-47.1945
-47.2002
-47.2061
-47.212
-47.2181
-47.2242
-47.2303
-47.2365
-47.2428
-47.2492
-47.2555
-47.262
-47.2684
-47.2749
-47.2814
-47.2879
-47.2944
-47.301
-47.3075
-47.314
-47.3205
-47.327
-47.3334
-47.3398
-47.3461
-47.3524
-47.3586
-47.3648
-47.3709
-47.3769
-47.3828
-47.3886
-47.3943
-47.3999
-47.4054
-47.4108
-47.416
-47.4211
-47.426
-47.4308
-47.4354
-47.4399
-47.4442
-47.4483
-47.4522
-47.456
-47.4596
-47.4629
-47.4661
-47.469
-47.4718
-47.4743
-47.4766
-47.4787
-47.4806
-47.4822
-47.4836
-47.4848
-47.4857
-47.4864
-47.4869
-47.4871
-47.4871
-47.4869
-47.4864
-47.4857
-47.4848
-47.4836
-47.4822
-47.4806
-47.4787
-47.4766
-47.4743
-47.4718
-47.4691
-47.4661
-47.463
-47.4596
-47.4561
-47.4523
-47.4484
-47.4443
-47.44
-47.4355
-47.4309
-47.4261
-47.4212
-47.4161
-47.4109
-47.4055
-47.4
-47.3944
-47.3887
-47.3829
-47.377
-47.371
-47.3649
-47.3588
-47.3525
-47.3462
-47.3399
-47.3335
-47.3271
-47.3206
-47.3141
-47.3076
-47.3011
-47.2946
-47.288
-47.2815
-47.275
-47.2685
-47.2621
-47.2557
-47.2493
-47.243
-47.2367
-47.2305
-47.2243
-47.2182
-47.2122
-47.2062
-47.2004
-47.1946
-47.1889
-47.1834
-47.1779
-47.1725
-47.1673
-47.1621
-47.1571
-47.1522
-47.1474
-47.1428
-47.1383
-47.1339
-47.1297
-47.1256
-47.1217
-47.1179
-47.1142
-47.1107
-47.1074
-47.1042
-47.1012
-47.0984
-47.0957
-47.0932
-47.0908
-47.0886
-47.0866
-47.0847
-47.0831
-47.0816
-47.0802
-47.0791
-47.0781
-47.0773
-47.0767
-47.0762
-47.076
-47.0759
-50.9975
-50.9976
-50.9979
-50.9984
-50.999
-50.9998
-51.0008
-51.002
-51.0033
-51.0048
-51.0065
-51.0084
-51.0104
-51.0126
-51.015
-51.0175
-51.0202
-51.0231
-51.0261
-51.0293
-51.0327
-51.0362
-51.0399
-51.0437
-51.0477
-51.0518
-51.0561
-51.0605
-51.0651
-51.0697
-51.0746
-51.0795
-51.0846
-51.0898
-51.0951
-51.1005
-51.106
-51.1117
-51.1174
-51.1232
-51.1291
-51.1351
-51.1412
-51.1474
-51.1536
-51.1599
-51.1663
-51.1727
-51.1791
-51.1856
-51.1921
-51.1987
-51.2053
-51.2119
-51.2185
-51.2251
-51.2317
-51.2383
-51.2448
-51.2514
-51.2579
-51.2644
-51.2708
-51.2772
-51.2835
-51.2897
-51.2959
-51.302
-51.308
-51.3139
-51.3197
-51.3254
-51.3309
-51.3364
-51.3417
-51.3468
-51.3519
-51.3567
-51.3614
-51.3659
-51.3703
-51.3745
-51.3785
-51.3823
-51.3859
-51.3893
-51.3925
-51.3955
-51.3983
-51.4009
-51.4032
-51.4054
-51.4073
-51.4089
-51.4104
-51.4116
-51.4125
-51.4132
-51.4137
-51.414
-51.414
-51.4137
-51.4132
-51.4125
-51.4116
-51.4104
-51.409
-51.4073
-51.4054
-51.4033
-51.4009
-51.3984
-51.3956
-51.3926
-51.3894
-51.386
-51.3824
-51.3786
-51.3746
-51.3704
-51.366
-51.3615
-51.3568
-51.3519
-51.3469
-51.3418
-51.3365
-51.331
-51.3255
-51.3198
-51.314
-51.3081
-51.3021
-51.296
-51.2899
-51.2836
-51.2773
-51.2709
-51.2645
-51.258
-51.2515
-51.245
-51.2384
-51.2318
-51.2252
-51.2186
-51.212
-51.2054
-51.1988
-51.1923
-51.1857
-51.1792
-51.1728
-51.1664
-51.16
-51.1537
-51.1475
-51.1414
-51.1353
-51.1293
-51.1234
-51.1175
-51.1118
-51.1062
-51.1006
-51.0952
-51.0899
-51.0847
-51.0797
-51.0747
-51.0699
-51.0652
-51.0607
-51.0563
-51.052
-51.0479
-51.0439
-51.0401
-51.0364
-51.0329
-51.0295
-51.0263
-51.0233
-51.0204
-51.0177
-51.0152
-51.0128
-51.0106
-51.0085
-51.0067
-51.005
-51.0035
-51.0021
-51.001
-51
-50.9992
-50.9986
-50.9981
-50.9978
-50.9977
-54.9192
-54.9193
-54.9196
-54.9201
-54.9207
-54.9215
-54.9225
-54.9237
-54.925
-54.9265
-54.9282
-54.9301
-54.9322
-54.9344
-54.9368
-54.9394
-54.9421
-54.945
-54.9481
-54.9513
-54.9547
-54.9582
-54.962
-54.9658
-54.9698
-54.974
-54.9783
-54.9828
-54.9873
-54.9921
-54.9969
-55.0019
-55.007
-55.0123
-55.0177
-55.0231
-55.0287
-55.0344
-55.0402
-55.0461
-55.0521
-55.0581
-55.0643
-55.0705
-55.0768
-55.0832
-55.0896
-55.0961
-55.1026
-55.1092
-55.1158
-55.1225
-55.1291
-55.1358
-55.1425
-55.1492
-55.1559
-55.1626
-55.1692
-55.1759
-55.1825
-55.189
-55.1956
-55.202
-55.2084
-55.2148
-55.221
-55.2272
-55.2333
-55.2393
-55.2452
-55.2509
-55.2566
-55.2621
-55.2675
-55.2727
-55.2778
-55.2828
-55.2876
-55.2922
-55.2966
-55.3009
-55.3049
-55.3088
-55.3125
-55.316
-55.3192
-55.3223
-55.3251
-55.3277
-55.3301
-55.3323
-55.3342
-55.3359
-55.3374
-55.3386
-55.3395
-55.3403
-55.3408
-55.341
-55.341
-55.3408
-55.3403
-55.3396
-55.3386
-55.3374
-55.3359
-55.3342
-55.3323
-55.3302
-55.3278
-55.3252
-55.3223
-55.3193
-55.316
-55.3125
-55.3089
-55.305
-55.3009
-55.2967
-55.2923
-55.2876
-55.2829
-55.2779
-55.2728
-55.2676
-55.2622
-55.2567
-55.251
-55.2453
-55.2394
-55.2334
-55.2273
-55.2211
-55.2149
-55.2085
-55.2021
-55.1957
-55.1892
-55.1826
-55.176
-55.1693
-55.1627
-55.156
-55.1493
-55.1426
-55.1359
-55.1293
-55.1226
-55.1159
-55.1093
-55.1028
-55.0962
-55.0898
-55.0833
-55.077
-55.0707
-55.0644
-55.0583
-55.0522
-55.0462
-55.0403
-55.0346
-55.0289
-55.0233
-55.0178
-55.0124
-55.0072
-55.0021
-54.9971
-54.9922
-54.9875
-54.9829
-54.9785
-54.9742
-54.97
-54.966
-54.9621
-54.9584
-54.9549
-54.9515
-54.9482
-54.9452
-54.9423
-54.9395
-54.937
-54.9346
-54.9324
-54.9303
-54.9284
-54.9267
-54.9252
-54.9239
-54.9227
-54.9217
-54.9209
-54.9202
-54.9198
-54.9195
-54.9194
-58.8407
-58.8408
-58.8411
-58.8416
-58.8422
-58.843
-58.844
-58.8452
-58.8466
-58.8481
-58.8498
-58.8517
-58.8538
-58.856
-58.8585
-58.861
-58.8638
-58.8667
-58.8698
-58.8731
-58.8765
-58.8801
-58.8838
-58.8877
-58.8918
-58.896
-58.9004
-58.9049
-58.9095
-58.9143
-58.9192
-58.9242
-58.9294
-58.9347
-58.9401
-58.9457
-58.9513
-58.9571
-58.9629
-58.9689
-58.9749
-58.9811
-58.9873
-58.9936
-59
-59.0064
-59.0129
-59.0195
-59.0261
-59.0328
-59.0395
-59.0462
-59.053
-59.0597
-59.0665
-59.0733
-59.0801
-59.0869
-59.0936
-59.1004
-59.1071
-59.1137
-59.1204
-59.1269
-59.1334
-59.1399
-59.1462
-59.1525
-59.1587
-59.1648
-59.1708
-59.1766
-59.1824
-59.188
-59.1935
-59.1988
-59.204
-59.209
-59.2139
-59.2186
-59.2231
-59.2274
-59.2316
-59.2355
-59.2393
-59.2428
-59.2461
-59.2492
-59.2521
-59.2548
-59.2572
-59.2594
-59.2614
-59.2631
-59.2646
-59.2658
-59.2668
-59.2676
-59.2681
-59.2683
-59.2683
-59.2681
-59.2676
-59.2668
-59.2659
-59.2646
-59.2631
-59.2614
-59.2595
-59.2573
-59.2548
-59.2522
-59.2493
-59.2462
-59.2429
-59.2393
-59.2356
-59.2316
-59.2275
-59.2232
-59.2187
-59.214
-59.2091
-59.2041
-59.1989
-59.1936
-59.1881
-59.1825
-59.1767
-59.1709
-59.1649
-59.1588
-59.1526
-59.1463
-59.14
-59.1335
-59.127
-59.1205
-59.1139
-59.1072
-59.1005
-59.0937
-59.087
-59.0802
-59.0734
-59.0666
-59.0599
-59.0531
-59.0463
-59.0396
-59.0329
-59.0263
-59.0196
-59.0131
-59.0066
-59.0001
-58.9937
-58.9874
-58.9812
-58.9751
-58.969
-58.9631
-58.9572
-58.9515
-58.9458
-58.9403
-58.9349
-58.9296
-58.9244
-58.9193
-58.9144
-58.9097
-58.905
-58.9005
-58.8962
-58.892
-58.8879
-58.884
-58.8803
-58.8767
-58.8733
-58.87
-58.8669
-58.864
-58.8612
-58.8586
-58.8562
-58.854
-58.8519
-58.85
-58.8483
-58.8468
-58.8454
-58.8442
-58.8432
-58.8424
-58.8418
-58.8413
-58.841
-58.8409
-62.7621
-62.7622
-62.7624
-62.7629
-62.7635
-62.7644
-62.7654
-62.7666
-62.7679
-62.7695
-62.7712
-62.7732
-62.7752
-62.7775
-62.7799
-62.7826
-62.7854
-62.7883
-62.7914
-62.7947
-62.7982
-62.8018
-62.8056
-62.8095
-62.8136
-62.8179
-62.8223
-62.8268
-62.8315
-62.8363
-62.8413
-62.8464
-62.8516
-62.857
-62.8625
-62.8681
-62.8738
-62.8796
-62.8855
-62.8916
-62.8977
-62.9039
-62.9102
-62.9166
-62.9231
-62.9296