/*--------------------------------*- C++ -*----------------------------------*\
| =========                 |                                                 |
| \\      /  F ield         | OpenFOAM: The Open Source CFD Toolbox           |
|  \\    /   O peration     | Version:  2412                                  |
|   \\  /    A nd           | Website:  www.openfoam.com                      |
|    \\/     M anipulation  |                                                 |
\*---------------------------------------------------------------------------*/
FoamFile
{
    version     2.0;
    format      ascii;
    arch        "LSB;label=32;scalar=64";
    class       volScalarField;
    location    "1.08";
    object      p_rgh;
}
// * * * * * * * * * * * * * * * * * * * * * * * * * * * * * * * * * * * * * //

dimensions      [1 -1 -2 0 0 0 0];

internalField   nonuniform List<scalar> 
40000
(
1.962
1.9619
1.96166
1.96124
1.96066
1.9599
1.95897
1.95788
1.95661
1.95518
1.95358
1.95182
1.9499
1.94781
1.94556
1.94315
1.94059
1.93787
1.935
1.93197
1.9288
1.92548
1.92201
1.91841
1.91466
1.91078
1.90676
1.90261
1.89834
1.89394
1.88942
1.88478
1.88003
1.87517
1.8702
1.86513
1.85997
1.85471
1.84936
1.84393
1.83841
1.83283
1.82717
1.82145
1.81567
1.80983
1.80395
1.79802
1.79205
1.78605
1.78003
1.77398
1.76792
1.76185
1.75578
1.74971
1.74365
1.73761
1.73159
1.7256
1.71964
1.71373
1.70787
1.70206
1.69631
1.69063
1.68502
1.6795
1.67406
1.66871
1.66347
1.65833
1.65331
1.6484
1.64362
1.63896
1.63445
1.63007
1.62585
1.62177
1.61786
1.6141
1.61051
1.6071
1.60386
1.60081
1.59793
1.59525
1.59276
1.59047
1.58837
1.58647
1.58478
1.5833
1.58202
1.58095
1.5801
1.57945
1.57902
1.57881
1.5788
1.57902
1.57944
1.58008
1.58093
1.58199
1.58327
1.58475
1.58644
1.58833
1.59042
1.59271
1.5952
1.59788
1.60075
1.6038
1.60703
1.61044
1.61403
1.61778
1.62169
1.62576
1.62999
1.63436
1.63887
1.64352
1.64831
1.65321
1.65823
1.66337
1.66861
1.67395
1.67939
1.68491
1.69052
1.6962
1.70194
1.70775
1.71362
1.71953
1.72548
1.73147
1.73749
1.74353
1.74959
1.75565
1.76173
1.76779
1.77385
1.7799
1.78592
1.79192
1.79789
1.80381
1.8097
1.81553
1.82131
1.82703
1.83269
1.83827
1.84378
1.84922
1.85456
1.85982
1.86498
1.87005
1.87502
1.87987
1.88462
1.88926
1.89378
1.89817
1.90245
1.90659
1.91061
1.91449
1.91823
1.92184
1.9253
1.92862
1.93179
1.93482
1.93769
1.94041
1.94297
1.94538
1.94762
1.94971
1.95164
1.9534
1.955
1.95644
1.9577
1.9588
1.95974
1.9605
1.9611
1.96153
1.96178
1.96188
1.96209
1.962
1.96176
1.96135
1.96076
1.96
1.95907
1.95798
1.95671
1.95528
1.95368
1.95192
1.94999
1.9479
1.94565
1.94325
1.94068
1.93796
1.93509
1.93206
1.92889
1.92556
1.9221
1.91849
1.91474
1.91086
1.90684
1.90269
1.89841
1.89401
1.88949
1.88485
1.88009
1.87523
1.87026
1.86519
1.86002
1.85476
1.84941
1.84397
1.83846
1.83287
1.82721
1.82148
1.8157
1.80986
1.80397
1.79804
1.79207
1.78607
1.78004
1.77399
1.76792
1.76185
1.75578
1.7497
1.74364
1.7376
1.73157
1.72558
1.71962
1.7137
1.70783
1.70202
1.69627
1.69058
1.68497
1.67944
1.674
1.66866
1.66341
1.65827
1.65324
1.64833
1.64354
1.63888
1.63436
1.62999
1.62576
1.62168
1.61776
1.614
1.61041
1.60699
1.60375
1.6007
1.59782
1.59514
1.59264
1.59035
1.58825
1.58635
1.58466
1.58317
1.58189
1.58083
1.57997
1.57932
1.57889
1.57868
1.57868
1.57889
1.57931
1.57995
1.58081
1.58187
1.58314
1.58463
1.58631
1.58821
1.5903
1.5926
1.59508
1.59777
1.60064
1.60369
1.60693
1.61034
1.61393
1.61768
1.6216
1.62567
1.6299
1.63428
1.63879
1.64345
1.64823
1.65314
1.65817
1.66331
1.66855
1.6739
1.67934
1.68487
1.69047
1.69616
1.70191
1.70772
1.71359
1.7195
1.72546
1.73145
1.73748
1.74352
1.74958
1.75565
1.76173
1.7678
1.77386
1.77991
1.78594
1.79194
1.79791
1.80384
1.80973
1.81556
1.82135
1.82707
1.83273
1.83832
1.84383
1.84926
1.85461
1.85987
1.86504
1.87011
1.87508
1.87994
1.88469
1.88933
1.89385
1.89825
1.90252
1.90667
1.91069
1.91457
1.91831
1.92192
1.92539
1.92871
1.93188
1.9349
1.93778
1.9405
1.94306
1.94547
1.94772
1.94981
1.95173
1.9535
1.9551
1.95653
1.9578
1.9589
1.95984
1.9606
1.9612
1.96163
1.96188
1.96198
1.96236
1.96227
1.96202
1.9616
1.96101
1.96025
1.95932
1.95823
1.95696
1.95552
1.95393
1.95216
1.95023
1.94814
1.94589
1.94348
1.94091
1.93819
1.93531
1.93228
1.9291
1.92578
1.92231
1.9187
1.91494
1.91106
1.90703
1.90288
1.8986
1.89419
1.88966
1.88502
1.88026
1.87539
1.87041
1.86534
1.86016
1.85489
1.84953
1.84409
1.83857
1.83297
1.82731
1.82157
1.81578
1.80993
1.80404
1.7981
1.79212
1.78611
1.78007
1.77401
1.76794
1.76185
1.75577
1.74969
1.74362
1.73756
1.73153
1.72552
1.71956
1.71363
1.70775
1.70193
1.69617
1.69047
1.68485
1.67931
1.67386
1.6685
1.66325
1.65809
1.65306
1.64814
1.64334
1.63868
1.63415
1.62976
1.62552
1.62144
1.61751
1.61375
1.61015
1.60673
1.60348
1.60041
1.59753
1.59484
1.59235
1.59004
1.58794
1.58604
1.58434
1.58285
1.58157
1.5805
1.57964
1.579
1.57857
1.57835
1.57835
1.57856
1.57899
1.57963
1.58048
1.58155
1.58283
1.58431
1.586
1.5879
1.59
1.5923
1.59479
1.59748
1.60035
1.60342
1.60666
1.61008
1.61367
1.61743
1.62136
1.62544
1.62968
1.63406
1.63859
1.64325
1.64804
1.65296
1.658
1.66315
1.6684
1.67376
1.67921
1.68474
1.69036
1.69605
1.70181
1.70764
1.71351
1.71944
1.72541
1.73141
1.73744
1.74349
1.74957
1.75565
1.76173
1.76781
1.77388
1.77994
1.78598
1.79199
1.79796
1.8039
1.8098
1.81564
1.82144
1.82717
1.83283
1.83843
1.84395
1.84939
1.85475
1.86001
1.86519
1.87026
1.87524
1.8801
1.88486
1.8895
1.89403
1.89843
1.90271
1.90686
1.91089
1.91477
1.91852
1.92213
1.9256
1.92893
1.9321
1.93513
1.93801
1.94073
1.9433
1.94571
1.94796
1.95005
1.95198
1.95374
1.95534
1.95678
1.95805
1.95915
1.96009
1.96085
1.96145
1.96188
1.96213
1.96223
1.9628
1.96271
1.96245
1.96203
1.96144
1.96068
1.95974
1.95864
1.95737
1.95594
1.95434
1.95257
1.95064
1.94854
1.94629
1.94387
1.9413
1.93857
1.93569
1.93266
1.92947
1.92614
1.92266
1.91904
1.91529
1.91139
1.90736
1.9032
1.89891
1.89449
1.88996
1.8853
1.88053
1.87565
1.87067
1.86558
1.8604
1.85512
1.84975
1.84429
1.83876
1.83315
1.82747
1.82172
1.81592
1.81006
1.80415
1.79819
1.7922
1.78617
1.78012
1.77405
1.76796
1.76186
1.75576
1.74966
1.74358
1.7375
1.73145
1.72543
1.71945
1.71351
1.70761
1.70177
1.69599
1.69028
1.68465
1.67909
1.67362
1.66825
1.66298
1.65781
1.65275
1.64782
1.64301
1.63833
1.63379
1.62939
1.62514
1.62104
1.6171
1.61332
1.60971
1.60628
1.60302
1.59994
1.59705
1.59435
1.59185
1.58954
1.58743
1.58552
1.58382
1.58232
1.58104
1.57996
1.5791
1.57845
1.57802
1.5778
1.5778
1.57802
1.57844
1.57909
1.57994
1.58101
1.5823
1.58379
1.58548
1.58739
1.58949
1.5918
1.5943
1.597
1.59988
1.60296
1.60621
1.60964
1.61325
1.61702
1.62096
1.62505
1.6293
1.6337
1.63824
1.64292
1.64773
1.65266
1.65771
1.66288
1.66815
1.67352
1.67898
1.68454
1.69017
1.69588
1.70166
1.7075
1.71339
1.71933
1.72532
1.73133
1.73738
1.74345
1.74954
1.75564
1.76174
1.76783
1.77392
1.77999
1.78604
1.79207
1.79806
1.80401
1.80992
1.81578
1.82159
1.82733
1.83301
1.83862
1.84415
1.8496
1.85497
1.86025
1.86543
1.87052
1.8755
1.88038
1.88514
1.8898
1.89433
1.89874
1.90303
1.90719
1.91122
1.91511
1.91887
1.92249
1.92596
1.92929
1.93248
1.93551
1.93839
1.94112
1.94369
1.9461
1.94836
1.95045
1.95238
1.95415
1.95576
1.9572
1.95847
1.95957
1.96051
1.96128
1.96187
1.9623
1.96256
1.96266
1.96341
1.96331
1.96305
1.96263
1.96203
1.96127
1.96033
1.95923
1.95796
1.95652
1.95491
1.95314
1.9512
1.9491
1.94684
1.94442
1.94184
1.93911
1.93622
1.93318
1.92999
1.92665
1.92316
1.91953
1.91576
1.91186
1.90782
1.90364
1.89934
1.89492
1.89037
1.8857
1.88092
1.87603
1.87103
1.86592
1.86072
1.85543
1.85004
1.84457
1.83902
1.83339
1.8277
1.82193
1.81611
1.81023
1.8043
1.79832
1.79231
1.78627
1.78019
1.7741
1.76799
1.76187
1.75575
1.74963
1.74352
1.73742
1.73135
1.72531
1.7193
1.71333
1.70742
1.70155
1.69575
1.69002
1.68436
1.67878
1.67329
1.66789
1.6626
1.65741
1.65233
1.64738
1.64255
1.63785
1.63328
1.62886
1.62459
1.62047
1.61652
1.61272
1.6091
1.60565
1.60237
1.59928
1.59638
1.59367
1.59115
1.58883
1.58671
1.58479
1.58308
1.58158
1.58029
1.57921
1.57834
1.57769
1.57726
1.57704
1.57704
1.57725
1.57768
1.57833
1.57919
1.58026
1.58155
1.58305
1.58476
1.58667
1.58878
1.5911
1.59362
1.59632
1.59922
1.60231
1.60558
1.60903
1.61265
1.61644
1.6204
1.62451
1.62878
1.6332
1.63776
1.64245
1.64728
1.65224
1.65731
1.6625
1.66779
1.67319
1.67867
1.68425
1.68991
1.69564
1.70144
1.7073
1.71322
1.71918
1.72519
1.73123
1.7373
1.7434
1.7495
1.75562
1.76174
1.76786
1.77397
1.78006
1.78614
1.79218
1.79819
1.80417
1.81009
1.81597
1.82179
1.82756
1.83325
1.83888
1.84443
1.8499
1.85528
1.86057
1.86577
1.87087
1.87587
1.88076
1.88554
1.89021
1.89475
1.89918
1.90348
1.90765
1.91169
1.91559
1.91936
1.92299
1.92647
1.92981
1.933
1.93604
1.93893
1.94166
1.94424
1.94666
1.94892
1.95102
1.95295
1.95473
1.95633
1.95778
1.95905
1.96016
1.9611
1.96187
1.96246
1.96289
1.96315
1.96325
1.96418
1.96408
1.96382
1.96339
1.96279
1.96203
1.96109
1.95998
1.9587
1.95726
1.95565
1.95387
1.95193
1.94982
1.94755
1.94513
1.94254
1.9398
1.9369
1.93385
1.93065
1.9273
1.9238
1.92016
1.91638
1.91246
1.9084
1.90422
1.8999
1.89546
1.89089
1.88621
1.88141
1.8765
1.87148
1.86636
1.86114
1.85583
1.85042
1.84493
1.83936
1.83371
1.82799
1.8222
1.81635
1.81045
1.8045
1.7985
1.79246
1.78639
1.78029
1.77416
1.76803
1.76188
1.75573
1.74958
1.74344
1.73732
1.73122
1.72515
1.71911
1.71311
1.70717
1.70127
1.69544
1.68968
1.68399
1.67838
1.67286
1.66744
1.66211
1.6569
1.65179
1.64681
1.64195
1.63722
1.63263
1.62819
1.62389
1.61975
1.61577
1.61195
1.60831
1.60484
1.60154
1.59843
1.59551
1.59279
1.59025
1.58792
1.58578
1.58386
1.58213
1.58062
1.57932
1.57824
1.57737
1.57671
1.57627
1.57605
1.57605
1.57627
1.5767
1.57735
1.57822
1.5793
1.58059
1.5821
1.58382
1.58574
1.58787
1.5902
1.59273
1.59546
1.59837
1.60148
1.60477
1.60824
1.61188
1.61569
1.61967
1.62381
1.62811
1.63255
1.63713
1.64186
1.64671
1.6517
1.6568
1.66201
1.66734
1.67276
1.67828
1.68388
1.68957
1.69533
1.70116
1.70705
1.713
1.71899
1.72503
1.7311
1.7372
1.74332
1.74946
1.75561
1.76176
1.7679
1.77404
1.78016
1.78626
1.79233
1.79836
1.80436
1.81032
1.81622
1.82206
1.82785
1.83357
1.83922
1.84479
1.85028
1.85568
1.86099
1.86621
1.87133
1.87635
1.88126
1.88605
1.89073
1.8953
1.89974
1.90405
1.90824
1.91229
1.91621
1.91999
1.92362
1.92712
1.93047
1.93367
1.93672
1.93962
1.94236
1.94494
1.94737
1.94964
1.95174
1.95369
1.95546
1.95708
1.95852
1.9598
1.96091
1.96185
1.96262
1.96322
1.96365
1.96391
1.96401
1.96511
1.96501
1.96476
1.96432
1.96372
1.96295
1.96201
1.9609
1.95962
1.95817
1.95655
1.95476
1.95281
1.9507
1.94843
1.94599
1.94339
1.94064
1.93773
1.93467
1.93145
1.92809
1.92458
1.92093
1.91713
1.91319
1.90912
1.90492
1.90058
1.89612
1.89154
1.88684
1.88202
1.87709
1.87205
1.8669
1.86166
1.85632
1.85089
1.84537
1.83977
1.8341
1.82835
1.82253
1.81666
1.81072
1.80474
1.79871
1.79264
1.78653
1.7804
1.77425
1.76808
1.7619
1.75571
1.74953
1.74335
1.7372
1.73106
1.72495
1.71888
1.71285
1.70686
1.70093
1.69506
1.68926
1.68354
1.6779
1.67234
1.66688
1.66152
1.65627
1.65113
1.64611
1.64122
1.63646
1.63184
1.62736
1.62304
1.61887
1.61486
1.61101
1.60734
1.60384
1.60053
1.5974
1.59445
1.59171
1.58915
1.5868
1.58465
1.58271
1.58097
1.57945
1.57814
1.57705
1.57617
1.57551
1.57507
1.57485
1.57484
1.57506
1.5755
1.57615
1.57703
1.57812
1.57942
1.58094
1.58267
1.58461
1.58676
1.5891
1.59165
1.5944
1.59734
1.60046
1.60378
1.60727
1.61094
1.61478
1.61879
1.62296
1.62728
1.63175
1.63637
1.64113
1.64602
1.65103
1.65617
1.66142
1.66678
1.67224
1.67779
1.68343
1.68916
1.69495
1.70082
1.70675
1.71273
1.71876
1.72483
1.73094
1.73707
1.74323
1.7494
1.75559
1.76177
1.76795
1.77412
1.78027
1.7864
1.79251
1.79858
1.8046
1.81059
1.81652
1.8224
1.82821
1.83396
1.83963
1.84523
1.85074
1.85617
1.86151
1.86675
1.87189
1.87693
1.88186
1.88668
1.89138
1.89596
1.90042
1.90475
1.90895
1.91302
1.91696
1.92075
1.92441
1.92791
1.93128
1.93449
1.93755
1.94046
1.94321
1.94581
1.94824
1.95052
1.95263
1.95458
1.95636
1.95798
1.95943
1.96072
1.96183
1.96277
1.96355
1.96415
1.96458
1.96484
1.96494
1.96622
1.96612
1.96586
1.96543
1.96482
1.96405
1.9631
1.96198
1.96069
1.95924
1.95761
1.95582
1.95386
1.95174
1.94946
1.94701
1.9444
1.94164
1.93871
1.93564
1.93241
1.92903
1.9255
1.92183
1.91802
1.91406
1.90997
1.90575
1.90139
1.89691
1.89231
1.88758
1.88273
1.87778
1.87271
1.86754
1.86227
1.8569
1.85144
1.84589
1.84026
1.83455
1.82877
1.82293
1.81701
1.81105
1.80503
1.79896
1.79285
1.78671
1.78054
1.77435
1.76814
1.76191
1.75569
1.74947
1.74325
1.73705
1.73087
1.72472
1.7186
1.71253
1.7065
1.70053
1.69462
1.68878
1.68301
1.67732
1.67172
1.66622
1.66082
1.65553
1.65035
1.64529
1.64036
1.63556
1.6309
1.62639
1.62203
1.61782
1.61378
1.6099
1.6062
1.60267
1.59933
1.59617
1.5932
1.59043
1.58785
1.58548
1.58331
1.58135
1.5796
1.57806
1.57674
1.57564
1.57475
1.57409
1.57364
1.57342
1.57342
1.57364
1.57408
1.57474
1.57562
1.57672
1.57804
1.57957
1.58131
1.58327
1.58543
1.5878
1.59037
1.59314
1.59611
1.59926
1.6026
1.60613
1.60983
1.6137
1.61774
1.62195
1.62631
1.63082
1.63547
1.64027
1.6452
1.65025
1.65543
1.66072
1.66612
1.67162
1.67722
1.6829
1.68867
1.69451
1.70042
1.70639
1.71241
1.71849
1.7246
1.73075
1.73693
1.74313
1.74934
1.75556
1.76179
1.76801
1.77422
1.78041
1.78658
1.79272
1.79883
1.80489
1.81091
1.81688
1.82279
1.82864
1.83441
1.84012
1.84575
1.8513
1.85675
1.86212
1.86739
1.87256
1.87762
1.88258
1.88742
1.89214
1.89675
1.90123
1.90558
1.90981
1.91389
1.91785
1.92166
1.92533
1.92885
1.93223
1.93546
1.93853
1.94145
1.94422
1.94683
1.94927
1.95156
1.95368
1.95564
1.95743
1.95905
1.96051
1.9618
1.96292
1.96387
1.96464
1.96525
1.96568
1.96594
1.96604
1.9675
1.96739
1.96713
1.9667
1.96609
1.96531
1.96436
1.96323
1.96194
1.96048
1.95884
1.95704
1.95508
1.95294
1.95065
1.94819
1.94557
1.94279
1.93985
1.93676
1.93351
1.93012
1.92657
1.92288
1.91905
1.91507
1.91096
1.90671
1.90233
1.89782
1.89319
1.88843
1.88356
1.87858
1.87348
1.86828
1.86297
1.85757
1.85208
1.8465
1.84083
1.83509
1.82927
1.82338
1.81743
1.81142
1.80536
1.79925
1.7931
1.78691
1.7807
1.77446
1.7682
1.76194
1.75567
1.74939
1.74313
1.73688
1.73065
1.72445
1.71829
1.71216
1.70609
1.70006
1.6941
1.68821
1.68239
1.67666
1.67101
1.66546
1.66001
1.65467
1.64944
1.64434
1.63936
1.63452
1.62982
1.62526
1.62086
1.61661
1.61253
1.60861
1.60487
1.60131
1.59793
1.59474
1.59175
1.58895
1.58635
1.58395
1.58176
1.57978
1.57801
1.57646
1.57512
1.57401
1.57311
1.57244
1.57199
1.57177
1.57176
1.57198
1.57243
1.5731
1.57399
1.5751
1.57643
1.57798
1.57974
1.58172
1.5839
1.5863
1.58889
1.59169
1.59468
1.59787
1.60125
1.6048
1.60854
1.61245
1.61653
1.62078
1.62518
1.62973
1.63443
1.63927
1.64424
1.64935
1.65457
1.65991
1.66536
1.67091
1.67655
1.68229
1.6881
1.69399
1.69995
1.70597
1.71205
1.71817
1.72433
1.73053
1.73676
1.74301
1.74927
1.75554
1.76181
1.76808
1.77433
1.78057
1.78678
1.79297
1.79912
1.80523
1.81129
1.81729
1.82324
1.82913
1.83495
1.84069
1.84635
1.85193
1.85743
1.86283
1.86813
1.87333
1.87842
1.88341
1.88828
1.89303
1.89766
1.90217
1.90654
1.91079
1.9149
1.91887
1.92271
1.9264
1.92994
1.93334
1.93658
1.93967
1.94261
1.94538
1.948
1.95046
1.95276
1.95489
1.95686
1.95866
1.96029
1.96176
1.96305
1.96418
1.96513
1.96591
1.96652
1.96695
1.96721
1.96731
1.96894
1.96884
1.96858
1.96814
1.96753
1.96674
1.96579
1.96466
1.96335
1.96188
1.96024
1.95843
1.95645
1.95431
1.952
1.94952
1.94689
1.94409
1.94114
1.93803
1.93476
1.93135
1.92778
1.92407
1.92021
1.91621
1.91207
1.9078
1.90339
1.89886
1.89419
1.88941
1.8845
1.87949
1.87436
1.86912
1.86378
1.85834
1.85281
1.84718
1.84148
1.83569
1.82983
1.8239
1.8179
1.81185
1.80574
1.79958
1.79338
1.78715
1.78088
1.77459
1.76829
1.76197
1.75564
1.74931
1.743
1.73669
1.73041
1.72415
1.71793
1.71175
1.70562
1.69954
1.69352
1.68757
1.6817
1.67591
1.6702
1.6646
1.65909
1.65369
1.64841
1.64326
1.63823
1.63333
1.62858
1.62398
1.61953
1.61523
1.61111
1.60715
1.60337
1.59977
1.59635
1.59313
1.5901
1.58726
1.58463
1.58221
1.57999
1.57799
1.5762
1.57463
1.57328
1.57215
1.57125
1.57057
1.57011
1.56989
1.56988
1.57011
1.57056
1.57123
1.57214
1.57326
1.57461
1.57617
1.57795
1.57995
1.58216
1.58458
1.58721
1.59004
1.59307
1.59629
1.5997
1.6033
1.60708
1.61103
1.61516
1.61945
1.6239
1.6285
1.63325
1.63814
1.64316
1.64832
1.6536
1.65899
1.66449
1.6701
1.6758
1.68159
1.68746
1.69341
1.69942
1.7055
1.71163
1.71781
1.72403
1.73029
1.73657
1.74287
1.74919
1.75551
1.76184
1.76816
1.77446
1.78075
1.78702
1.79325
1.79945
1.80561
1.81171
1.81777
1.82376
1.82969
1.83555
1.84134
1.84704
1.85266
1.85819
1.86363
1.86897
1.8742
1.87933
1.88435
1.88925
1.89403
1.89869
1.90323
1.90763
1.91191
1.91604
1.92004
1.9239
1.92761
1.93117
1.93459
1.93785
1.94096
1.94391
1.94671
1.94934
1.95181
1.95412
1.95627
1.95825
1.96006
1.9617
1.96317
1.96447
1.9656
1.96656
1.96734
1.96796
1.96839
1.96866
1.96876
1.97056
1.97046
1.97019
1.96975
1.96914
1.96835
1.96738
1.96625
1.96494
1.96346
1.9618
1.95998
1.95799
1.95583
1.95351
1.95102
1.94837
1.94556
1.94258
1.93945
1.93617
1.93273
1.92914
1.9254
1.92152
1.91749
1.91333
1.90902
1.90458
1.90002
1.89532
1.8905
1.88556
1.8805
1.87534
1.87006
1.86468
1.8592
1.85362
1.84796
1.8422
1.83637
1.83046
1.82448
1.81843
1.81233
1.80617
1.79996
1.7937
1.78741
1.78109
1.77474
1.76838
1.762
1.75561
1.74923
1.74285
1.73648
1.73014
1.72382
1.71753
1.71129
1.70509
1.69895
1.69287
1.68686
1.68092
1.67506
1.6693
1.66363
1.65806
1.6526
1.64726
1.64205
1.63696
1.63201
1.6272
1.62254
1.61804
1.61369
1.60952
1.60551
1.60168
1.59804
1.59458
1.59131
1.58824
1.58538
1.58271
1.58026
1.57801
1.57599
1.57418
1.57259
1.57122
1.57007
1.56916
1.56847
1.56801
1.56778
1.56777
1.568
1.56846
1.56914
1.57006
1.57119
1.57256
1.57414
1.57595
1.57797
1.58021
1.58266
1.58532
1.58819
1.59126
1.59452
1.59797
1.60161
1.60544
1.60944
1.61362
1.61796
1.62246
1.62712
1.63192
1.63687
1.64195
1.64717
1.65251
1.65796
1.66352
1.66919
1.67496
1.68081
1.68674
1.69276
1.69883
1.70498
1.71117
1.71741
1.7237
1.73002
1.73636
1.74272
1.7491
1.75549
1.76187
1.76825
1.77461
1.78096
1.78728
1.79357
1.79982
1.80603
1.81219
1.8183
1.82434
1.83032
1.83623
1.84206
1.84781
1.85348
1.85905
1.86453
1.86991
1.87518
1.88035
1.8854
1.89034
1.89516
1.89985
1.90442
1.90886
1.91316
1.91732
1.92135
1.92523
1.92897
1.93255
1.93599
1.93928
1.9424
1.94538
1.94819
1.95084
1.95333
1.95565
1.95781
1.9598
1.96162
1.96327
1.96475
1.96606
1.9672
1.96816
1.96895
1.96957
1.97001
1.97027
1.97037
1.97235
1.97225
1.97198
1.97154
1.97092
1.97012
1.96915
1.96801
1.96669
1.9652
1.96354
1.9617
1.9597
1.95753
1.95519
1.95268
1.95001
1.94718
1.94418
1.94103
1.93772
1.93426
1.93064
1.92688
1.92297
1.91891
1.91471
1.91038
1.9059
1.9013
1.89657
1.89171
1.88673
1.88163
1.87642
1.8711
1.86568
1.86015
1.85453
1.84881
1.84301
1.83712
1.83116
1.82513
1.81903
1.81286
1.80664
1.80037
1.79406
1.78771
1.78132
1.77491
1.76848
1.76204
1.75559
1.74913
1.74269
1.73625
1.72984
1.72345
1.71709
1.71078
1.70451
1.6983
1.69215
1.68606
1.68006
1.67413
1.6683
1.66256
1.65692
1.6514
1.64599
1.64071
1.63555
1.63054
1.62567
1.62095
1.61638
1.61198
1.60775
1.60369
1.59981
1.59612
1.59261
1.5893
1.58619
1.58328
1.58058
1.57809
1.57582
1.57376
1.57192
1.57031
1.56892
1.56777
1.56684
1.56614
1.56567
1.56543
1.56543
1.56566
1.56613
1.56682
1.56775
1.5689
1.57028
1.57189
1.57372
1.57578
1.57805
1.58053
1.58323
1.58613
1.58924
1.59255
1.59605
1.59974
1.60362
1.60768
1.61191
1.6163
1.62087
1.62558
1.63045
1.63546
1.64061
1.64589
1.6513
1.65682
1.66245
1.66819
1.67402
1.67995
1.68595
1.69203
1.69818
1.7044
1.71066
1.71697
1.72333
1.72972
1.73613
1.74256
1.74901
1.75546
1.76191
1.76835
1.77478
1.78119
1.78758
1.79393
1.80024
1.80651
1.81273
1.81889
1.82499
1.83102
1.83698
1.84287
1.84867
1.85438
1.86
1.86553
1.87095
1.87627
1.88148
1.88658
1.89155
1.89641
1.90114
1.90574
1.91021
1.91455
1.91874
1.9228
1.92671
1.93047
1.93408
1.93755
1.94085
1.944
1.947
1.94983
1.9525
1.955
1.95734
1.95952
1.96152
1.96335
1.96502
1.96651
1.96782
1.96897
1.96994
1.97073
1.97135
1.9718
1.97206
1.97216
1.97432
1.97421
1.97394
1.9735
1.97287
1.97207
1.9711
1.96994
1.96861
1.96711
1.96544
1.96359
1.96157
1.95938
1.95703
1.9545
1.95181
1.94896
1.94594
1.94276
1.93943
1.93594
1.9323
1.9285
1.92456
1.92047
1.91624
1.91186
1.90736
1.90271
1.89794
1.89304
1.88802
1.88288
1.87762
1.87225
1.86678
1.8612
1.85553
1.84976
1.8439
1.83796
1.83194
1.82584
1.81968
1.81345
1.80717
1.80084
1.79446
1.78804
1.78158
1.7751
1.7686
1.76208
1.75556
1.74903
1.74251
1.736
1.72951
1.72305
1.71661
1.71022
1.70388
1.69759
1.69136
1.6852
1.67911
1.67311
1.6672
1.66138
1.65567
1.65007
1.64459
1.63923
1.63401
1.62892
1.62399
1.6192
1.61457
1.6101
1.60581
1.60169
1.59775
1.594
1.59045
1.58709
1.58393
1.58098
1.57824
1.57571
1.5734
1.57131
1.56945
1.56781
1.5664
1.56522
1.56428
1.56357
1.5631
1.56286
1.56286
1.56309
1.56356
1.56426
1.5652
1.56638
1.56778
1.56941
1.57127
1.57336
1.57566
1.57819
1.58093
1.58387
1.58703
1.59039
1.59394
1.59769
1.60162
1.60573
1.61003
1.61449
1.61911
1.6239
1.62884
1.63392
1.63914
1.64449
1.64997
1.65557
1.66128
1.66709
1.673
1.679
1.68508
1.69124
1.69747
1.70376
1.7101
1.71649
1.72292
1.72939
1.73588
1.74239
1.74891
1.75543
1.76195
1.76847
1.77497
1.78145
1.7879
1.79432
1.8007
1.80704
1.81332
1.81954
1.8257
1.8318
1.83782
1.84376
1.84961
1.85538
1.86105
1.86663
1.8721
1.87747
1.88273
1.88786
1.89289
1.89778
1.90255
1.90719
1.9117
1.91607
1.9203
1.92439
1.92833
1.93212
1.93577
1.93925
1.94259
1.94576
1.94878
1.95163
1.95432
1.95684
1.9592
1.96139
1.96341
1.96525
1.96693
1.96843
1.96976
1.97091
1.97189
1.97269
1.97331
1.97376
1.97402
1.97413
1.97646
1.97635
1.97608
1.97563
1.975
1.9742
1.97321
1.97205
1.97071
1.9692
1.96751
1.96565
1.96361
1.96141
1.95903
1.95649
1.95377
1.9509
1.94786
1.94465
1.94129
1.93777
1.9341
1.93027
1.92629
1.92217
1.9179
1.91349
1.90894
1.90426
1.89944
1.8945
1.88943
1.88424
1.87893
1.87351
1.86798
1.86235
1.85661
1.85079
1.84487
1.83887
1.83278
1.82662
1.82039
1.8141
1.80775
1.80134
1.79489
1.7884
1.78187
1.77531
1.76873
1.76214
1.75553
1.74893
1.74232
1.73573
1.72916
1.72261
1.71609
1.70962
1.70319
1.69681
1.6905
1.68425
1.67808
1.67199
1.666
1.6601
1.65431
1.64862
1.64306
1.63763
1.63232
1.62716
1.62215
1.61729
1.61259
1.60805
1.60369
1.59951
1.59551
1.5917
1.58808
1.58467
1.58146
1.57846
1.57567
1.5731
1.57076
1.56863
1.56674
1.56507
1.56364
1.56245
1.56149
1.56076
1.56028
1.56004
1.56004
1.56028
1.56075
1.56147
1.56243
1.56362
1.56505
1.56671
1.5686
1.57072
1.57306
1.57563
1.57841
1.58141
1.58461
1.58802
1.59163
1.59544
1.59943
1.60362
1.60797
1.61251
1.6172
1.62206
1.62707
1.63223
1.63753
1.64296
1.64852
1.6542
1.65999
1.66589
1.67189
1.67797
1.68414
1.69038
1.6967
1.70307
1.7095
1.71597
1.72249
1.72903
1.73561
1.7422
1.7488
1.7554
1.76201
1.7686
1.77518
1.78174
1.78827
1.79476
1.80121
1.80761
1.81396
1.82026
1.82648
1.83264
1.83873
1.84473
1.85064
1.85647
1.8622
1.86783
1.87336
1.87878
1.88408
1.88927
1.89434
1.89928
1.9041
1.90878
1.91333
1.91773
1.922
1.92612
1.9301
1.93393
1.9376
1.94112
1.94448
1.94768
1.95072
1.95359
1.9563
1.95885
1.96122
1.96343
1.96546
1.96733
1.96901
1.97053
1.97186
1.97303
1.97401
1.97482
1.97544
1.97589
1.97616
1.97627
1.97877
1.97867
1.9784
1.97794
1.97731
1.97649
1.9755
1.97433
1.97298
1.97146
1.96975
1.96788
1.96582
1.9636
1.9612
1.95864
1.9559
1.953
1.94993
1.9467
1.94331
1.93976
1.93605
1.93219
1.92817
1.92401
1.9197
1.91525
1.91066
1.90593
1.90106
1.89607
1.89095
1.88571
1.88035
1.87487
1.86929
1.86359
1.8578
1.85191
1.84593
1.83985
1.8337
1.82747
1.82117
1.81481
1.80838
1.8019
1.79537
1.78879
1.78218
1.77554
1.76888
1.7622
1.75551
1.74881
1.74212
1.73544
1.72878
1.72214
1.71553
1.70897
1.70244
1.69597
1.68957
1.68323
1.67697
1.67079
1.6647
1.65871
1.65283
1.64706
1.64141
1.63588
1.6305
1.62525
1.62016
1.61521
1.61044
1.60582
1.60139
1.59714
1.59307
1.58919
1.58552
1.58204
1.57878
1.57573
1.57289
1.57028
1.56789
1.56573
1.5638
1.5621
1.56065
1.55943
1.55845
1.55772
1.55723
1.55698
1.55698
1.55722
1.55771
1.55844
1.55941
1.56062
1.56208
1.56377
1.56569
1.56785
1.57023
1.57284
1.57567
1.57872
1.58199
1.58546
1.58913
1.593
1.59706
1.60132
1.60575
1.61035
1.61513
1.62007
1.62516
1.6304
1.63579
1.64131
1.64696
1.65272
1.65861
1.66459
1.67068
1.67686
1.68312
1.68945
1.69586
1.70233
1.70885
1.71541
1.72202
1.72866
1.73532
1.742
1.74869
1.75538
1.76207
1.76875
1.77541
1.78205
1.78866
1.79523
1.80176
1.80824
1.81467
1.82103
1.82733
1.83356
1.83971
1.84578
1.85177
1.85765
1.86345
1.86914
1.87472
1.8802
1.88556
1.8908
1.89592
1.90091
1.90577
1.9105
1.91509
1.91954
1.92384
1.92801
1.93202
1.93588
1.93958
1.94313
1.94652
1.94975
1.95282
1.95572
1.95845
1.96102
1.96342
1.96564
1.96769
1.96957
1.97127
1.9728
1.97415
1.97532
1.97631
1.97712
1.97776
1.97821
1.97848
1.97859
1.98127
1.98116
1.98089
1.98043
1.97979
1.97897
1.97797
1.97679
1.97543
1.97389
1.97217
1.97028
1.96821
1.96596
1.96354
1.96095
1.95819
1.95526
1.95217
1.94891
1.94548
1.9419
1.93815
1.93426
1.9302
1.926
1.92165
1.91715
1.91251
1.90773
1.90282
1.89777
1.8926
1.8873
1.88188
1.87634
1.8707
1.86494
1.85908
1.85312
1.84707
1.84093
1.8347
1.82839
1.82202
1.81557
1.80906
1.8025
1.79588
1.78922
1.78253
1.7758
1.76904
1.76227
1.75549
1.7487
1.74191
1.73514
1.72838
1.72164
1.71493
1.70827
1.70164
1.69508
1.68857
1.68213
1.67577
1.66949
1.6633
1.65722
1.65123
1.64537
1.63962
1.63401
1.62853
1.62319
1.618
1.61298
1.60811
1.60342
1.59891
1.59458
1.59043
1.58649
1.58274
1.57921
1.57588
1.57277
1.56988
1.56722
1.56479
1.56258
1.56062
1.55889
1.55741
1.55617
1.55517
1.55442
1.55392
1.55367
1.55367
1.55391
1.55441
1.55516
1.55615
1.55738
1.55886
1.56059
1.56255
1.56475
1.56718
1.56984
1.57272
1.57583
1.57915
1.58268
1.58642
1.59037
1.5945
1.59883
1.60334
1.60803
1.61289
1.61792
1.6231
1.62843
1.63391
1.63952
1.64527
1.65113
1.65711
1.6632
1.66938
1.67566
1.68202
1.68845
1.69496
1.70153
1.70815
1.71481
1.72152
1.72825
1.73501
1.74179
1.74857
1.75536
1.76214
1.76891
1.77567
1.78239
1.78909
1.79575
1.80236
1.80893
1.81543
1.82188
1.82826
1.83456
1.84079
1.84693
1.85298
1.85894
1.86479
1.87055
1.8762
1.88173
1.88715
1.89245
1.89762
1.90266
1.90757
1.91235
1.91699
1.92148
1.92583
1.93003
1.93409
1.93798
1.94172
1.94531
1.94873
1.95199
1.95508
1.95801
1.96077
1.96336
1.96578
1.96802
1.97009
1.97199
1.9737
1.97524
1.9766
1.97778
1.97878
1.97961
1.98024
1.9807
1.98097
1.98108
1.98395
1.98384
1.98356
1.9831
1.98245
1.98163
1.98062
1.97942
1.97805
1.9765
1.97476
1.97285
1.97076
1.96849
1.96605
1.96344
1.96065
1.95769
1.95457
1.95127
1.94782
1.94419
1.94041
1.93648
1.93238
1.92813
1.92374
1.91919
1.9145
1.90967
1.9047
1.8996
1.89437
1.88901
1.88353
1.87793
1.87221
1.86639
1.86046
1.85443
1.8483
1.84208
1.83577
1.82939
1.82293
1.8164
1.8098
1.80315
1.79644
1.78969
1.7829
1.77608
1.76922
1.76235
1.75547
1.74858
1.74169
1.73481
1.72795
1.7211
1.71429
1.70752
1.70079
1.69411
1.6875
1.68095
1.67448
1.6681
1.66181
1.65561
1.64953
1.64356
1.63771
1.63199
1.62641
1.62098
1.6157
1.61057
1.60562
1.60084
1.59624
1.59182
1.5876
1.58358
1.57976
1.57616
1.57276
1.56959
1.56665
1.56393
1.56145
1.5592
1.5572
1.55544
1.55392
1.55265
1.55164
1.55087
1.55036
1.55011
1.55011
1.55036
1.55086
1.55162
1.55264
1.5539
1.55541
1.55717
1.55917
1.56141
1.56389
1.5666
1.56954
1.57271
1.5761
1.5797
1.58351
1.58753
1.59175
1.59616
1.60076
1.60554
1.61049
1.61561
1.62089
1.62632
1.63189
1.63761
1.64345
1.64942
1.65551
1.6617
1.66799
1.67437
1.68084
1.68738
1.694
1.70067
1.7074
1.71417
1.72098
1.72782
1.73469
1.74157
1.74845
1.75534
1.76223
1.7691
1.77594
1.78277
1.78956
1.79631
1.80301
1.80967
1.81626
1.82279
1.82925
1.83563
1.84194
1.84816
1.85428
1.86031
1.86624
1.87207
1.87778
1.88338
1.88886
1.89422
1.89945
1.90455
1.90951
1.91434
1.91903
1.92357
1.92797
1.93221
1.93631
1.94024
1.94402
1.94764
1.9511
1.95439
1.95751
1.96047
1.96326
1.96587
1.96831
1.97058
1.97267
1.97458
1.97631
1.97786
1.97924
1.98043
1.98144
1.98227
1.98291
1.98337
1.98365
1.98376
1.9868
1.98669
1.98642
1.98595
1.9853
1.98446
1.98344
1.98224
1.98085
1.97928
1.97753
1.9756
1.97349
1.9712
1.96873
1.96609
1.96328
1.96029
1.95713
1.9538
1.95031
1.94665
1.94283
1.93885
1.93471
1.93042
1.92597
1.92137
1.91663
1.91175
1.90672
1.90156
1.89627
1.89084
1.88529
1.87963
1.87384
1.86794
1.86194
1.85583
1.84962
1.84332
1.83693
1.83046
1.82391
1.81729
1.8106
1.80385
1.79705
1.7902
1.78331
1.77638
1.76943
1.76245
1.75546
1.74846
1.74146
1.73447
1.72749
1.72054
1.71361
1.70673
1.69988
1.69309
1.68636
1.6797
1.67311
1.66661
1.66021
1.6539
1.6477
1.64162
1.63566
1.62983
1.62415
1.61861
1.61322
1.608
1.60295
1.59807
1.59338
1.58888
1.58457
1.58046
1.57657
1.57289
1.56942
1.56619
1.56318
1.56041
1.55787
1.55558
1.55353
1.55173
1.55018
1.54889
1.54785
1.54707
1.54655
1.54629
1.54629
1.54654
1.54706
1.54784
1.54887
1.55016
1.5517
1.5535
1.55554
1.55783
1.56036
1.56313
1.56614
1.56937
1.57283
1.57651
1.5804
1.5845
1.5888
1.5933
1.59799
1.60287
1.60792
1.61314
1.61852
1.62405
1.62974
1.63556
1.64152
1.6476
1.65379
1.6601
1.66651
1.673
1.67959
1.68625
1.69297
1.69976
1.70661
1.71349
1.72042
1.72737
1.73435
1.74134
1.74833
1.75533
1.76232
1.7693
1.77625
1.78317
1.79007
1.79691
1.80372
1.81046
1.81715
1.82377
1.83032
1.83679
1.84318
1.84948
1.85568
1.86179
1.8678
1.87369
1.87948
1.88515
1.89069
1.89611
1.90141
1.90656
1.91159
1.91647
1.92121
1.9258
1.93025
1.93454
1.93868
1.94266
1.94648
1.95014
1.95363
1.95695
1.96011
1.9631
1.96591
1.96855
1.97102
1.97331
1.97542
1.97735
1.9791
1.98066
1.98205
1.98325
1.98427
1.98511
1.98576
1.98623
1.98651
1.98661
1.98984
1.98974
1.98945
1.98898
1.98833
1.98748
1.98645
1.98523
1.98383
1.98225
1.98048
1.97853
1.97639
1.97408
1.97159
1.96892
1.96607
1.96305
1.95986
1.9565
1.95297
1.94927
1.9454
1.94138
1.93719
1.93285
1.92835
1.9237
1.9189
1.91396
1.90887
1.90365
1.89829
1.8928
1.88718
1.88144
1.87558
1.8696
1.86352
1.85732
1.85103
1.84464
1.83817
1.8316
1.82496
1.81824
1.81145
1.80461
1.7977
1.79075
1.78375
1.77671
1.76965
1.76256
1.75545
1.74834
1.74122
1.73412
1.72702
1.71994
1.7129
1.70589
1.69892
1.69201
1.68515
1.67837
1.67166
1.66504
1.65851
1.65208
1.64576
1.63955
1.63348
1.62754
1.62173
1.61608
1.61059
1.60526
1.6001
1.59512
1.59033
1.58573
1.58133
1.57714
1.57316
1.56939
1.56586
1.56255
1.55947
1.55664
1.55405
1.5517
1.54961
1.54777