/*--------------------------------*- C++ -*----------------------------------*\
| =========                 |                                                 |
| \\      /  F ield         | OpenFOAM: The Open Source CFD Toolbox           |
|  \\    /   O peration     | Version:  2412                                  |
|   \\  /    A nd           | Website:  www.openfoam.com                      |
|    \\/     M anipulation  |                                                 |
\*---------------------------------------------------------------------------*/
FoamFile
{
    version     2.0;
    format      ascii;
    arch        "LSB;label=32;scalar=64";
    class       surfaceScalarField;
    location    "1.08";
    object      phi;
}
// * * * * * * * * * * * * * * * * * * * * * * * * * * * * * * * * * * * * * //

dimensions      [0 3 -1 0 0 0 0];

oriented        oriented;

internalField   nonuniform List<scalar> 
79600
(
1.91792e-11
-1.92562e-11
3.74487e-11
-1.82697e-11
6.04232e-11
-2.29759e-11
8.53479e-11
-2.49358e-11
1.11214e-10
-2.5873e-11
1.37215e-10
-2.59985e-11
1.63064e-10
-2.58435e-11
1.88686e-10
-2.56215e-11
2.14048e-10
-2.53645e-11
2.39162e-10
-2.51177e-11
2.6404e-10
-2.48785e-11
2.88677e-10
-2.46365e-11
3.13069e-10
-2.43917e-11
3.3721e-10
-2.41409e-11
3.6109e-10
-2.38807e-11
3.84698e-10
-2.36086e-11
4.0802e-10
-2.33221e-11
4.3104e-10
-2.30211e-11
4.53745e-10
-2.27051e-11
4.76117e-10
-2.23729e-11
4.9814e-10
-2.20239e-11
5.19797e-10
-2.16573e-11
5.4107e-10
-2.12728e-11
5.6194e-10
-2.08702e-11
5.8239e-10
-2.04493e-11
6.02401e-10
-2.00102e-11
6.21954e-10
-1.9553e-11
6.41032e-10
-1.90776e-11
6.59616e-10
-1.85838e-11
6.77688e-10
-1.80717e-11
6.9523e-10
-1.7541e-11
7.12223e-10
-1.69917e-11
7.28647e-10
-1.64239e-11
7.44485e-10
-1.58374e-11
7.59717e-10
-1.52323e-11
7.74325e-10
-1.46083e-11
7.88291e-10
-1.39656e-11
8.01595e-10
-1.33041e-11
8.14219e-10
-1.26241e-11
8.26145e-10
-1.19255e-11
8.37353e-10
-1.12084e-11
8.47826e-10
-1.04729e-11
8.57545e-10
-9.71921e-12
8.66492e-10
-8.94758e-12
8.7465e-10
-8.15855e-12
8.82003e-10
-7.3527e-12
8.88535e-10
-6.53067e-12
8.94229e-10
-5.69311e-12
8.9907e-10
-4.84061e-12
9.03044e-10
-3.97386e-12
9.06138e-10
-3.09355e-12
9.08339e-10
-2.20026e-12
9.09633e-10
-1.29432e-12
9.10008e-10
-3.7506e-13
9.09452e-10
5.5546e-13
9.0796e-10
1.4931e-12
9.05522e-10
2.43802e-12
9.02133e-10
3.38951e-12
8.97785e-10
4.34736e-12
8.92475e-10
5.31062e-12
8.86196e-10
6.27832e-12
8.78948e-10
7.24942e-12
8.70726e-10
8.2227e-12
8.61531e-10
9.19672e-12
8.51362e-10
1.01699e-11
8.40221e-10
1.11407e-11
8.28114e-10
1.21075e-11
8.15044e-10
1.3069e-11
8.01019e-10
1.40238e-11
7.86049e-10
1.49704e-11
7.70141e-10
1.59072e-11
7.53308e-10
1.68327e-11
7.35562e-10
1.77454e-11
7.16918e-10
1.86436e-11
6.97391e-10
1.95261e-11
6.76999e-10
2.03912e-11
6.55761e-10
2.12374e-11
6.33698e-10
2.20629e-11
6.10832e-10
2.28662e-11
5.87187e-10
2.36456e-11
5.62788e-10
2.43997e-11
5.37662e-10
2.51267e-11
5.11837e-10
2.58248e-11
4.85345e-10
2.64926e-11
4.58216e-10
2.71286e-11
4.30484e-10
2.77319e-11
4.02183e-10
2.8301e-11
3.73348e-10
2.88349e-11
3.44017e-10
2.93322e-11
3.14227e-10
2.97916e-11
2.84016e-10
3.02123e-11
2.53423e-10
3.05936e-11
2.2249e-10
3.09345e-11
1.91256e-10
3.12343e-11
1.59763e-10
3.14921e-11
1.28055e-10
3.17077e-11
9.61737e-11
3.18809e-11
6.41624e-11
3.20114e-11
3.20643e-11
3.20987e-11
-7.687e-14
3.21419e-11
-3.22181e-11
3.2142e-11
-6.43166e-11
3.20989e-11
-9.63282e-11
3.2012e-11
-1.28209e-10
3.1882e-11
-1.59918e-10
3.17088e-11
-1.9141e-10
3.1493e-11
-2.22645e-10
3.12349e-11
-2.5358e-10
3.09353e-11
-2.84174e-10
3.05946e-11
-3.14388e-10
3.02139e-11
-3.44182e-10
2.97937e-11
-3.73516e-10
2.93347e-11
-4.02355e-10
2.88383e-11
-4.30659e-10
2.83054e-11
-4.58395e-10
2.77368e-11
-4.85529e-10
2.71339e-11
-5.12027e-10
2.64977e-11
-5.37857e-10
2.58298e-11
-5.6299e-10
2.51318e-11
-5.87396e-10
2.44053e-11
-6.11049e-10
2.36518e-11
-6.33922e-10
2.28727e-11
-6.55993e-10
2.20699e-11
-6.77239e-10
2.12454e-11
-6.97639e-10
2.04002e-11
-7.17175e-10
1.95356e-11
-7.3583e-10
1.86539e-11
-7.53586e-10
1.77563e-11
-7.70431e-10
1.68441e-11
-7.86351e-10
1.59193e-11
-8.01334e-10
1.49828e-11
-8.15373e-10
1.40366e-11
-8.28456e-10
1.30826e-11
-8.40579e-10
1.21219e-11
-8.51736e-10
1.11563e-11
-8.61924e-10
1.01876e-11
-8.71141e-10
9.21688e-12
-8.79385e-10
8.24502e-12
-8.86659e-10
7.27347e-12
-8.92963e-10
6.30395e-12
-8.98299e-10
5.33618e-12
-9.02671e-10
4.37137e-12
-9.06084e-10
3.41168e-12
-9.08542e-10
2.45783e-12
-9.10051e-10
1.51037e-12
-9.10619e-10
5.69947e-13
-9.10256e-10
-3.62359e-13
-9.08972e-10
-1.28285e-12
-9.06784e-10
-2.18835e-12
-9.03703e-10
-3.07988e-12
-8.99747e-10
-3.95708e-12
-8.94928e-10
-4.81922e-12
-8.89261e-10
-5.66632e-12
-8.82762e-10
-6.49841e-12
-8.75445e-10
-7.31584e-12
-8.67326e-10
-8.11843e-12
-8.58421e-10
-8.90554e-12
-8.48744e-10
-9.67666e-12
-8.38313e-10
-1.04311e-11
-8.27145e-10
-1.11682e-11
-8.15258e-10
-1.1887e-11
-8.02671e-10
-1.25866e-11
-7.89403e-10
-1.32666e-11
-7.75474e-10
-1.39272e-11
-7.60906e-10
-1.45679e-11
-7.45716e-10
-1.51889e-11
-7.29925e-10
-1.57911e-11
-7.13549e-10
-1.63746e-11
-6.96608e-10
-1.69401e-11
-6.79121e-10
-1.74869e-11
-6.61103e-10
-1.80169e-11
-6.42575e-10
-1.85291e-11
-6.23552e-10
-1.90213e-11
-6.04061e-10
-1.94921e-11
-5.84121e-10
-1.99398e-11
-5.63755e-10
-2.03656e-11
-5.42983e-10
-2.07726e-11
-5.21819e-10
-2.11639e-11
-5.0028e-10
-2.15412e-11
-4.7838e-10
-2.19026e-11
-4.56133e-10
-2.22469e-11
-4.3356e-10
-2.25732e-11
-4.10683e-10
-2.28786e-11
-3.87521e-10
-2.31626e-11
-3.64098e-10
-2.34253e-11
-3.40431e-10
-2.36673e-11
-3.16536e-10
-2.38933e-11
-2.92431e-10
-2.41059e-11
-2.68128e-10
-2.43042e-11
-2.43639e-10
-2.44885e-11
-2.18984e-10
-2.46567e-11
-1.94181e-10
-2.48045e-11
-1.6925e-10
-2.49313e-11
-1.44212e-10
-2.50384e-11
-1.19086e-10
-2.51264e-11
-9.389e-11
-2.51942e-11
-6.86559e-11
-2.52321e-11
-4.34921e-11
-2.51719e-11
-1.90372e-11
-2.44687e-11
-1.90488e-11
3.04928e-11
-4.97501e-11
6.25877e-11
-5.03668e-11
9.29847e-11
-5.33605e-11
1.23789e-10
-5.57357e-11
1.55037e-10
-5.71294e-11
1.86662e-10
-5.76338e-11
2.18512e-10
-5.76966e-11
2.50417e-10
-5.75241e-11
2.8228e-10
-5.72253e-11
3.14022e-10
-5.686e-11
3.4559e-10
-5.64489e-11
3.7695e-10
-5.5998e-11
4.08069e-10
-5.55117e-11
4.3892e-10
-5.49912e-11
4.69475e-10
-5.44358e-11
4.99711e-10
-5.38443e-11
5.29603e-10
-5.32151e-11
5.59129e-10
-5.25477e-11
5.88264e-10
-5.18412e-11
6.16985e-10
-5.10949e-11
6.45269e-10
-5.0308e-11
6.73092e-10
-4.94799e-11
7.0043e-10
-4.86101e-11
7.27259e-10
-4.76984e-11
7.53555e-10
-4.67445e-11
7.79293e-10
-4.57483e-11
8.0445e-10
-4.47095e-11
8.29001e-10
-4.36279e-11
8.52921e-10
-4.25033e-11
8.76187e-10
-4.13358e-11
8.98772e-10
-4.01253e-11
9.20653e-10
-3.88718e-11
9.41804e-10
-3.7575e-11
9.62201e-10
-3.62348e-11
9.8182e-10
-3.48509e-11
1.00064e-09
-3.34236e-11
1.01862e-09
-3.19529e-11
1.03576e-09
-3.04393e-11
1.05202e-09
-2.88831e-11
1.06738e-09
-2.72845e-11
1.08181e-09
-2.56438e-11
1.0953e-09
-2.39611e-11
1.10782e-09
-2.22371e-11
1.11934e-09
-2.04725e-11
1.12985e-09
-1.86683e-11
1.13933e-09
-1.6826e-11
1.14774e-09
-1.49467e-11
1.15508e-09
-1.30317e-11
1.16133e-09
-1.10824e-11
1.16645e-09
-9.10002e-12
1.17044e-09
-7.0862e-12
1.17329e-09
-5.0425e-12
1.17496e-09
-2.97071e-12
1.17546e-09
-8.73035e-13
1.17477e-09
1.24926e-12
1.17287e-09
3.39256e-12
1.16975e-09
5.55587e-12
1.1654e-09
7.73641e-12
1.15982e-09
9.93205e-12
1.15299e-09
1.21405e-11
1.14491e-09
1.43591e-11
1.13558e-09
1.65852e-11
1.12499e-09
1.88157e-11
1.11314e-09
2.10476e-11
1.10003e-09
2.32777e-11
1.08567e-09
2.55026e-11
1.07005e-09
2.77193e-11
1.0532e-09
2.99243e-11
1.03511e-09
3.21144e-11
1.01579e-09
3.42859e-11
9.95262e-10
3.64352e-11
9.73535e-10
3.85586e-11
9.50626e-10
4.06527e-11
9.26555e-10
4.27139e-11
9.01341e-10
4.47388e-11
8.75008e-10
4.67236e-11
8.4758e-10
4.86647e-11
8.19085e-10
5.05582e-11
7.89551e-10
5.24005e-11
7.5901e-10
5.41877e-11
7.27494e-10
5.59165e-11
6.95039e-10
5.7583e-11
6.61679e-10
5.91839e-11
6.27456e-10
6.07158e-11
5.92408e-10
6.21755e-11
5.5658e-10
6.35603e-11
5.20016e-10
6.4867e-11
4.8276e-10
6.60927e-11
4.44859e-10
6.72345e-11
4.06362e-10
6.82898e-11
3.6732e-10
6.92565e-11
3.27782e-10
7.01326e-11
2.878e-10
7.09163e-11
2.47429e-10
7.16057e-11
2.06721e-10
7.21994e-11
1.65732e-10
7.26963e-11
1.24518e-10
7.30955e-11
8.31341e-11
7.3396e-11
4.16374e-11
7.35966e-11
8.34996e-14
7.36966e-11
-4.14704e-11
7.36966e-11
-8.29671e-11
7.35967e-11
-1.2435e-10
7.33967e-11
-1.65565e-10
7.30972e-11
-2.06553e-10
7.26988e-11
-2.47262e-10
7.22019e-11
-2.87635e-10
7.16081e-11
-3.27618e-10
7.09187e-11
-3.67157e-10
7.01353e-11
-4.06203e-10
6.92595e-11
-4.44702e-10
6.82933e-11
-4.82606e-10
6.72388e-11
-5.19864e-10
6.60982e-11
-5.56432e-10
6.48737e-11
-5.92263e-10
6.35678e-11
-6.27313e-10
6.21833e-11
-6.61539e-10
6.07234e-11
-6.94902e-10
5.91914e-11
-7.27362e-10
5.75907e-11
-7.58882e-10
5.59244e-11
-7.89429e-10
5.41962e-11
-8.18967e-10
5.24098e-11
-8.47466e-10
5.05685e-11
-8.74899e-10
4.86762e-11
-9.01236e-10
4.67367e-11
-9.26454e-10
4.4753e-11
-9.5053e-10
4.27292e-11
-9.73444e-10
4.06691e-11
-9.95176e-10
3.85756e-11
-1.01571e-09
3.64527e-11
-1.03504e-09
3.43041e-11
-1.05313e-09
3.21334e-11
-1.07e-09
2.99448e-11
-1.08562e-09
2.77414e-11
-1.09999e-09
2.55261e-11
-1.1131e-09
2.33031e-11
-1.12496e-09
2.10756e-11
-1.13556e-09
1.88459e-11
-1.14491e-09
1.66165e-11
-1.153e-09
1.43914e-11
-1.15983e-09
1.21738e-11
-1.16543e-09
9.96469e-12
-1.16978e-09
7.76714e-12
-1.17291e-09
5.58425e-12
-1.17481e-09
3.41862e-12
-1.17551e-09
1.27256e-12
-1.17502e-09
-8.51737e-13
-1.17336e-09
-2.95106e-12
-1.17052e-09
-5.02216e-12
-1.16654e-09
-7.06294e-12
-1.16142e-09
-9.07282e-12
-1.15519e-09
-1.10503e-11
-1.14786e-09
-1.2994e-11
-1.13946e-09
-1.49029e-11
-1.12999e-09
-1.67772e-11
-1.1195e-09
-1.86164e-11
-1.10798e-09
-2.04184e-11
-1.09548e-09
-2.21817e-11
-1.082e-09
-2.39053e-11
-1.06758e-09
-2.55888e-11
-1.05224e-09
-2.72312e-11
-1.03599e-09
-2.88309e-11
-1.01887e-09
-3.03873e-11
-1.0009e-09
-3.18993e-11
-9.82095e-10
-3.33674e-11
-9.6249e-10
-3.47909e-11
-9.42109e-10
-3.61719e-11
-9.20974e-10
-3.75088e-11
-8.99109e-10
-3.88028e-11
-8.76542e-10
-4.00547e-11
-8.53294e-10
-4.12638e-11
-8.29394e-10
-4.24305e-11
-8.04862e-10
-4.3552e-11
-7.79726e-10
-4.46279e-11
-7.54009e-10
-4.56571e-11
-7.27735e-10
-4.66397e-11
-7.00931e-10
-4.75797e-11
-6.73618e-10
-4.84793e-11
-6.4582e-10
-4.93393e-11
-6.17564e-10
-5.01609e-11
-5.88871e-10
-5.09418e-11
-5.59764e-10
-5.16801e-11
-5.30269e-10
-5.23756e-11
-5.00405e-10
-5.3027e-11
-4.70198e-10
-5.36338e-11
-4.3967e-10
-5.41976e-11
-4.08841e-10
-5.47216e-11
-3.77736e-10
-5.52094e-11
-3.4638e-10
-5.56629e-11
-3.14792e-10
-5.60796e-11
-2.82994e-10
-5.6456e-11
-2.5101e-10
-5.67899e-11
-2.18861e-10
-5.708e-11
-1.86568e-10
-5.73296e-11
-1.54156e-10
-5.75413e-11
-1.21642e-10
-5.77109e-11
-8.90376e-11
-5.78248e-11
-5.6403e-11
-5.77813e-11
-2.44251e-11
-5.64184e-11
-4.34823e-11
2.73272e-11
-7.70786e-11
6.2355e-11
-8.54116e-11
9.57027e-11
-8.67098e-11
1.2841e-10
-8.84358e-11
1.60932e-10
-8.96486e-11
1.93458e-10
-9.01618e-11
2.26029e-10
-9.02726e-11
2.58594e-10
-9.00903e-11
2.91096e-10
-8.97274e-11
3.23485e-10
-8.92472e-11
3.55713e-10
-8.86767e-11
3.87744e-10
-8.8029e-11
4.19544e-10
-8.73118e-11
4.51083e-10
-8.65293e-11
4.82331e-10
-8.56832e-11
5.13261e-10
-8.47741e-11
5.43848e-10
-8.38016e-11
5.74065e-10
-8.27654e-11
6.03889e-10
-8.16649e-11
6.33294e-10
-8.04995e-11
6.62255e-10
-7.92688e-11
6.90748e-10
-7.79723e-11
7.18748e-10
-7.66096e-11
7.4623e-10
-7.51803e-11
7.73169e-10
-7.36839e-11
7.99541e-10
-7.212e-11
8.2532e-10
-7.04881e-11
8.50481e-10
-6.87881e-11
8.74998e-10
-6.70198e-11
8.98846e-10
-6.51833e-11
9.21999e-10
-6.32783e-11
9.44432e-10
-6.13047e-11
9.66119e-10
-5.92622e-11
9.87034e-10
-5.71506e-11
1.00715e-09
-5.49699e-11
1.02645e-09
-5.27202e-11
1.0449e-09
-5.04022e-11
1.06248e-09
-4.80162e-11
1.07916e-09
-4.55629e-11
1.09491e-09
-4.30427e-11
1.10973e-09
-4.04558e-11
1.12357e-09
-3.78031e-11
1.13642e-09
-3.50854e-11
1.14825e-09
-3.23041e-11
1.15904e-09
-2.94608e-11
1.16877e-09
-2.65573e-11
1.17742e-09
-2.35953e-11
1.18497e-09
-2.05767e-11
1.19139e-09
-1.75035e-11
1.19667e-09
-1.43779e-11
1.20078e-09
-1.12024e-11
1.20372e-09
-7.97959e-12
1.20546e-09
-4.71255e-12
1.20599e-09
-1.40455e-12
1.2053e-09
1.94198e-12
1.20337e-09
5.3238e-12
1.20019e-09
8.73746e-12
1.19574e-09
1.21792e-11
1.19003e-09
1.56451e-11
1.18304e-09
1.91313e-11
1.17477e-09
2.26336e-11
1.16521e-09
2.61475e-11
1.15435e-09
2.96685e-11
1.14221e-09
3.31917e-11
1.12878e-09
3.67121e-11
1.11405e-09
4.02249e-11
1.09805e-09
4.37249e-11
1.08077e-09
4.72068e-11
1.06221e-09
5.06652e-11
1.04241e-09
5.40943e-11
1.02135e-09
5.74886e-11
9.99068e-10
6.08422e-11
9.75571e-10
6.41496e-11
9.50878e-10
6.74051e-11
9.25013e-10
7.06031e-11
8.97999e-10
7.37377e-11
8.6986e-10
7.68029e-11
8.40625e-10
7.97928e-11
8.10324e-10
8.27016e-11
7.78988e-10
8.55235e-11
7.46652e-10
8.8253e-11
7.13351e-10
9.08845e-11
6.79122e-10
9.34125e-11
6.44005e-10
9.58318e-11
6.08043e-10
9.81375e-11
5.71279e-10
1.00325e-10
5.33757e-10
1.02389e-10
4.95525e-10
1.04325e-10
4.56631e-10
1.06129e-10
4.17125e-10
1.07797e-10
3.77057e-10
1.09325e-10
3.3648e-10
1.1071e-10
2.95448e-10
1.1195e-10
2.54014e-10
1.1304e-10
2.12234e-10
1.13979e-10
1.70165e-10
1.14765e-10
1.27865e-10
1.15397e-10
8.53901e-11
1.15871e-10
4.27988e-11
1.16189e-10
1.48709e-13
1.16347e-10
-4.25012e-11
1.16347e-10
-8.50921e-11
1.16189e-10
-1.27566e-10
1.15873e-10
-1.69867e-10
1.15399e-10
-2.11936e-10
1.14769e-10
-2.53716e-10
1.13983e-10
-2.95151e-10
1.13044e-10
-3.36185e-10
1.11954e-10
-3.76763e-10
1.10715e-10
-4.16833e-10
1.0933e-10
-4.56342e-10
1.07803e-10
-4.95238e-10
1.06136e-10
-5.33472e-10
1.04333e-10
-5.70995e-10
1.02397e-10
-6.07762e-10
1.00334e-10
-6.43726e-10
9.8147e-11
-6.78845e-10
9.58413e-11
-7.13076e-10
9.34221e-11
-7.4638e-10
9.08943e-11
-7.7872e-10
8.8263e-11
-8.10059e-10
8.55338e-11
-8.40364e-10
8.27126e-11
-8.69601e-10
7.98049e-11
-8.97742e-10
7.68162e-11
-9.2476e-10
7.37526e-11
-9.50627e-10
7.06197e-11
-9.75322e-10
6.74229e-11
-9.98822e-10
6.41685e-11
-1.02111e-09
6.08617e-11
-1.04217e-09
5.75085e-11
-1.06198e-09
5.41152e-11
-1.08054e-09
5.06871e-11
-1.09782e-09
4.72304e-11
-1.11383e-09
4.37504e-11
-1.12856e-09
4.0252e-11
-1.142e-09
3.67408e-11
-1.15414e-09
3.32221e-11
-1.165e-09
2.97008e-11
-1.17456e-09
2.61808e-11
-1.18284e-09
2.26673e-11
-1.18983e-09
1.91659e-11
-1.19555e-09
1.56798e-11
-1.19999e-09
1.22128e-11
-1.20318e-09
8.76943e-12
-1.20511e-09
5.35407e-12
-1.20581e-09
1.97067e-12
-1.20528e-09
-1.37758e-12
-1.20354e-09
-4.68614e-12
-1.20061e-09
-7.95256e-12
-1.1965e-09
-1.11728e-11
-1.19123e-09
-1.43449e-11
-1.18481e-09
-1.74666e-11
-1.17727e-09
-2.05355e-11
-1.16862e-09
-2.35497e-11
-1.15889e-09
-2.65074e-11
-1.1481e-09
-2.94079e-11
-1.13627e-09
-3.2249e-11
-1.12342e-09
-3.5029e-11
-1.10958e-09
-3.77461e-11
-1.09477e-09
-4.03986e-11
-1.07902e-09
-4.29862e-11
-1.06234e-09
-4.55074e-11
-1.04477e-09
-4.7961e-11
-1.02632e-09
-5.03448e-11
-1.00702e-09
-5.266e-11
-9.86909e-10
-5.49064e-11
-9.65995e-10
-5.70846e-11
-9.44309e-10
-5.91938e-11
-9.21877e-10
-6.12338e-11
-8.98726e-10
-6.3206e-11
-8.7488e-10
-6.51094e-11
-8.50365e-10
-6.69442e-11
-8.25206e-10
-6.87102e-11
-7.99429e-10
-7.04057e-11
-7.73056e-10
-7.203e-11
-7.46112e-10
-7.35843e-11
-7.18624e-10
-7.50703e-11
-6.90614e-10
-7.64895e-11
-6.62109e-10
-7.78443e-11
-6.33134e-10
-7.9135e-11
-6.03714e-10
-8.03609e-11
-5.73874e-10
-8.15215e-11
-5.43636e-10
-8.26156e-11
-5.13021e-10
-8.36419e-11
-4.82053e-10
-8.4602e-11
-4.50755e-10
-8.54966e-11
-4.1915e-10
-8.63271e-11
-3.87264e-10
-8.70972e-11
-3.55119e-10
-8.78082e-11
-3.2274e-10
-8.84589e-11
-2.90147e-10
-8.90481e-11
-2.57365e-10
-8.95724e-11
-2.24412e-10
-9.00317e-11
-1.9131e-10
-9.04316e-11
-1.58078e-10
-9.0775e-11
-1.24742e-10
-9.10576e-11
-9.13225e-11
-9.12591e-11
-5.78881e-11
-9.12248e-11
-2.51803e-11
-8.91151e-11
-6.86645e-11
2.53723e-11
-1.02443e-10
6.00736e-11
-1.20122e-10
9.44349e-11
-1.21081e-10
1.2798e-10
-1.21982e-10
1.61108e-10
-1.22773e-10
1.94084e-10
-1.23136e-10
2.26957e-10
-1.23147e-10
2.59734e-10
-1.22868e-10
2.92402e-10
-1.22396e-10
3.2493e-10
-1.21775e-10
3.57286e-10
-1.21031e-10
3.89437e-10
-1.20179e-10
4.21354e-10
-1.19227e-10
4.53007e-10
-1.18182e-10
4.8437e-10
-1.17045e-10
5.15415e-10
-1.15819e-10
5.46118e-10
-1.14503e-10
5.76452e-10
-1.13099e-10
6.06392e-10
-1.11604e-10
6.35914e-10
-1.1002e-10
6.64992e-10
-1.08346e-10
6.93602e-10
-1.06582e-10
7.21719e-10
-1.04726e-10
7.49318e-10
-1.02779e-10
7.76374e-10
-1.0074e-10
8.02862e-10
-9.86078e-11
8.28756e-10
-9.63824e-11
8.54032e-10
-9.40635e-11
8.78663e-10
-9.16509e-11
9.02624e-10
-8.91444e-11
9.2589e-10
-8.65439e-11
9.48433e-10
-8.38489e-11
9.7023e-10
-8.10592e-11
9.91255e-10
-7.81746e-11
1.01148e-09
-7.51953e-11
1.03088e-09
-7.21218e-11
1.04944e-09
-6.89546e-11
1.06711e-09
-6.56943e-11
1.08389e-09
-6.23416e-11
1.09974e-09
-5.8897e-11
1.11465e-09
-5.53614e-11
1.12858e-09
-5.17357e-11
1.14152e-09
-4.80214e-11
1.15344e-09
-4.42203e-11
1.16431e-09
-4.03345e-11
1.17412e-09
-3.63661e-11
1.18284e-09
-3.23174e-11
1.19045e-09
-2.81909e-11
1.19694e-09
-2.39893e-11
1.20228e-09
-1.97159e-11
1.20645e-09
-1.53739e-11
1.20944e-09
-1.09671e-11
1.21122e-09
-6.49922e-12
1.21179e-09
-1.97501e-12
1.21113e-09
2.60314e-12
1.20922e-09
7.23012e-12
1.20606e-09
1.19006e-11
1.20163e-09
1.66098e-11
1.19592e-09
2.13525e-11
1.18893e-09
2.61231e-11
1.18065e-09
3.0916e-11
1.17107e-09
3.5725e-11
1.1602e-09
4.05438e-11
1.14802e-09
4.5366e-11
1.13455e-09
5.01848e-11
1.11978e-09
5.49933e-11
1.10372e-09
5.97845e-11
1.08638e-09
6.45512e-11
1.06776e-09
6.92857e-11
1.04787e-09
7.39804e-11
1.02673e-09
7.86274e-11
1.00436e-09
8.32192e-11
9.80757e-10
8.77479e-11
9.55956e-10
9.22057e-11
9.29973e-10
9.65846e-11
9.02834e-10
1.00876e-10
8.74562e-10
1.05073e-10
8.45187e-10
1.09167e-10
8.14738e-10
1.1315e-10
7.83247e-10
1.17014e-10
7.50748e-10
1.20752e-10
7.17277e-10
1.24355e-10
6.82872e-10
1.27817e-10
6.47573e-10
1.31131e-10
6.11421e-10
1.34289e-10
5.74461e-10
1.37284e-10
5.36738e-10
1.40111e-10
4.98299e-10
1.42763e-10
4.59193e-10
1.45235e-10
4.1947e-10
1.4752e-10
3.79181e-10
1.49615e-10
3.3838e-10
1.51513e-10
2.97119e-10
1.53212e-10
2.55454e-10
1.54706e-10
2.1344e-10
1.55993e-10
1.71136e-10
1.57071e-10
1.28597e-10
1.57935e-10
8.58828e-11
1.58586e-10
4.3051e-11
1.59021e-10
1.60465e-13
1.59239e-10
-4.27299e-11
1.59239e-10
-8.55612e-11
1.59023e-10
-1.28275e-10
1.58589e-10
-1.70814e-10
1.57939e-10
-2.13119e-10
1.57075e-10
-2.55134e-10
1.55998e-10
-2.96799e-10
1.54711e-10
-3.38061e-10
1.53217e-10
-3.78864e-10
1.51519e-10
-4.19155e-10
1.49621e-10
-4.58879e-10
1.47528e-10
-4.97987e-10
1.45244e-10
-5.36427e-10
1.42773e-10
-5.74152e-10
1.40122e-10
-6.11114e-10
1.37295e-10
-6.47268e-10
1.343e-10
-6.82569e-10
1.31143e-10
-7.16976e-10
1.27829e-10
-7.50451e-10
1.24367e-10
-7.82953e-10
1.20764e-10
-8.14447e-10
1.17026e-10
-8.449e-10
1.13163e-10
-8.74277e-10
1.09181e-10
-9.02551e-10
1.05089e-10
-9.29693e-10
1.00893e-10
-9.55677e-10
9.66031e-11
-9.80481e-10
9.22255e-11
-1.00408e-09
8.77686e-11
-1.02646e-09
8.32406e-11
-1.04761e-09
7.86492e-11
-1.06749e-09
7.40031e-11
-1.08612e-09
6.93097e-11
-1.10347e-09
6.45766e-11
-1.11953e-09
5.98119e-11
-1.1343e-09
5.50226e-11
-1.14777e-09
5.02157e-11
-1.15995e-09
4.53983e-11
-1.17083e-09
4.05777e-11
-1.18041e-09
3.57602e-11
-1.18869e-09
3.09516e-11
-1.19568e-09
2.6159e-11
-1.20139e-09
2.13885e-11
-1.20583e-09
1.66454e-11
-1.20899e-09
1.19355e-11
-1.2109e-09
7.26408e-12
-1.21157e-09
2.63661e-12
-1.211e-09
-1.94234e-12
-1.20922e-09
-6.46682e-12
-1.20623e-09
-1.09345e-11
-1.20207e-09
-1.53401e-11
-1.19673e-09
-1.96795e-11
-1.19025e-09
-2.39497e-11
-1.18264e-09
-2.81476e-11
-1.17392e-09
-3.22708e-11
-1.16411e-09
-3.6316e-11
-1.15323e-09
-4.02814e-11
-1.14132e-09
-4.41652e-11
-1.12838e-09
-4.79654e-11
-1.11445e-09
-5.16795e-11
-1.09954e-09
-5.53046e-11
-1.08369e-09
-5.88399e-11
-1.06691e-09
-6.22847e-11
-1.04923e-09
-6.56373e-11
-1.03068e-09
-6.88961e-11
-1.01128e-09
-7.20604e-11
-9.91054e-10
-7.51317e-11
-9.70029e-10
-7.81085e-11
-9.48231e-10
-8.09912e-11
-9.25686e-10
-8.37794e-11
-9.02419e-10
-8.64724e-11
-8.78455e-10
-8.90715e-11
-8.53822e-10
-9.1577e-11
-8.28544e-10
-9.39881e-11
-8.02646e-10
-9.63042e-11
-7.76153e-10
-9.85241e-11
-7.49088e-10
-1.00649e-10
-7.21478e-10
-1.02681e-10
-6.93346e-10
-1.04621e-10
-6.64719e-10
-1.06471e-10
-6.3562e-10
-1.08233e-10
-6.06075e-10
-1.09906e-10
-5.76108e-10
-1.11489e-10
-5.45743e-10
-1.12982e-10
-5.15002e-10
-1.14383e-10
-4.8391e-10
-1.15695e-10
-4.52487e-10
-1.16918e-10
-4.20759e-10
-1.18055e-10
-3.88749e-10
-1.19108e-10
-3.5648e-10
-1.20078e-10
-3.23975e-10
-1.20964e-10
-2.91256e-10
-1.21766e-10
-2.58346e-10
-1.22482e-10
-2.25267e-10
-1.23113e-10
-1.92038e-10
-1.23662e-10
-1.58677e-10
-1.24132e-10
-1.2521e-10
-1.2452e-10
-9.16695e-11
-1.24806e-10
-5.81293e-11
-1.24772e-10
-2.53414e-11
-1.21907e-10
-9.40046e-11
2.4782e-11
-1.2722e-10
5.88061e-11
-1.54142e-10
9.32787e-11
-1.55559e-10
1.27252e-10
-1.55959e-10
1.60816e-10
-1.56337e-10
1.94128e-10
-1.56447e-10
2.27251e-10
-1.56268e-10
2.60228e-10
-1.55846e-10
2.93057e-10
-1.55225e-10
3.2572e-10
-1.54437e-10
3.58194e-10
-1.53504e-10
3.90453e-10
-1.52436e-10
4.22471e-10
-1.51244e-10
4.54222e-10
-1.49931e-10
4.85679e-10
-1.48502e-10
5.16819e-10
-1.46957e-10
5.47615e-10
-1.45298e-10
5.78042e-10
-1.43525e-10
6.08076e-10
-1.41637e-10
6.37692e-10
-1.39635e-10
6.66864e-10
-1.37518e-10
6.95569e-10
-1.35286e-10
7.23781e-10
-1.32938e-10
7.51475e-10
-1.30474e-10
7.78628e-10
-1.27892e-10
8.05212e-10
-1.25192e-10
8.31204e-10
-1.22373e-10
8.56576e-10
-1.19436e-10
8.81305e-10
-1.16379e-10
9.05363e-10
-1.13203e-10
9.28726e-10
-1.09907e-10
9.51367e-10
-1.0649e-10
9.73262e-10
-1.02953e-10
9.94384e-10
-9.92955e-11
1.01471e-09
-9.55176e-11
1.03421e-09
-9.16199e-11
1.05285e-09
-8.76031e-11
1.07063e-09
-8.34677e-11
1.0875e-09
-7.92145e-11
1.10344e-09
-7.48444e-11
1.11844e-09
-7.03586e-11
1.13247e-09
-6.57585e-11
1.14549e-09
-6.10461e-11
1.15749e-09
-5.62234e-11
1.16845e-09
-5.12928e-11
1.17834e-09
-4.62569e-11
1.18714e-09
-4.11186e-11
1.19483e-09
-3.58811e-11
1.20139e-09
-3.0548e-11
1.2068e-09
-2.51234e-11
1.21103e-09
-1.96114e-11
1.21408e-09
-1.40165e-11
1.21593e-09
-8.34356e-12
1.21655e-09
-2.5985e-12
1.21594e-09
3.21638e-12
1.21407e-09
9.09341e-12
1.21095e-09
1.5026e-11
1.20655e-09
2.10081e-11
1.20087e-09
2.70331e-11
1.1939e-09
3.30941e-11
1.18563e-09
3.91837e-11
1.17606e-09
4.52944e-11
1.16518e-09
5.1418e-11
1.153e-09
5.75463e-11
1.13952e-09
6.36706e-11
1.12473e-09
6.97823e-11
1.10864e-09
7.58723e-11
1.09126e-09
8.19312e-11
1.0726e-09
8.79494e-11
1.05266e-09
9.39174e-11
1.03146e-09
9.98251e-11
1.00902e-09
1.05663e-10
9.85346e-10
1.11421e-10
9.60462e-10
1.17089e-10
9.34389e-10
1.22657e-10
9.07151e-10
1.28114e-10
8.78772e-10
1.3345e-10
8.49282e-10
1.38656e-10
8.1871e-10
1.43721e-10
7.87089e-10
1.48636e-10
7.54451e-10
1.53389e-10
7.20834e-10
1.57972e-10
6.86276e-10
1.62376e-10
6.50816e-10
1.6659e-10
6.14497e-10
1.70607e-10
5.77363e-10
1.74418e-10
5.3946e-10
1.78014e-10
5.00835e-10
1.81388e-10
4.61537e-10
1.84532e-10
4.21618e-10
1.87441e-10
3.81128e-10
1.90106e-10
3.40121e-10
1.92521e-10
2.98651e-10
1.94683e-10
2.56773e-10
1.96584e-10
2.14545e-10
1.98222e-10
1.72023e-10
1.99593e-10
1.29265e-10
2.00694e-10
8.63295e-11
2.01522e-10
4.32757e-11
2.02075e-10
1.62791e-13
2.02353e-10
-4.29501e-11
2.02354e-10
-8.60039e-11
2.02078e-10
-1.28939e-10
2.01526e-10
-1.71698e-10
2.00698e-10
-2.14221e-10
1.99598e-10
-2.56451e-10
1.98227e-10
-2.98329e-10
1.9659e-10
-3.398e-10
1.94688e-10
-3.80808e-10
1.92528e-10
-4.21299e-10
1.90113e-10
-4.6122e-10
1.87449e-10
-5.00519e-10
1.84543e-10
-5.39145e-10
1.81399e-10
-5.7705e-10
1.78026e-10
-6.14186e-10
1.74431e-10
-6.50506e-10
1.70621e-10
-6.85968e-10
1.66604e-10
-7.20529e-10
1.6239e-10
-7.54149e-10
1.57986e-10
-7.8679e-10
1.53403e-10
-8.18415e-10
1.4865e-10
-8.4899e-10
1.43737e-10
-8.78483e-10
1.38673e-10
-9.06864e-10
1.33469e-10
-9.34105e-10
1.28134e-10
-9.60181e-10
1.22678e-10
-9.85067e-10
1.17111e-10
-1.00874e-09
1.11444e-10
-1.03119e-09
1.05686e-10
-1.05239e-09
9.98489e-11
-1.07233e-09
9.39421e-11
-1.091e-09
8.79754e-11
-1.10838e-09
8.19583e-11
-1.12447e-09
7.59011e-11
-1.13926e-09
6.98133e-11
-1.15275e-09
6.37036e-11
-1.16493e-09
5.75807e-11
-1.17581e-09
5.14536e-11
-1.18538e-09
4.53315e-11
-1.19365e-09
3.92216e-11
-1.20062e-09
3.3132e-11
-1.2063e-09
2.7071e-11
-1.21071e-09
2.10459e-11
-1.21383e-09
1.50638e-11
-1.2157e-09
9.13104e-12
-1.21632e-09
3.25418e-12
-1.2157e-09
-2.56039e-12
-1.21386e-09
-8.30646e-12
-1.21081e-09
-1.39797e-11
-1.20658e-09
-1.95743e-11
-1.20117e-09
-2.50844e-11
-1.19462e-09
-3.05061e-11
-1.18693e-09
-3.58357e-11
-1.17813e-09
-4.10701e-11
-1.16824e-09
-4.62056e-11
-1.15728e-09
-5.12388e-11
-1.14528e-09
-5.61682e-11
-1.13225e-09
-6.09905e-11
-1.11823e-09
-6.57027e-11
-1.10323e-09
-7.03022e-11
-1.08729e-09
-7.47869e-11
-1.07042e-09
-7.91567e-11
-1.05264e-09
-8.3409e-11
-1.03399e-09
-8.75442e-11
-1.0145e-09
-9.15593e-11
-9.94173e-10
-9.5455e-11
-9.73051e-10
-9.92308e-11
-9.51155e-10
-1.02887e-10
-9.28511e-10
-1.06423e-10
-9.05145e-10
-1.09838e-10
-8.81084e-10
-1.13133e-10
-8.56352e-10
-1.16309e-10
-8.30976e-10
-1.19365e-10
-8.0498e-10
-1.223e-10
-7.78389e-10
-1.25116e-10
-7.51228e-10
-1.2781e-10
-7.23521e-10
-1.30387e-10
-6.95295e-10
-1.32848e-10
-6.66574e-10
-1.35194e-10
-6.3738e-10
-1.37427e-10
-6.07741e-10
-1.39546e-10
-5.77681e-10
-1.4155e-10
-5.47221e-10
-1.43439e-10
-5.16389e-10
-1.45215e-10
-4.85206e-10
-1.46878e-10
-4.53694e-10
-1.4843e-10
-4.21877e-10
-1.49873e-10
-3.89777e-10
-1.51209e-10
-3.57418e-10
-1.52438e-10
-3.24823e-10
-1.5356e-10
-2.92014e-10
-1.54575e-10
-2.59014e-10
-1.55483e-10
-2.25845e-10
-1.56285e-10
-1.92529e-10
-1.56984e-10
-1.59084e-10
-1.57577e-10
-1.25536e-10
-1.58063e-10
-9.19115e-11
-1.58424e-10
-5.82973e-11
-1.5839e-10
-2.5437e-11
-1.54771e-10
-1.19444e-10
2.4686e-11
-1.5191e-10
5.83469e-11
-1.87794e-10
9.27792e-11
-1.8999e-10
1.26929e-10
-1.90111e-10
1.60742e-10
-1.90152e-10
1.94293e-10
-1.89998e-10
2.27642e-10
-1.89617e-10
2.60817e-10
-1.8902e-10
2.93818e-10
-1.88225e-10
3.26634e-10
-1.87253e-10
3.59248e-10
-1.86116e-10
3.91637e-10
-1.84824e-10
4.23778e-10
-1.83385e-10
4.55649e-10
-1.81801e-10
4.87224e-10
-1.80076e-10
5.18479e-10
-1.78212e-10
5.49391e-10
-1.76208e-10
5.79934e-10
-1.74066e-10
6.10083e-10
-1.71785e-10
6.39814e-10
-1.69365e-10
6.69102e-10
-1.66806e-10
6.97923e-10
-1.64107e-10
7.26252e-10
-1.61267e-10
7.54064e-10
-1.58286e-10
7.81334e-10
-1.55161e-10
8.08038e-10
-1.51894e-10
8.34148e-10
-1.48483e-10
8.59641e-10
-1.44928e-10
8.84489e-10
-1.41227e-10
9.08667e-10
-1.37382e-10
9.3215e-10
-1.3339e-10
9.54913e-10
-1.29252e-10
9.76928e-10
-1.24967e-10
9.9817e-10
-1.20537e-10
1.01861e-09
-1.1596e-10
1.03823e-09
-1.11238e-10
1.057e-09
-1.06371e-10
1.07489e-09
-1.01359e-10
1.09188e-09
-9.62046e-11
1.10794e-09
-9.09077e-11
1.12305e-09
-8.54703e-11
1.13719e-09
-7.98941e-11
1.15032e-09
-7.41815e-11
1.16243e-09
-6.83347e-11
1.1735e-09
-6.23566e-11
1.18349e-09
-5.62501e-11
1.19239e-09
-5.00189e-11
1.20017e-09
-4.36669e-11
1.20683e-09
-3.71986e-11
1.21232e-09
-3.06188e-11
1.21664e-09
-2.39324e-11
1.21977e-09
-1.71446e-11
1.22168e-09
-1.02613e-11
1.22237e-09
-3.28924e-12
1.22182e-09
3.76774e-12
1.22001e-09
1.09006e-11
1.21694e-09
1.81016e-11
1.21258e-09
2.53633e-11
1.20694e-09
3.26778e-11
1.19999e-09
4.00366e-11
1.19175e-09
4.74309e-11
1.18219e-09
5.48512e-11
1.17132e-09
6.22879e-11
1.15913e-09
6.97309e-11
1.14564e-09
7.71696e-11
1.13083e-09
8.45934e-11
1.11471e-09
9.19912e-11
1.09729e-09
9.93517e-11
1.07857e-09
1.06663e-10
1.05857e-09
1.13914e-10
1.03731e-09
1.21093e-10
1.01478e-09
1.28187e-10
9.91019e-10
1.35184e-10
9.66035e-10
1.42073e-10
9.39851e-10
1.48839e-10
9.12492e-10
1.55472e-10
8.83983e-10
1.61958e-10
8.54352e-10
1.68286e-10
8.23629e-10
1.74444e-10
7.91846e-10
1.80418e-10
7.59038e-10
1.86197e-10
7.25241e-10
1.9177e-10
6.90493e-10
1.97124e-10
6.54835e-10
2.02248e-10
6.18309e-10
2.07133e-10
5.80961e-10
2.11766e-10
5.42835e-10
2.1614e-10
5.0398e-10
2.20243e-10
4.64446e-10
2.24067e-10
4.24284e-10
2.27604e-10
3.83545e-10
2.30845e-10
3.42283e-10
2.33784e-10
3.00553e-10
2.36412e-10
2.58412e-10
2.38725e-10
2.15916e-10
2.40718e-10
1.73124e-10
2.42386e-10
1.30094e-10
2.43725e-10
8.68837e-11
2.44732e-10
4.35538e-11
2.45406e-10
1.64137e-13
2.45743e-10
-4.32255e-11
2.45744e-10
-8.65557e-11
2.45408e-10
-1.29767e-10
2.44736e-10
-1.72798e-10
2.43729e-10
-2.15592e-10
2.42391e-10
-2.58089e-10
2.40724e-10
-3.00231e-10
2.38732e-10
-3.41961e-10
2.36419e-10
-3.83224e-10
2.33791e-10
-4.23964e-10
2.30853e-10
-4.64128e-10
2.27613e-10
-5.03664e-10
2.24078e-10
-5.4252e-10
2.20255e-10
-5.80647e-10
2.16153e-10
-6.17998e-10
2.11781e-10
-6.54525e-10
2.07147e-10
-6.90185e-10
2.02263e-10
-7.24936e-10
1.97139e-10
-7.58736e-10
1.91785e-10
-7.91547e-10
1.86213e-10
-8.23332e-10
1.80436e-10
-8.54058e-10
1.74463e-10
-8.83692e-10
1.68307e-10
-9.12204e-10
1.6198e-10
-9.39566e-10
1.55495e-10
-9.65752e-10
1.48863e-10
-9.90739e-10
1.42097e-10
-1.01451e-09
1.35209e-10
-1.03703e-09
1.28213e-10
-1.0583e-09
1.21119e-10
-1.0783e-09
1.13942e-10
-1.09702e-09
1.06692e-10
-1.11444e-09
9.93812e-11
-1.13056e-09
9.20222e-11
-1.14538e-09
8.46262e-11
-1.15888e-09
7.72043e-11
-1.17107e-09
6.97672e-11
-1.18194e-09
6.23254e-11
-1.1915e-09
5.48899e-11
-1.19975e-09
4.74707e-11
-1.20669e-09
4.00769e-11
-1.21234e-09
3.27183e-11
-1.2167e-09
2.54041e-11
-1.21977e-09
1.81426e-11
-1.22158e-09
1.09415e-11
-1.22214e-09
3.80887e-12
-1.22145e-09
-3.24754e-12
-1.21954e-09
-1.02208e-11
-1.21642e-09
-1.71044e-11
-1.2121e-09
-2.38918e-11
-1.2066e-09
-3.05767e-11
-1.19996e-09
-3.7154e-11
-1.19217e-09
-4.36195e-11
-1.18327e-09
-4.99686e-11
-1.17328e-09
-5.61975e-11
-1.16222e-09
-6.23018e-11
-1.15011e-09
-6.82791e-11
-1.13698e-09
-7.41258e-11
-1.12284e-09
-7.98381e-11
-1.10773e-09
-8.54139e-11
-1.09167e-09
-9.08499e-11
-1.07468e-09
-9.6146e-11
-1.05679e-09
-1.013e-10
-1.03802e-09
-1.06312e-10
-1.0184e-09
-1.11179e-10
-9.97958e-10
-1.159e-10
-9.76714e-10
-1.20474e-10
-9.54698e-10
-1.24904e-10
-9.31933e-10
-1.29187e-10
-9.08447e-10
-1.33325e-10
-8.84265e-10
-1.37316e-10
-8.59413e-10
-1.41161e-10
-8.33917e-10
-1.44862e-10
-8.07801e-10
-1.48417e-10