/*--------------------------------*- C++ -*----------------------------------*\
| =========                 |                                                 |
| \\      /  F ield         | OpenFOAM: The Open Source CFD Toolbox           |
|  \\    /   O peration     | Version:  2412                                  |
|   \\  /    A nd           | Website:  www.openfoam.com                      |
|    \\/     M anipulation  |                                                 |
\*---------------------------------------------------------------------------*/
FoamFile
{
    version     2.0;
    format      ascii;
    arch        "LSB;label=32;scalar=64";
    class       volVectorField;
    location    "1.08";
    object      U;
}
// * * * * * * * * * * * * * * * * * * * * * * * * * * * * * * * * * * * * * //

dimensions      [0 1 -1 0 0 0 0];

internalField   nonuniform List<vector> 
40000
(
(1.12543e-05 -5.89521e-06 0)
(2.72294e-05 -4.19076e-06 0)
(4.91267e-05 -8.48739e-06 0)
(7.20909e-05 -1.00778e-05 0)
(9.82262e-05 -1.05565e-05 0)
(0.000124189 -1.06611e-05 0)
(0.00015014 -1.05751e-05 0)
(0.000175864 -1.04676e-05 0)
(0.000201347 -1.03457e-05 0)
(0.000226598 -1.02376e-05 0)
(0.0002516 -1.01396e-05 0)
(0.000276359 -1.00415e-05 0)
(0.000300879 -9.94299e-06 0)
(0.00032515 -9.84282e-06 0)
(0.000349164 -9.73929e-06 0)
(0.000372911 -9.63079e-06 0)
(0.000396378 -9.51592e-06 0)
(0.000419551 -9.39488e-06 0)
(0.000442417 -9.2675e-06 0)
(0.000464957 -9.13334e-06 0)
(0.000487157 -8.99208e-06 0)
(0.000508999 -8.84349e-06 0)
(0.000530465 -8.68738e-06 0)
(0.000551539 -8.52358e-06 0)
(0.000572201 -8.3521e-06 0)
(0.000592433 -8.17297e-06 0)
(0.000612217 -7.98627e-06 0)
(0.000631535 -7.79207e-06 0)
(0.000650368 -7.59038e-06 0)
(0.000668698 -7.38114e-06 0)
(0.000686507 -7.1643e-06 0)
(0.000703776 -6.93986e-06 0)
(0.000720487 -6.70777e-06 0)
(0.00073662 -6.46803e-06 0)
(0.000752156 -6.22065e-06 0)
(0.000767079 -5.96565e-06 0)
(0.000781368 -5.70301e-06 0)
(0.000795004 -5.43275e-06 0)
(0.000807971 -5.15494e-06 0)
(0.000820247 -4.86959e-06 0)
(0.000831815 -4.57665e-06 0)
(0.000842657 -4.27617e-06 0)
(0.000852755 -3.96823e-06 0)
(0.000862089 -3.65292e-06 0)
(0.000870644 -3.33043e-06 0)
(0.000878401 -3.00106e-06 0)
(0.000885345 -2.66506e-06 0)
(0.000891459 -2.32268e-06 0)
(0.000896728 -1.97417e-06 0)
(0.000901137 -1.61987e-06 0)
(0.000904673 -1.26006e-06 0)
(0.000907321 -8.95e-07 0)
(0.00090907 -5.24816e-07 0)
(0.000909907 -1.49302e-07 0)
(0.000909818 2.31128e-07 0)
(0.000908794 6.15101e-07 0)
(0.000906829 1.00183e-06 0)
(0.000903917 1.39125e-06 0)
(0.000900049 1.78306e-06 0)
(0.00089522 2.17698e-06 0)
(0.000889426 2.57279e-06 0)
(0.000882662 2.97007e-06 0)
(0.000874927 3.36831e-06 0)
(0.000866218 3.7669e-06 0)
(0.000856536 4.16519e-06 0)
(0.000845881 4.56253e-06 0)
(0.000834257 4.95824e-06 0)
(0.000821667 5.35175e-06 0)
(0.000808119 5.7425e-06 0)
(0.000793621 6.12988e-06 0)
(0.000778181 6.51322e-06 0)
(0.000761809 6.89182e-06 0)
(0.000744518 7.26506e-06 0)
(0.000726322 7.63238e-06 0)
(0.000707234 7.99323e-06 0)
(0.000687273 8.34703e-06 0)
(0.000666456 8.69312e-06 0)
(0.000644803 9.03082e-06 0)
(0.000622336 9.3595e-06 0)
(0.000599078 9.67858e-06 0)
(0.000575053 9.9874e-06 0)
(0.000550288 1.02853e-05 0)
(0.00052481 1.05715e-05 0)
(0.000498649 1.08453e-05 0)
(0.000471835 1.11063e-05 0)
(0.000444402 1.13539e-05 0)
(0.000416382 1.15876e-05 0)
(0.000387811 1.18068e-05 0)
(0.000358725 1.2011e-05 0)
(0.000329161 1.21997e-05 0)
(0.000299157 1.23724e-05 0)
(0.000268751 1.2529e-05 0)
(0.000237985 1.26689e-05 0)
(0.000206897 1.27919e-05 0)
(0.00017553 1.28977e-05 0)
(0.000143926 1.29863e-05 0)
(0.000112127 1.30577e-05 0)
(8.01768e-05 1.31118e-05 0)
(4.81182e-05 1.31483e-05 0)
(1.59958e-05 1.31666e-05 0)
(-1.61496e-05 1.31664e-05 0)
(-4.82722e-05 1.31478e-05 0)
(-8.03311e-05 1.31112e-05 0)
(-0.000112281 1.30571e-05 0)
(-0.00014408 1.29854e-05 0)
(-0.000175684 1.28964e-05 0)
(-0.000207052 1.279e-05 0)
(-0.000238141 1.26667e-05 0)
(-0.000268909 1.25265e-05 0)
(-0.000299317 1.23701e-05 0)
(-0.000329324 1.21975e-05 0)
(-0.000358891 1.20092e-05 0)
(-0.000387981 1.18056e-05 0)
(-0.000416556 1.15871e-05 0)
(-0.000444579 1.13542e-05 0)
(-0.000472017 1.11072e-05 0)
(-0.000498836 1.08467e-05 0)
(-0.000525003 1.05732e-05 0)
(-0.000550487 1.02875e-05 0)
(-0.000575259 9.99e-06 0)
(-0.000599291 9.68141e-06 0)
(-0.000622557 9.36231e-06 0)
(-0.000645031 9.03351e-06 0)
(-0.000666692 8.6959e-06 0)
(-0.000687517 8.34989e-06 0)
(-0.000707487 7.99597e-06 0)
(-0.000726584 7.63511e-06 0)
(-0.000744791 7.26773e-06 0)
(-0.000762093 6.89438e-06 0)
(-0.000778477 6.5159e-06 0)
(-0.00079393 6.13259e-06 0)
(-0.000808441 5.7453e-06 0)
(-0.000822003 5.35488e-06 0)
(-0.000834607 4.9616e-06 0)
(-0.000846248 4.5663e-06 0)
(-0.000856921 4.16975e-06 0)
(-0.000866623 3.77242e-06 0)
(-0.000875354 3.37466e-06 0)
(-0.000883113 2.97716e-06 0)
(-0.000889902 2.58071e-06 0)
(-0.000895721 2.18511e-06 0)
(-0.000900574 1.79081e-06 0)
(-0.000904466 1.39874e-06 0)
(-0.0009074 1.00902e-06 0)
(-0.000909383 6.2155e-07 0)
(-0.000910422 2.36285e-07 0)
(-0.000910524 -1.45764e-07 0)
(-0.000909698 -5.22517e-07 0)
(-0.000907961 -8.93161e-07 0)
(-0.000905326 -1.25818e-06 0)
(-0.000901807 -1.61741e-06 0)
(-0.000897418 -1.97032e-06 0)
(-0.000892174 -2.3168e-06 0)
(-0.000886089 -2.65686e-06 0)
(-0.000879179 -2.99077e-06 0)
(-0.000871459 -3.31854e-06 0)
(-0.000862945 -3.6399e-06 0)
(-0.000853652 -3.95459e-06 0)
(-0.000843596 -4.26243e-06 0)
(-0.000832795 -4.56333e-06 0)
(-0.000821266 -4.85706e-06 0)
(-0.000809027 -5.14314e-06 0)
(-0.000796098 -5.42129e-06 0)
(-0.000782498 -5.6917e-06 0)
(-0.000768249 -5.95416e-06 0)
(-0.000753368 -6.20875e-06 0)
(-0.000737875 -6.45568e-06 0)
(-0.00072179 -6.69462e-06 0)
(-0.000705129 -6.92574e-06 0)
(-0.000687912 -7.14892e-06 0)
(-0.000670157 -7.36557e-06 0)
(-0.000651881 -7.57563e-06 0)
(-0.000633105 -7.77789e-06 0)
(-0.000613848 -7.97147e-06 0)
(-0.000594133 -8.15533e-06 0)
(-0.00057398 -8.33005e-06 0)
(-0.000553409 -8.49687e-06 0)
(-0.000532437 -8.65717e-06 0)
(-0.000511081 -8.81163e-06 0)
(-0.000489357 -8.95958e-06 0)
(-0.000467282 -9.101e-06 0)
(-0.000444872 -9.23617e-06 0)
(-0.000422147 -9.36362e-06 0)
(-0.000399128 -9.48219e-06 0)
(-0.000375836 -9.59064e-06 0)
(-0.000352289 -9.68845e-06 0)
(-0.000328504 -9.77819e-06 0)
(-0.000304501 -9.86202e-06 0)
(-0.000280293 -9.94073e-06 0)
(-0.000255895 -1.00155e-05 0)
(-0.000231323 -1.00851e-05 0)
(-0.000206594 -1.01467e-05 0)
(-0.000181726 -1.01994e-05 0)
(-0.000156739 -1.02436e-05 0)
(-0.000131655 -1.02806e-05 0)
(-0.000106494 -1.03097e-05 0)
(-8.12655e-05 -1.03252e-05 0)
(-5.60167e-05 -1.03093e-05 0)
(-3.1312e-05 -1.00939e-05 0)
(-8.49465e-06 -8.49934e-06 0)
(1.61933e-05 -3.53339e-05 0)
(4.73257e-05 -3.40105e-05 0)
(7.83271e-05 -3.87321e-05 0)
(0.000107954 -4.11913e-05 0)
(0.000139115 -4.24671e-05 0)
(0.000170607 -4.26847e-05 0)
(0.00020242 -4.25154e-05 0)
(0.00023435 -4.22131e-05 0)
(0.000266271 -4.18502e-05 0)
(0.000298103 -4.14814e-05 0)
(0.000329778 -4.11096e-05 0)
(0.000361257 -4.07274e-05 0)
(0.000392508 -4.03344e-05 0)
(0.000423502 -3.99268e-05 0)
(0.000454212 -3.95014e-05 0)
(0.000484614 -3.90549e-05 0)
(0.000514683 -3.85844e-05 0)
(0.000544397 -3.80891e-05 0)
(0.000573732 -3.75678e-05 0)
(0.000602664 -3.70193e-05 0)
(0.000631169 -3.64427e-05 0)
(0.000659226 -3.5837e-05 0)
(0.000686809 -3.52019e-05 0)
(0.000713896 -3.45368e-05 0)
(0.000740462 -3.38417e-05 0)
(0.000766482 -3.31162e-05 0)
(0.000791933 -3.23605e-05 0)
(0.000816791 -3.15743e-05 0)
(0.00084103 -3.07576e-05 0)
(0.000864626 -2.99102e-05 0)
(0.000887555 -2.90321e-05 0)
(0.000909791 -2.81233e-05 0)
(0.00093131 -2.71834e-05 0)
(0.000952087 -2.62126e-05 0)
(0.000972098 -2.52105e-05 0)
(0.000991319 -2.41773e-05 0)
(0.00100972 -2.3113e-05 0)
(0.00102729 -2.20179e-05 0)
(0.00104399 -2.08921e-05 0)
(0.0010598 -1.97357e-05 0)
(0.0010747 -1.85488e-05 0)
(0.00108866 -1.73315e-05 0)
(0.00110167 -1.60843e-05 0)
(0.00111369 -1.48075e-05 0)
(0.00112471 -1.35021e-05 0)
(0.00113471 -1.21691e-05 0)
(0.00114365 -1.08093e-05 0)
(0.00115153 -9.42379e-06 0)
(0.00115833 -8.01352e-06 0)
(0.00116402 -6.57958e-06 0)
(0.00116858 -5.12307e-06 0)
(0.001172 -3.64514e-06 0)
(0.00117426 -2.14689e-06 0)
(0.00117535 -6.29107e-07 0)
(0.00117525 9.06501e-07 0)
(0.00117396 2.45736e-06 0)
(0.00117145 4.02136e-06 0)
(0.00116772 5.5973e-06 0)
(0.00116275 7.18375e-06 0)
(0.00115655 8.77922e-06 0)
(0.00114909 1.03821e-05 0)
(0.00114039 1.19906e-05 0)
(0.00113042 1.36026e-05 0)
(0.0011192 1.52157e-05 0)
(0.00110672 1.68275e-05 0)
(0.00109299 1.84356e-05 0)
(0.001078 2.00375e-05 0)
(0.00106177 2.1631e-05 0)
(0.00104429 2.32136e-05 0)
(0.00102559 2.47827e-05 0)
(0.00100566 2.63358e-05 0)
(0.000984533 2.78701e-05 0)
(0.000962213 2.93831e-05 0)
(0.000938721 3.08724e-05 0)
(0.000914075 3.23355e-05 0)
(0.000888299 3.37697e-05 0)
(0.000861415 3.51724e-05 0)
(0.00083345 3.65409e-05 0)
(0.000804432 3.78724e-05 0)
(0.000774391 3.91643e-05 0)
(0.000743358 4.04141e-05 0)
(0.000711368 4.1619e-05 0)
(0.000678456 4.27765e-05 0)
(0.00064466 4.38841e-05 0)
(0.00061002 4.49395e-05 0)
(0.000574578 4.59408e-05 0)
(0.000538376 4.68857e-05 0)
(0.000501461 4.77721e-05 0)
(0.000463877 4.85977e-05 0)
(0.000425673 4.93607e-05 0)
(0.000386898 5.00597e-05 0)
(0.000347602 5.06932e-05 0)
(0.000307836 5.12599e-05 0)
(0.000267654 5.17584e-05 0)
(0.000227108 5.21876e-05 0)
(0.000186253 5.2547e-05 0)
(0.000145145 5.28358e-05 0)
(0.00010384 5.30536e-05 0)
(6.23939e-05 5.31993e-05 0)
(2.08641e-05 5.32722e-05 0)
(-2.06972e-05 5.3272e-05 0)
(-6.22269e-05 5.31989e-05 0)
(-0.000103673 5.30534e-05 0)
(-0.000144978 5.28361e-05 0)
(-0.000186086 5.25476e-05 0)
(-0.000226941 5.2188e-05 0)
(-0.000267488 5.17585e-05 0)
(-0.000307671 5.12601e-05 0)
(-0.000347439 5.06937e-05 0)
(-0.000386737 5.00607e-05 0)
(-0.000425515 4.93624e-05 0)
(-0.000463722 4.86002e-05 0)
(-0.000501308 4.77758e-05 0)
(-0.000538227 4.6891e-05 0)
(-0.000574431 4.59473e-05 0)
(-0.000609876 4.49467e-05 0)
(-0.000644519 4.38915e-05 0)
(-0.000678318 4.27841e-05 0)
(-0.000711233 4.1627e-05 0)
(-0.000743228 4.04225e-05 0)
(-0.000774265 3.91732e-05 0)
(-0.000804312 3.78819e-05 0)
(-0.000833334 3.65511e-05 0)
(-0.000861304 3.51839e-05 0)
(-0.000888192 3.37826e-05 0)
(-0.000913973 3.23494e-05 0)
(-0.000938622 3.08875e-05 0)
(-0.00096212 2.93994e-05 0)
(-0.000984445 2.78872e-05 0)
(-0.00100558 2.63539e-05 0)
(-0.00102551 2.48018e-05 0)
(-0.00104422 2.32338e-05 0)
(-0.00106171 2.16529e-05 0)
(-0.00107795 2.00611e-05 0)
(-0.00109295 1.8461e-05 0)
(-0.00110669 1.68555e-05 0)
(-0.00111918 1.52467e-05 0)
(-0.00113041 1.36362e-05 0)
(-0.00114038 1.2026e-05 0)
(-0.0011491 1.0419e-05 0)
(-0.00115656 8.81655e-06 0)
(-0.00116277 7.21978e-06 0)
(-0.00116774 5.63121e-06 0)
(-0.00117148 4.05275e-06 0)
(-0.001174 2.48581e-06 0)
(-0.0011753 9.31637e-07 0)
(-0.0011754 -6.07393e-07 0)
(-0.00117432 -2.12718e-06 0)
(-0.00117207 -3.62504e-06 0)
(-0.00116866 -5.10048e-06 0)
(-0.00116411 -6.55305e-06 0)
(-0.00115843 -7.98157e-06 0)
(-0.00115165 -9.38526e-06 0)
(-0.00114378 -1.07639e-05 0)
(-0.00113484 -1.21177e-05 0)
(-0.00112486 -1.34466e-05 0)
(-0.00111385 -1.47491e-05 0)
(-0.00110184 -1.60241e-05 0)
(-0.00108885 -1.72709e-05 0)
(-0.0010749 -1.84889e-05 0)
(-0.00106001 -1.96771e-05 0)
(-0.00104421 -2.08341e-05 0)
(-0.00102753 -2.19593e-05 0)
(-0.00100998 -2.30522e-05 0)
(-0.000991589 -2.41132e-05 0)
(-0.000972384 -2.51418e-05 0)
(-0.000952388 -2.61399e-05 0)
(-0.000931626 -2.71064e-05 0)
(-0.000910121 -2.80424e-05 0)
(-0.0008879 -2.89481e-05 0)
(-0.000864988 -2.98241e-05 0)
(-0.00084141 -3.06702e-05 0)
(-0.000817193 -3.14836e-05 0)
(-0.00079236 -3.2263e-05 0)
(-0.000766936 -3.3007e-05 0)
(-0.000740941 -3.37164e-05 0)
(-0.000714397 -3.43948e-05 0)
(-0.000687331 -3.50451e-05 0)
(-0.000659767 -3.56688e-05 0)
(-0.000631733 -3.62657e-05 0)
(-0.000603256 -3.68341e-05 0)
(-0.000574358 -3.73725e-05 0)
(-0.000545059 -3.78786e-05 0)
(-0.000515381 -3.83506e-05 0)
(-0.000485344 -3.87877e-05 0)
(-0.000454971 -3.91911e-05 0)
(-0.000424287 -3.95656e-05 0)
(-0.000393314 -3.99155e-05 0)
(-0.000362079 -4.02419e-05 0)
(-0.000330605 -4.05443e-05 0)
(-0.000298913 -4.08198e-05 0)
(-0.000267021 -4.10646e-05 0)
(-0.000234952 -4.12772e-05 0)
(-0.000202728 -4.1459e-05 0)
(-0.000170375 -4.16116e-05 0)
(-0.000137914 -4.17318e-05 0)
(-0.000105336 -4.18047e-05 0)
(-7.26685e-05 -4.17365e-05 0)
(-4.06387e-05 -4.06604e-05 0)
(-1.00723e-05 -3.13074e-05 0)
(1.21257e-05 -6.26769e-05 0)
(4.45765e-05 -6.70787e-05 0)
(7.9943e-05 -6.8903e-05 0)
(0.000112211 -7.12754e-05 0)
(0.000144657 -7.28929e-05 0)
(0.000177103 -7.35967e-05 0)
(0.000209649 -7.37712e-05 0)
(0.000242234 -7.36532e-05 0)
(0.000274788 -7.33602e-05 0)
(0.000307252 -7.29609e-05 0)
(0.000339576 -7.24842e-05 0)
(0.000371718 -7.19436e-05 0)
(0.000403644 -7.13475e-05 0)
(0.000435322 -7.06998e-05 0)
(0.000466723 -7.00018e-05 0)
(0.000497818 -6.92535e-05 0)
(0.000528582 -6.84542e-05 0)
(0.000558989 -6.76035e-05 0)
(0.000589015 -6.67009e-05 0)
(0.000618633 -6.57457e-05 0)
(0.000647819 -6.47373e-05 0)
(0.00067655 -6.36752e-05 0)
(0.000704799 -6.25591e-05 0)
(0.000732543 -6.13886e-05 0)
(0.000759758 -6.01636e-05 0)
(0.000786417 -5.88836e-05 0)
(0.000812496 -5.75484e-05 0)
(0.000837969 -5.61578e-05 0)
(0.000862812 -5.47117e-05 0)
(0.000886998 -5.32101e-05 0)
(0.000910502 -5.1653e-05 0)
(0.000933298 -5.00403e-05 0)
(0.000955361 -4.83718e-05 0)
(0.000976666 -4.6647e-05 0)
(0.000997187 -4.4866e-05 0)
(0.0010169 -4.30289e-05 0)
(0.00103578 -4.1136e-05 0)
(0.00105379 -3.91877e-05 0)
(0.00107092 -3.71846e-05 0)
(0.00108714 -3.51268e-05 0)
(0.00110243 -3.30147e-05 0)
(0.00111676 -3.08488e-05 0)
(0.00113011 -2.86297e-05 0)
(0.00114245 -2.63585e-05 0)
(0.00115377 -2.40367e-05 0)
(0.00116403 -2.16656e-05 0)
(0.00117322 -1.9247e-05 0)
(0.00118132 -1.67824e-05 0)
(0.00118831 -1.42734e-05 0)
(0.00119416 -1.17218e-05 0)
(0.00119886 -9.12972e-06 0)
(0.00120239 -6.49919e-06 0)
(0.00120473 -3.83261e-06 0)
(0.00120587 -1.13262e-06 0)
(0.00120579 1.5984e-06 0)
(0.00120448 4.35818e-06 0)
(0.00120193 7.14371e-06 0)
(0.00119812 9.95197e-06 0)
(0.00119304 1.278e-05 0)
(0.00118669 1.56248e-05 0)
(0.00117906 1.84829e-05 0)
(0.00117014 2.13507e-05 0)
(0.00115993 2.42244e-05 0)
(0.00114843 2.71e-05 0)
(0.00113564 2.99732e-05 0)
(0.00112157 3.284e-05 0)
(0.0011062 3.56962e-05 0)
(0.00108956 3.85373e-05 0)
(0.00107164 4.13589e-05 0)
(0.00105246 4.41565e-05 0)
(0.00103202 4.69252e-05 0)
(0.00101035 4.96606e-05 0)
(0.000987459 5.2358e-05 0)
(0.000963362 5.50131e-05 0)
(0.00093808 5.76212e-05 0)
(0.000911637 6.01778e-05 0)
(0.000884057 6.2678e-05 0)
(0.000855366 6.51171e-05 0)
(0.000825595 6.74904e-05 0)
(0.000794772 6.97931e-05 0)
(0.000762932 7.20207e-05 0)
(0.000730109 7.41685e-05 0)
(0.000696339 7.6232e-05 0)
(0.000661662 7.82068e-05 0)
(0.000626118 8.00889e-05 0)
(0.000589749 8.18743e-05 0)
(0.000552601 8.35589e-05 0)
(0.000514719 8.5139e-05 0)
(0.00047615 8.66107e-05 0)
(0.000436944 8.7971e-05 0)
(0.000397151 8.92169e-05 0)
(0.000356823 9.03459e-05 0)
(0.000316012 9.13557e-05 0)
(0.000274772 9.2244e-05 0)
(0.000233159 9.30089e-05 0)
(0.000191229 9.3649e-05 0)
(0.000149037 9.41631e-05 0)
(0.000106643 9.455e-05 0)
(6.41033e-05 9.48085e-05 0)
(2.14777e-05 9.49377e-05 0)
(-2.11803e-05 9.49375e-05 0)
(-6.38054e-05 9.48082e-05 0)
(-0.000106345 9.45498e-05 0)
(-0.000148739 9.41631e-05 0)
(-0.00019093 9.36487e-05 0)
(-0.000232861 9.30077e-05 0)
(-0.000274475 9.22417e-05 0)
(-0.000315716 9.13526e-05 0)
(-0.000356529 9.03425e-05 0)
(-0.000396859 8.92133e-05 0)
(-0.000436654 8.79677e-05 0)
(-0.000475862 8.66083e-05 0)
(-0.000514433 8.5138e-05 0)
(-0.000552317 8.356e-05 0)
(-0.000589467 8.18772e-05 0)
(-0.000625837 8.00935e-05 0)
(-0.000661383 7.82128e-05 0)
(-0.000696063 7.62394e-05 0)
(-0.000729835 7.41772e-05 0)
(-0.000762662 7.20306e-05 0)
(-0.000794506 6.98041e-05 0)
(-0.000825332 6.75025e-05 0)
(-0.000855107 6.51304e-05 0)
(-0.0008838 6.26923e-05 0)
(-0.000911383 6.01931e-05 0)
(-0.000937829 5.76371e-05 0)
(-0.000963112 5.50292e-05 0)
(-0.000987212 5.23743e-05 0)
(-0.00101011 4.96766e-05 0)
(-0.00103178 4.69409e-05 0)
(-0.00105222 4.41724e-05 0)
(-0.00107141 4.13753e-05 0)
(-0.00108933 3.8555e-05 0)
(-0.00110598 3.57156e-05 0)
(-0.00112135 3.28612e-05 0)
(-0.00113543 2.99965e-05 0)
(-0.00114822 2.71259e-05 0)
(-0.00115972 2.4253e-05 0)
(-0.00116993 2.1381e-05 0)
(-0.00117885 1.85146e-05 0)
(-0.00118649 1.5658e-05 0)
(-0.00119284 1.28133e-05 0)
(-0.00119792 9.98392e-06 0)
(-0.00120173 7.17361e-06 0)
(-0.00120429 4.38586e-06 0)
(-0.0012056 1.62382e-06 0)
(-0.00120568 -1.10969e-06 0)
(-0.00120455 -3.81156e-06 0)
(-0.00120222 -6.47803e-06 0)
(-0.0011987 -9.10621e-06 0)
(-0.001194 -1.16947e-05 0)
(-0.00118816 -1.42417e-05 0)
(-0.00118117 -1.6745e-05 0)
(-0.00117308 -1.92033e-05 0)
(-0.00116389 -2.1616e-05 0)
(-0.00115362 -2.39824e-05 0)
(-0.00114231 -2.63005e-05 0)
(-0.00112996 -2.85686e-05 0)
(-0.00111661 -3.07857e-05 0)
(-0.00110229 -3.29509e-05 0)
(-0.001087 -3.50634e-05 0)
(-0.00107078 -3.71218e-05 0)
(-0.00105366 -3.91253e-05 0)
(-0.00103564 -4.10721e-05 0)
(-0.00101677 -4.29633e-05 0)
(-0.000997064 -4.47982e-05 0)
(-0.000976545 -4.65778e-05 0)
(-0.000955241 -4.83005e-05 0)
(-0.000933177 -4.99669e-05 0)
(-0.000910379 -5.1578e-05 0)
(-0.000886876 -5.31332e-05 0)
(-0.000862692 -5.4633e-05 0)
(-0.000837854 -5.60759e-05 0)
(-0.000812388 -5.74611e-05 0)
(-0.000786315 -5.87878e-05 0)
(-0.000759656 -6.00568e-05 0)
(-0.000732436 -6.12709e-05 0)
(-0.000704678 -6.24314e-05 0)
(-0.000676411 -6.35399e-05 0)
(-0.000647665 -6.45972e-05 0)
(-0.000618466 -6.56015e-05 0)
(-0.000588838 -6.65513e-05 0)
(-0.000558802 -6.74452e-05 0)
(-0.000528375 -6.82811e-05 0)
(-0.00049758 -6.90595e-05 0)
(-0.00046644 -6.97826e-05 0)
(-0.000434983 -7.04543e-05 0)
(-0.000403233 -7.10796e-05 0)
(-0.000371216 -7.16609e-05 0)
(-0.000338954 -7.21966e-05 0)
(-0.000306467 -7.26833e-05 0)
(-0.000273777 -7.31167e-05 0)
(-0.000240904 -7.34944e-05 0)
(-0.000207873 -7.382e-05 0)
(-0.000174709 -7.40966e-05 0)
(-0.000141428 -7.43208e-05 0)
(-0.000108027 -7.44757e-05 0)
(-7.45511e-05 -7.4435e-05 0)
(-4.17972e-05 -7.26999e-05 0)
(-1.03049e-05 -5.60046e-05 0)
(1.03419e-05 -9.06474e-05 0)
(4.21976e-05 -0.000103263 0)
(7.7935e-05 -0.000103937 0)
(0.00011149 -0.000105121 0)
(0.000144684 -0.000106082 0)
(0.000177641 -0.000106513 0)
(0.000210515 -0.000106555 0)
(0.000243323 -0.000106343 0)
(0.000276045 -0.000105951 0)
(0.000308649 -0.000105422 0)
(0.000341099 -0.000104781 0)
(0.00037336 -0.000104043 0)
(0.000405401 -0.000103218 0)
(0.000437193 -0.000102311 0)
(0.000468707 -0.000101324 0)
(0.000499917 -0.000100261 0)
(0.000530796 -9.91196e-05 0)
(0.000561319 -9.79013e-05 0)
(0.00059146 -9.66057e-05 0)
(0.000621195 -9.52322e-05 0)
(0.000650499 -9.37806e-05 0)
(0.000679346 -9.22506e-05 0)
(0.000707712 -9.06418e-05 0)
(0.000735573 -8.89536e-05 0)
(0.000762904 -8.71858e-05 0)
(0.00078968 -8.53378e-05 0)
(0.000815875 -8.34093e-05 0)
(0.000841463 -8.14001e-05 0)
(0.00086642 -7.93099e-05 0)
(0.00089072 -7.71388e-05 0)
(0.000914336 -7.48866e-05 0)
(0.000937244 -7.25529e-05 0)
(0.000959418 -7.01376e-05 0)
(0.000980832 -6.76403e-05 0)
(0.00100146 -6.50611e-05 0)
(0.00102128 -6.24004e-05 0)
(0.00104026 -5.96585e-05 0)
(0.00105838 -5.68362e-05 0)
(0.00107561 -5.39339e-05 0)
(0.00109193 -5.09521e-05 0)
(0.00110731 -4.78914e-05 0)
(0.00112173 -4.47528e-05 0)
(0.00113517 -4.15373e-05 0)
(0.0011476 -3.82466e-05 0)
(0.00115899 -3.48826e-05 0)
(0.00116934 -3.14472e-05 0)
(0.00117861 -2.79425e-05 0)
(0.00118678 -2.43708e-05 0)
(0.00119383 -2.07344e-05 0)
(0.00119974 -1.7036e-05 0)
(0.0012045 -1.32785e-05 0)
(0.00120808 -9.46502e-06 0)
(0.00121047 -5.59898e-06 0)
(0.00121165 -1.68393e-06 0)
(0.00121161 2.27677e-06 0)
(0.00121033 6.27944e-06 0)
(0.00120779 1.03201e-05 0)
(0.001204 1.43943e-05 0)
(0.00119893 1.84977e-05 0)
(0.00119258 2.26254e-05 0)
(0.00118494 2.67724e-05 0)
(0.00117601 3.09334e-05 0)
(0.00116579 3.51029e-05 0)
(0.00115426 3.9275e-05 0)
(0.00114144 4.34439e-05 0)
(0.00112732 4.76036e-05 0)
(0.0011119 5.17478e-05 0)
(0.0010952 5.58704e-05 0)
(0.00107722 5.99648e-05 0)
(0.00105796 6.40243e-05 0)
(0.00103745 6.80422e-05 0)
(0.00101569 7.2012e-05 0)
(0.000992697 7.59271e-05 0)
(0.000968495 7.9781e-05 0)
(0.0009431 8.35668e-05 0)
(0.000916536 8.72777e-05 0)
(0.000888827 9.09068e-05 0)
(0.00086 9.44472e-05 0)
(0.000830084 9.7892e-05 0)
(0.000799111 0.000101234 0)
(0.000767112 0.000104468 0)
(0.000734122 0.000107585 0)
(0.00070018 0.00011058 0)
(0.000665322 0.000113447 0)
(0.000629592 0.000116179 0)
(0.000593031 0.00011877 0)
(0.000555684 0.000121215 0)
(0.000517597 0.000123508 0)
(0.000478819 0.000125645 0)
(0.000439398 0.00012762 0)
(0.000399386 0.000129429 0)
(0.000358835 0.000131069 0)
(0.000317797 0.000132536 0)
(0.000276328 0.000133827 0)
(0.000234482 0.000134938 0)
(0.000192317 0.000135868 0)
(0.000149889 0.000136615 0)
(0.000107256 0.000137177 0)
(6.44761e-05 0.000137553 0)
(2.16099e-05 0.000137741 0)
(-2.12887e-05 0.000137741 0)
(-6.41544e-05 0.000137554 0)
(-0.000106934 0.00013718 0)
(-0.000149567 0.000136618 0)
(-0.000191996 0.000135871 0)
(-0.000234162 0.00013494 0)
(-0.000276009 0.000133828 0)
(-0.000317479 0.000132537 0)
(-0.000358518 0.000131069 0)
(-0.000399071 0.000129429 0)
(-0.000439084 0.00012762 0)
(-0.000478506 0.000125646 0)
(-0.000517286 0.000123511 0)
(-0.000555374 0.000121219 0)
(-0.000592722 0.000118775 0)
(-0.000629285 0.000116186 0)
(-0.000665018 0.000113455 0)
(-0.000699877 0.000110591 0)
(-0.000733822 0.000107597 0)
(-0.000766815 0.000104481 0)
(-0.000798818 0.000101249 0)
(-0.000829795 9.79079e-05 0)
(-0.000859714 9.44646e-05 0)
(-0.000888544 9.09253e-05 0)
(-0.000916255 8.72971e-05 0)
(-0.000942822 8.35867e-05 0)
(-0.000968218 7.98008e-05 0)
(-0.000992424 7.59464e-05 0)
(-0.00101542 7.20303e-05 0)
(-0.00103718 6.80592e-05 0)
(-0.0010577 6.40407e-05 0)
(-0.00107696 5.99811e-05 0)
(-0.00109494 5.58873e-05 0)
(-0.00111165 5.1766e-05 0)
(-0.00112707 4.76233e-05 0)
(-0.00114119 4.34655e-05 0)
(-0.00115402 3.92988e-05 0)
(-0.00116554 3.51293e-05 0)
(-0.00117577 3.09622e-05 0)
(-0.0011847 2.68028e-05 0)
(-0.00119234 2.26574e-05 0)
(-0.00119869 1.85308e-05 0)
(-0.00120376 1.44273e-05 0)
(-0.00120755 1.03522e-05 0)
(-0.00121009 6.31035e-06 0)
(-0.00121138 2.30656e-06 0)
(-0.00121142 -1.65514e-06 0)
(-0.00121025 -5.57121e-06 0)
(-0.00120787 -9.43714e-06 0)
(-0.00120429 -1.32487e-05 0)
(-0.00119954 -1.7003e-05 0)
(-0.00119363 -2.06972e-05 0)
(-0.00118658 -2.43288e-05 0)
(-0.00117841 -2.78954e-05 0)
(-0.00116914 -3.13949e-05 0)
(-0.00115879 -3.48259e-05 0)
(-0.00114739 -3.81866e-05 0)
(-0.00113496 -4.14752e-05 0)
(-0.00112152 -4.46896e-05 0)
(-0.0011071 -4.78276e-05 0)
(-0.00109172 -5.08889e-05 0)
(-0.0010754 -5.38722e-05 0)
(-0.00105817 -5.67759e-05 0)
(-0.00104006 -5.95981e-05 0)
(-0.00102108 -6.2339e-05 0)
(-0.00100127 -6.49992e-05 0)
(-0.000980636 -6.75777e-05 0)
(-0.000959219 -7.00743e-05 0)
(-0.000937042 -7.24884e-05 0)
(-0.00091413 -7.48205e-05 0)
(-0.00089051 -7.7071e-05 0)
(-0.000866209 -7.92403e-05 0)
(-0.000841253 -8.13278e-05 0)
(-0.000815666 -8.33325e-05 0)
(-0.000789472 -8.52535e-05 0)
(-0.000762692 -8.70925e-05 0)
(-0.00073535 -8.88514e-05 0)
(-0.000707471 -9.05313e-05 0)
(-0.000679083 -9.21347e-05 0)
(-0.000650214 -9.36619e-05 0)
(-0.000620891 -9.51114e-05 0)
(-0.000591138 -9.64825e-05 0)
(-0.000560973 -9.7774e-05 0)
(-0.000530418 -9.89844e-05 0)
(-0.000499495 -0.000100116 0)
(-0.00046823 -0.000101172 0)
(-0.00043665 -0.000102155 0)
(-0.000404781 -0.000103068 0)
(-0.000372643 -0.000103913 0)
(-0.000340258 -0.000104688 0)
(-0.000307643 -0.000105388 0)
(-0.000274821 -0.000106011 0)
(-0.000241818 -0.000106553 0)
(-0.000208661 -0.000107022 0)
(-0.000175372 -0.000107423 0)
(-0.000141961 -0.000107755 0)
(-0.000108431 -0.000107998 0)
(-7.48434e-05 -0.000107968 0)
(-4.20139e-05 -0.000105486 0)
(-1.0367e-05 -8.13168e-05 0)
(1.00663e-05 -0.000115206 0)
(4.1233e-05 -0.000137361 0)
(7.64607e-05 -0.000138361 0)
(0.000110525 -0.000138957 0)
(0.000144203 -0.000139492 0)
(0.000177571 -0.000139692 0)
(0.000210739 -0.000139591 0)
(0.00024376 -0.000139253 0)
(0.000276649 -0.000138723 0)
(0.000309392 -0.000138035 0)
(0.000341962 -0.000137209 0)
(0.000374332 -0.000136259 0)
(0.000406475 -0.000135195 0)
(0.000438364 -0.000134022 0)
(0.000469972 -0.000132744 0)
(0.000501276 -0.000131362 0)
(0.000532248 -0.000129877 0)
(0.000562864 -0.00012829 0)
(0.000593099 -0.000126601 0)
(0.000622927 -0.000124809 0)
(0.000652325 -0.000122914 0)
(0.000681266 -0.000120917 0)
(0.000709728 -0.000118816 0)
(0.000737684 -0.00011661 0)
(0.000765111 -0.0001143 0)
(0.000791983 -0.000111884 0)
(0.000818274 -0.000109362 0)
(0.00084396 -0.000106735 0)
(0.000869014 -0.000104001 0)
(0.00089341 -0.00010116 0)
(0.000917124 -9.82121e-05 0)
(0.000940129 -9.5157e-05 0)
(0.000962401 -9.19943e-05 0)
(0.000983912 -8.87238e-05 0)
(0.00100464 -8.53459e-05 0)
(0.00102455 -8.18608e-05 0)
(0.00104363 -7.82693e-05 0)
(0.00106184 -7.45719e-05 0)
(0.00107917 -7.07692e-05 0)
(0.00109558 -6.6862e-05 0)
(0.00111105 -6.28513e-05 0)
(0.00112557 -5.87384e-05 0)
(0.00113909 -5.45251e-05 0)
(0.00115161 -5.02132e-05 0)
(0.00116309 -4.5805e-05 0)
(0.00117352 -4.13029e-05 0)
(0.00118287 -3.67095e-05 0)
(0.00119112 -3.20278e-05 0)
(0.00119824 -2.72609e-05 0)
(0.00120423 -2.24124e-05 0)
(0.00120905 -1.7486e-05 0)
(0.0012127 -1.24858e-05 0)
(0.00121515 -7.41591e-06 0)
(0.00121638 -2.28083e-06 0)
(0.00121639 2.91447e-06 0)
(0.00121515 8.16508e-06 0)
(0.00121266 1.34659e-05 0)
(0.0012089 1.8811e-05 0)
(0.00120386 2.41946e-05 0)
(0.00119753 2.96103e-05 0)
(0.00118991 3.50514e-05 0)
(0.001181 4.05111e-05 0)
(0.00117077 4.5982e-05 0)
(0.00115925 5.14568e-05 0)
(0.00114641 5.69275e-05 0)
(0.00113228 6.23864e-05 0)
(0.00111684 6.78254e-05 0)
(0.0011001 7.32363e-05 0)
(0.00108208 7.86105e-05 0)
(0.00106278 8.39394e-05 0)
(0.00104221 8.92142e-05 0)
(0.00102039 9.44264e-05 0)
(0.000997325 9.95674e-05 0)
(0.000973043 0.000104628 0)
(0.000947562 0.0001096 0)
(0.000920904 0.000114473 0)
(0.000893092 0.000119238 0)
(0.000864154 0.000123888 0)
(0.000834119 0.000128411 0)
(0.000803019 0.0001328 0)
(0.000770885 0.000137046 0)
(0.000737754 0.00014114 0)
(0.000703661 0.000145072 0)
(0.000668647 0.000148836 0)
(0.000632752 0.000152423 0)
(0.000596021 0.000155825 0)
(0.000558496 0.000159035 0)
(0.000520227 0.000162047 0)
(0.000481259 0.000164853 0)
(0.000441645 0.000167448 0)
(0.000401434 0.000169826 0)
(0.000360679 0.000171982 0)
(0.000319434 0.000173911 0)
(0.000277754 0.000175608 0)
(0.000235694 0.00017707 0)
(0.000193313 0.000178293 0)
(0.000150666 0.000179275 0)
(0.000107813 0.000180015 0)
(6.48121e-05 0.000180509 0)
(2.17236e-05 0.000180757 0)
(-2.13977e-05 0.000180758 0)
(-6.44859e-05 0.000180512 0)
(-0.000107487 0.00018002 0)
(-0.000150342 0.000179282 0)
(-0.000192989 0.0001783 0)
(-0.000235372 0.000177077 0)
(-0.000277433 0.000175615 0)
(-0.000319114 0.000173918 0)
(-0.00036036 0.00017199 0)
(-0.000401115 0.000169835 0)
(-0.000441328 0.000167457 0)
(-0.000480943 0.000164863 0)
(-0.000519911 0.000162057 0)
(-0.000558182 0.000159046 0)
(-0.000595708 0.000155836 0)
(-0.000632441 0.000152434 0)
(-0.000668338 0.000148848 0)
(-0.000703354 0.000145084 0)
(-0.000737449 0.000141152 0)
(-0.000770585 0.00013706 0)
(-0.000802722 0.000132816 0)
(-0.000833826 0.000128428 0)
(-0.000863864 0.000123906 0)
(-0.000892805 0.000119259 0)
(-0.000920619 0.000114494 0)
(-0.000947281 0.000109622 0)
(-0.000972764 0.000104651 0)
(-0.000997049 9.95904e-05 0)
(-0.00102011 9.44489e-05 0)
(-0.00104194 8.92357e-05 0)
(-0.00106251 8.39604e-05 0)
(-0.00108182 7.86315e-05 0)
(-0.00109984 7.32575e-05 0)
(-0.00111658 6.78476e-05 0)
(-0.00113202 6.24101e-05 0)
(-0.00114616 5.6953e-05 0)
(-0.00115899 5.1484e-05 0)
(-0.00117052 4.60114e-05 0)
(-0.00118075 4.05429e-05 0)
(-0.00118967 3.5085e-05 0)
(-0.00119729 2.96453e-05 0)
(-0.00120361 2.42308e-05 0)
(-0.00120865 1.88479e-05 0)
(-0.00121242 1.3503e-05 0)
(-0.00121491 8.20201e-06 0)
(-0.00121615 2.95098e-06 0)
(-0.00121615 -2.24451e-06 0)
(-0.00121492 -7.37961e-06 0)
(-0.00121248 -1.24494e-05 0)
(-0.00120883 -1.74487e-05 0)
(-0.00120401 -2.23727e-05 0)
(-0.00119803 -2.72178e-05 0)
(-0.00119091 -3.19809e-05 0)
(-0.00118266 -3.66589e-05 0)
(-0.00117331 -4.12487e-05 0)
(-0.00116288 -4.57478e-05 0)
(-0.0011514 -5.01546e-05 0)
(-0.00113888 -5.44663e-05 0)
(-0.00112535 -5.86801e-05 0)
(-0.00111084 -6.27933e-05 0)
(-0.00109537 -6.68047e-05 0)
(-0.00107896 -7.07135e-05 0)
(-0.00106163 -7.45174e-05 0)
(-0.00104342 -7.82156e-05 0)
(-0.00102435 -8.18061e-05 0)
(-0.00100443 -8.52901e-05 0)
(-0.000983707 -8.86668e-05 0)
(-0.000962192 -9.19361e-05 0)
(-0.000939915 -9.50977e-05 0)
(-0.000916906 -9.81507e-05 0)
(-0.000893189 -0.000101096 0)
(-0.00086879 -0.000103936 0)
(-0.000843735 -0.000106669 0)
(-0.000818049 -0.000109293 0)
(-0.000791755 -0.00011181 0)
(-0.000764878 -0.000114217 0)
(-0.00073744 -0.000116519 0)
(-0.000709467 -0.000118718 0)
(-0.000680986 -0.000120815 0)
(-0.000652024 -0.000122812 0)
(-0.000622607 -0.000124707 0)
(-0.000592758 -0.0001265 0)
(-0.000562499 -0.00012819 0)
(-0.000531848 -0.00012978 0)
(-0.000500833 -0.000131268 0)
(-0.000469479 -0.000132658 0)
(-0.000437812 -0.000133952 0)
(-0.000405856 -0.000135152 0)
(-0.000373631 -0.000136256 0)
(-0.000341155 -0.000137265 0)
(-0.000308448 -0.000138174 0)
(-0.000275531 -0.000138982 0)
(-0.000242436 -0.000139691 0)
(-0.000209193 -0.000140307 0)
(-0.000175822 -0.000140835 0)
(-0.000142328 -0.000141273 0)
(-0.000108714 -0.000141601 0)
(-7.50493e-05 -0.000141574 0)
(-4.2153e-05 -0.000138336 0)
(-1.04138e-05 -0.000106722 0)
(1.00039e-05 -0.000139736 0)
(4.10999e-05 -0.000171111 0)
(7.5796e-05 -0.000172836 0)
(0.000110062 -0.000173025 0)
(0.000143994 -0.000173174 0)
(0.000177629 -0.000173124 0)
(0.00021104 -0.000172843 0)
(0.000244274 -0.000172343 0)
(0.000277345 -0.000171647 0)
(0.000310246 -0.000170778 0)
(0.000342958 -0.000169752 0)
(0.00037546 -0.000168581 0)
(0.000407727 -0.000167271 0)
(0.000439736 -0.000165829 0)
(0.000471462 -0.000164256 0)
(0.000502881 -0.000162554 0)
(0.000533968 -0.000160726 0)
(0.000564699 -0.00015877 0)
(0.000595049 -0.000156688 0)
(0.000624992 -0.000154478 0)