/*--------------------------------*- C++ -*----------------------------------*\
| =========                 |                                                 |
| \\      /  F ield         | OpenFOAM: The Open Source CFD Toolbox           |
|  \\    /   O peration     | Version:  2412                                  |
|   \\  /    A nd           | Website:  www.openfoam.com                      |
|    \\/     M anipulation  |                                                 |
\*---------------------------------------------------------------------------*/
FoamFile
{
    version     2.0;
    format      ascii;
    arch        "LSB;label=32;scalar=64";
    class       volScalarField;
    location    "1.03";
    object      alpha.water;
}
// * * * * * * * * * * * * * * * * * * * * * * * * * * * * * * * * * * * * * //

dimensions      [0 0 0 0 0 0 0];

internalField   nonuniform List<scalar> 
40000
(
1.48142e-250
9.27017e-255
1.24395e-247
2.18781e-247
3.01437e-247
3.13052e-247
2.98766e-247
2.67684e-247
2.29308e-247
1.91184e-247
1.5538e-247
1.22947e-247
9.47675e-248
7.10747e-248
5.17899e-248
3.65977e-248
2.50215e-248
1.65221e-248
1.05119e-248
6.42771e-249
3.76676e-249
2.10906e-249
1.1245e-249
5.68843e-250
2.71926e-250
1.22311e-250
5.15215e-251
2.02193e-251
7.3502e-252
2.45934e-252
7.51891e-253
2.08356e-253
5.18644e-254
1.14817e-254
2.23551e-255
3.77978e-256
5.47008e-257
6.66466e-258
6.70708e-259
5.45386e-260
3.49376e-261
1.71223e-262
6.20409e-264
1.59728e-265
2.78977e-267
3.13408e-269
2.13714e-271
8.42084e-274
1.94456e-276
3.21902e-279
5.28392e-282
9.33728e-285
1.68512e-287
2.98208e-290
6.41234e-293
1.50253e-295
3.51453e-298
8.19771e-301
1.90477e-303
4.40405e-306
1.01215e-308
2.30959e-311
5.22524e-314
1.31455e-316
0
0
0
0
0
0
0
0
0
0
0
0
0
0
0
0
0
0
0
0
0
0
0
0
0
0
0
0
0
0
0
0
0
0
0
0
0
0
0
0
0
0
0
0
0
0
0
0
0
0
0
0
0
0
0
0
0
0
0
0
0
0
0
0
0
0
0
0
0
0
0
3.94373e-316
1.78548e-313
7.93918e-311
3.49639e-308
1.52695e-305
6.6205e-303
2.85298e-300
1.22328e-297
5.22446e-295
2.22488e-292
9.45761e-290
4.01709e-287
1.63794e-284
5.58986e-282
1.59017e-279
3.71857e-277
7.00443e-275
1.03629e-272
1.17185e-270
9.88402e-269
6.11841e-267
2.76773e-265
9.2157e-264
2.29545e-262
4.36754e-261
6.49358e-260
7.70963e-259
7.46042e-258
5.99433e-257
4.07064e-256
2.3733e-255
1.20474e-254
5.38983e-254
2.14818e-253
7.70358e-253
2.50782e-252
7.46849e-252
2.0475e-251
5.1947e-251
1.22631e-250
2.70846e-250
5.63012e-250
1.10779e-249
2.07197e-249
3.69602e-249
6.3048e-249
1.03057e-248
1.6173e-248
2.44231e-248
3.55824e-248
5.0135e-248
6.85161e-248
9.10553e-248
1.17865e-247
1.48746e-247
1.83055e-247
2.19756e-247
2.57598e-247
2.9529e-247
3.31489e-247
3.64638e-247
3.92702e-247
4.08191e-247
2.85056e-247
9.00549e-252
2.44232e-246
7.92427e-244
2.3871e-243
3.3266e-243
3.95671e-243
4.1285e-243
4.01708e-243
3.68668e-243
3.2459e-243
2.76716e-243
2.29175e-243
1.84568e-243
1.44577e-243
1.10083e-243
8.13902e-244
5.8348e-244
4.04866e-244
2.71425e-244
1.75415e-244
1.09033e-244
6.50029e-245
3.70611e-245
2.01422e-245
1.0398e-245
5.07868e-246
2.33708e-246
1.00854e-246
4.06039e-247
1.51643e-247
5.22077e-248
1.64514e-248
4.70756e-249
1.21257e-249
2.78406e-250
5.63549e-251
9.93211e-252
1.50253e-252
1.9196e-253
2.03276e-254
1.74625e-255
1.18707e-256
6.20411e-258
2.41057e-259
6.69487e-261
1.26955e-262
1.55929e-264
1.17055e-266
5.10081e-269
1.29567e-271
2.31067e-274
4.09037e-277
8.08617e-280
1.70529e-282
3.73279e-285
9.36741e-288
2.44743e-290
6.38286e-293
1.65991e-295
4.29986e-298
1.10831e-300
2.83939e-303
7.22209e-306
1.82168e-308
4.55137e-311
1.12497e-313
2.62851e-316
0
0
0
0
0
0
0
0
0
0
0
0
0
0
0
0
0
0
0
0
0
0
0
0
0
0
0
0
0
0
0
0
0
0
0
0
0
0
0
0
0
0
0
0
0
0
0
0
0
0
0
0
0
0
0
0
0
0
0
0
0
0
0
0
0
0
0
5.58573e-316
2.29271e-313
9.38355e-311
3.79492e-308
1.51836e-305
6.01736e-303
2.36489e-300
9.22763e-298
3.57874e-295
1.38105e-292
5.30872e-290
2.03485e-287
7.78554e-285
2.97647e-282
1.10324e-279
3.52357e-277
9.51686e-275
2.126e-272
3.82832e-270
5.4002e-268
5.79516e-266
4.61403e-264
2.68351e-262
1.13763e-260
3.54973e-259
8.30039e-258
1.48642e-256
2.08634e-255
2.34682e-254
2.16012e-253
1.65725e-252
1.07796e-251
6.03661e-251
2.95047e-250
1.27385e-249
4.90982e-249
1.70574e-248
5.38743e-248
1.55873e-247
4.15927e-247
1.02951e-246
2.37671e-246
5.14468e-246
1.04953e-245
2.0277e-245
3.7253e-245
6.53032e-245
1.09539e-244
1.76265e-244
2.72768e-244
4.06863e-244
5.86408e-244
8.18468e-244
1.10872e-243
1.4605e-243
1.87377e-243
2.34452e-243
2.86301e-243
3.41501e-243
3.98255e-243
4.54681e-243
5.0871e-243
5.57905e-243
5.99507e-243
6.23034e-243
4.3745e-243
1.51688e-247
1.13613e-242
1.65996e-239
2.42102e-239
2.78512e-239
2.99067e-239
3.00097e-239
2.87223e-239
2.63076e-239
2.3281e-239
2.00015e-239
1.67146e-239
1.35942e-239
1.07598e-239
8.28224e-240
6.19372e-240
4.4939e-240
3.15822e-240
2.14608e-240
1.40697e-240
8.87932e-241
5.3799e-241
3.1205e-241
1.72726e-241
9.09199e-242
4.53392e-242
2.13299e-242
9.42342e-243
3.88977e-243
1.49173e-243
5.28246e-244
1.71524e-244
5.06746e-245
1.35052e-245
3.21565e-246
6.76681e-247
1.2431e-247
1.96588e-248
2.6339e-249
2.93544e-250
2.66448e-251
1.92224e-252
1.07134e-253
4.46237e-255
1.33618e-256
2.74856e-258
3.68521e-260
3.03722e-262
1.45532e-264
4.00658e-267
7.37692e-270
1.2908e-272
2.53176e-275
5.33849e-278
1.1731e-280
2.96375e-283
7.79236e-286
2.0451e-288
5.35212e-291
1.39523e-293
3.61912e-296
9.33093e-299
2.38849e-301
6.06316e-304
1.52454e-306
3.79242e-309
9.32155e-312
2.26047e-314
6.57132e-317
0
0
0
0
0
0
0
0
0
0
0
0
0
0
0
0
0
0
0
0
0
0
0
0
0
0
0
0
0
0
0
0
0
0
0
0
0
0
0
0
0
0
0
0
0
0
0
0
0
0
0
0
0
0
0
0
0
0
0
0
0
0
0
9.85731e-317
3.89679e-314
1.62979e-311
6.71887e-309
2.73335e-306
1.09873e-303
4.36944e-301
1.72119e-298
6.7238e-296
2.60783e-293
1.00534e-290
3.85649e-288
1.47361e-285
5.61489e-283
2.1356e-280
8.11637e-278
2.98623e-275
9.4366e-273
2.51013e-270
5.48976e-268
9.60786e-266
1.30627e-263
1.33921e-261
1.01035e-259
5.53442e-258
2.20269e-256
6.44932e-255
1.41706e-253
2.39093e-252
3.17166e-251
3.38316e-250
2.96271e-249
2.17002e-248
1.3517e-247
7.26888e-247
3.42002e-246
1.4247e-245
5.31029e-245
1.78751e-244
5.47969e-244
1.54146e-243
4.00612e-243
9.67575e-243
2.18359e-242
4.62823e-242
9.25799e-242
1.75559e-241
3.16859e-241
5.46167e-241
9.01691e-241
1.42953e-240
2.18205e-240
3.21435e-240
4.58051e-240
6.32742e-240
8.48994e-240
1.10841e-239
1.41006e-239
1.75032e-239
2.12221e-239
2.51595e-239
2.91931e-239
3.31876e-239
3.69908e-239
4.04335e-239
4.33404e-239
4.49886e-239
3.1677e-239
1.2166e-243
3.8653e-239
1.11332e-235
1.42417e-235
1.48477e-235
1.50432e-235
1.46794e-235
1.38319e-235
1.26081e-235
1.11687e-235
9.63401e-236
8.09868e-236
6.63509e-236
5.29595e-236
4.1147e-236
3.10866e-236
2.28064e-236
1.62207e-236
1.1165e-236
7.42137e-237
4.75317e-237
2.92565e-237
1.72577e-237
9.72577e-238
5.21866e-238
2.65621e-238
1.27719e-238
5.77514e-239
2.44352e-239
9.62083e-240
3.50374e-240
1.17218e-240
3.57522e-241
9.85788e-242
2.43402e-242
5.32463e-243
1.0196e-243
1.68569e-244
2.3688e-245
2.77895e-246
2.66581e-247
2.04149e-248
1.21366e-249
5.42091e-251
1.75075e-252
3.90879e-254
5.72567e-256
5.18726e-258
2.73998e-260
8.22402e-263
1.57718e-265
2.72707e-268
5.27585e-271
1.10549e-273
2.42183e-276
6.12372e-279
1.61505e-281
4.25196e-284
1.11627e-286
2.91924e-289
7.59664e-292
1.96494e-294
5.04623e-297
1.28521e-299
3.24233e-302
8.09262e-305
1.99584e-307
4.85745e-310
1.16507e-312
2.75991e-315
0
0
0
0
0
0
0
0
0
0
0
0
0
0
0
0
0
0
0
0
0
0
0
0
0
0
0
0
0
0
0
0
0
0
0
0
0
0
0
0
0
0
0
0
0
0
0
0
0
0
0
0
0
0
0
0
0
0
0
0
0
4.04143e-315
1.74811e-312
7.40526e-310
3.08726e-307
1.26844e-304
5.14297e-302
2.06047e-299
8.16713e-297
3.20666e-294
1.24862e-291
4.82726e-289
1.85502e-286
7.09341e-284
2.70199e-281
1.02634e-278
3.89165e-276
1.47452e-273
5.39456e-271
1.68708e-268
4.4161e-266
9.44012e-264
1.60208e-261
2.09342e-259
2.04402e-257
1.45686e-255
7.49811e-254
2.79692e-252
7.67646e-251
1.58398e-249
2.51714e-248
3.15527e-247
3.19142e-246
2.65888e-245
1.85886e-244
1.1086e-243
5.72361e-243
2.59201e-242
1.04175e-241
3.75463e-241
1.22462e-240
3.64442e-240
9.96993e-240
2.52412e-239
5.94888e-239
1.31225e-238
2.72279e-238
5.33889e-238
9.93583e-238
1.7618e-237
2.9865e-237
4.85386e-237
7.58375e-237
1.14197e-236
1.66124e-236
2.3402e-236
3.19873e-236
4.25056e-236
5.49985e-236
6.93877e-236
8.54727e-236
1.02916e-235
1.21273e-235
1.39997e-235
1.58445e-235
1.75902e-235
1.91612e-235
2.04875e-235
2.12342e-235
1.49918e-235
6.39134e-240
1.08818e-235
4.56517e-232
5.69349e-232
5.6961e-232
5.58839e-232
5.3483e-232
4.98492e-232
4.52843e-232
4.01358e-232
3.47287e-232
2.93394e-232
2.41919e-232
1.94571e-232
1.5249e-232
1.16327e-232
8.62548e-233
6.20624e-233
4.32577e-233
2.91447e-233
1.89393e-233
1.18403e-233
7.10167e-234
4.07417e-234
2.22813e-234
1.15736e-234
5.68685e-235
2.63154e-235
1.14117e-235
4.61243e-236
1.72737e-236
5.95374e-237
1.87459e-237
5.34723e-238
1.36904e-238
3.11323e-239
6.21389e-240
1.07404e-240
1.58312e-241
1.95516e-242
1.98241e-243
1.61177e-244
1.02226e-245
4.8977e-247
1.70675e-248
4.13814e-250
6.6277e-252
6.60869e-254
3.8576e-256
1.26992e-258
2.56522e-261
4.4058e-264
8.40006e-267
1.74911e-269
3.82162e-272
9.66838e-275
2.56003e-277
6.76682e-280
1.78369e-282
4.68371e-285
1.22385e-287
3.1788e-290
8.19792e-293
2.09677e-295
5.31238e-298
1.33166e-300
3.29852e-303
8.06314e-306
1.94253e-308
4.60582e-311
1.07339e-313
2.29995e-316
0
0
0
0
0
0
0
0
0
0
0
0
0
0
0
0
0
0
0
0
0
0
0
0
0
0
0
0
0
0
0
0
0
0
0
0
0
0
0
0
0
0
0
0
0
0
0
0
0
0
0
0
0
0
0
0
0
2.95719e-316
1.37636e-313
6.01832e-311
2.58263e-308
1.08918e-305
4.52079e-303
1.84931e-300
7.46564e-298
2.97817e-295
1.17544e-292
4.59567e-290
1.782e-287
6.8608e-285
2.62565e-282
9.99936e-280
3.79356e-277
1.43523e-274
5.42053e-272
2.04577e-269
7.43118e-267
2.29569e-264
5.90031e-262
1.2296e-259
2.01746e-257
2.52519e-255
2.34013e-253
1.57089e-251
7.57805e-250
2.64476e-248
6.79651e-247
1.31613e-245
1.96904e-244
2.33175e-243
2.23585e-242
1.77197e-241
1.18228e-240
6.74992e-240
3.34548e-239
1.45818e-238
5.65414e-238
1.97046e-237
6.22752e-237
1.79928e-236
4.78743e-236
1.18083e-235
2.71578e-235
5.85533e-235
1.18923e-234
2.28558e-234
4.17425e-234
7.27191e-234
1.21236e-233
1.93993e-233
2.98721e-233
4.43783e-233
6.37569e-233
8.87862e-233
1.20079e-232
1.58019e-232
2.02633e-232
2.53541e-232
3.09959e-232
3.70676e-232
4.34165e-232
4.98576e-232
5.61688e-232
6.21069e-232
6.74271e-232
7.1916e-232
7.44171e-232
5.26842e-232
2.49422e-236
2.64509e-232
1.37614e-228
1.72116e-228
1.69096e-228
1.63072e-228
1.54295e-228
1.42963e-228
1.29638e-228
1.15023e-228
9.98434e-229
8.4756e-229
7.03179e-229
5.69722e-229
4.50284e-229
3.46756e-229
2.59806e-229
1.89078e-229
1.33428e-229
9.11058e-230
6.00618e-230
3.81334e-230
2.32537e-230
1.35789e-230
7.56815e-231
4.01142e-231
2.01403e-231
9.53655e-232
4.23816e-232
1.75836e-232
6.77122e-233
2.40426e-233
7.81403e-234
2.30573e-234
6.12086e-235
1.44683e-235
3.01006e-236
5.43932e-237
8.40981e-238
1.09343e-238
1.1719e-239
1.01164e-240
6.84635e-242
3.51914e-243
1.32367e-244
3.48691e-246
6.11048e-248
6.71339e-250
4.33968e-252
1.57518e-254
3.3888e-257
5.82275e-260
1.09338e-262
2.26262e-265
4.93282e-268
1.24865e-270
3.32267e-273
8.82676e-276
2.33847e-278
6.17194e-281
1.62107e-283
4.23252e-286
1.09729e-288
2.82146e-291
7.18686e-294
1.8113e-296
4.5111e-299
1.1088e-301
2.68612e-304
6.4046e-307
1.50081e-309
3.45124e-312
7.78678e-315
3.28568e-317
0
0
0
0
0
0
0
0
0
0
0
0
0
0
0
0
0
0
0
0
0
0
0
0
0
0
0
0
0
0
0
0
0
0
0
0
0
0
0
0
0
0
0
0
0
0
0
0
0
0
0
0
0
3.28581e-317
8.47706e-315
3.84792e-312
1.70774e-309
7.42584e-307
3.16873e-304
1.32891e-301
5.48533e-299
2.23158e-296
8.95992e-294
3.55503e-291
1.39563e-288
5.42773e-286
2.0936e-283
8.01865e-281
3.05299e-278
1.15676e-275
4.36636e-273
1.64368e-270
6.17712e-268
2.3199e-265
8.35226e-263
2.54378e-260
6.40489e-258
1.29773e-255
2.05219e-253
2.4522e-251
2.14959e-249
1.35502e-247
6.11265e-246
1.99279e-244
4.78957e-243
8.69819e-242
1.22457e-240
1.3696e-239
1.24476e-238
9.38313e-238
5.97426e-237
3.26495e-236
1.55344e-235
6.51687e-235
2.43796e-234
8.21545e-234
2.51598e-233
7.05786e-233
1.82657e-232
4.38955e-232
9.85188e-232
2.07609e-231
4.12741e-231
7.77526e-231
1.39355e-230
2.38512e-230
3.91101e-230
6.16162e-230
9.35155e-230
1.37073e-229
1.94492e-229
2.6775e-229
3.58303e-229
4.66924e-229
5.93386e-229
7.36345e-229
8.93421e-229
1.06123e-228
1.23558e-228
1.4114e-228
1.58263e-228
1.74297e-228
1.88626e-228
2.00706e-228
2.07331e-228
1.47174e-228
7.73515e-233
5.65708e-229
3.31883e-225
4.19083e-225
4.08464e-225
3.90568e-225
3.67441e-225
3.39513e-225
3.07805e-225
2.73618e-225
2.38355e-225
2.03343e-225
1.69751e-225
1.38542e-225
1.10414e-225
8.58256e-226
6.49712e-226
4.78203e-226
3.41622e-226
2.36378e-226
1.58077e-226
1.01918e-226
6.31816e-227
3.75509e-227
2.13271e-227
1.15341e-227
5.91673e-228
2.86656e-228
1.30545e-228
5.55918e-229
2.2011e-229
8.05068e-230
2.70066e-230
8.24297e-231
2.26871e-231
5.5741e-232
1.2087e-232
2.28343e-233
3.70315e-234
5.06887e-235
5.74255e-236
5.26361e-237
3.80128e-238
2.09665e-239
8.51428e-241
2.43784e-242
4.67706e-244
5.66716e-246
4.06443e-248
1.63414e-250
3.78432e-253
6.56389e-256
1.21347e-258
2.49524e-261
5.43068e-264
1.37535e-266
3.68164e-269
9.83935e-272
2.62262e-274
6.96448e-277
1.8406e-279
4.83585e-282
1.26165e-284
3.26481e-287
8.36982e-290
2.12318e-292
5.32259e-295
1.31694e-297
3.21167e-300
7.70933e-303
1.81884e-305
4.21123e-308
9.55382e-311
2.12011e-313
4.59982e-316
0
0
0
0
0
0
0
0
0
0
0
0
0
0
0
0
0
0
0
0
0
0
0
0
0
0
0
0
0
0
0
0
0
0
0
0
0
0
0
0
0
0
0
0
0
0
0
0
0
0
0
4.27143e-316
2.00749e-313
9.26272e-311
4.17357e-308
1.83956e-305
7.94464e-303
3.36724e-300
1.4027e-297
5.75151e-295
2.32447e-292
9.27202e-290
3.65507e-287
1.42571e-284
5.50951e-282
2.11178e-279
8.03784e-277
3.0414e-274
1.14532e-271
4.29701e-269
1.60788e-266
6.0067e-264
2.24265e-261
7.98764e-259
2.39342e-256
5.88982e-254
1.15715e-251
1.75817e-249
1.99872e-247
1.65165e-245
9.74834e-244
4.10318e-242
1.24764e-240
2.80169e-239
4.76846e-238
6.31448e-237
6.66833e-236
5.74369e-235
4.11783e-234
2.50183e-233
1.30874e-232
5.97762e-232
2.41365e-231
8.71196e-231
2.83884e-230
8.4247e-230
2.29465e-229
5.77644e-229
1.35259e-228
2.9627e-228
6.10232e-228
1.18754e-227
2.19286e-227
3.85717e-227
6.4861e-227
1.04608e-226
1.6227e-226
2.4275e-226
3.51093e-226
4.92028e-226
6.6962e-226
8.86604e-226
1.14409e-225
1.44091e-225
1.77336e-225
2.13556e-225
2.51969e-225
2.91622e-225
3.31362e-225
3.69837e-225
4.05696e-225
4.37684e-225
4.64601e-225
4.79109e-225
3.40992e-225
1.98901e-229
1.07685e-225
6.70829e-222
8.56225e-222
8.32001e-222
7.9243e-222
7.43734e-222
6.86785e-222
6.23335e-222
5.5557e-222
4.8591e-222
4.16702e-222
3.50068e-222
2.87815e-222
2.31303e-222
1.81473e-222
1.38795e-222
1.0331e-222
7.47093e-223
5.23807e-223
3.55316e-223
2.32615e-223
1.4659e-223
8.86664e-224
5.13127e-224
2.83131e-224
1.48384e-224
7.35508e-225
3.43219e-225
1.50006e-225
6.10627e-226
2.30045e-226
7.96458e-227
2.51434e-227
7.17432e-228
1.83206e-228
4.14044e-229
8.17696e-230
1.3909e-230
2.00425e-231
2.4001e-232
2.3359e-233
1.80025e-234
1.0656e-235
4.67279e-237
1.45468e-238
3.05692e-240
4.0885e-242
3.25853e-244
1.45703e-246
3.66827e-249
6.49219e-252
1.18187e-254
2.41396e-257
5.24716e-260
1.32927e-262
3.58304e-265
9.64314e-268
2.58857e-270
6.92337e-273
1.84299e-275
4.87756e-278
1.28193e-280
3.34202e-283
8.63224e-286
2.20638e-288
5.57358e-291
1.38971e-293
3.41559e-296
8.26338e-299
1.96503e-301
4.58613e-304
1.04883e-306
2.34652e-309
5.12684e-312
1.09078e-314
3.2856e-317
0
0
0
0
0
0
0
0
0
0
0
0
0
0
0
0
0
0
0
0
0
0
0
0
0
0
0
0
0
0
0
0
0
0
0
0
0
0
0
0
0
0
0
0
0
0
0
3.28574e-317
8.7397e-315
4.21486e-312
1.97888e-309
9.05666e-307
4.04786e-304
1.76989e-301
7.58314e-299
3.18873e-296
1.31798e-293
5.36231e-291
2.15055e-288
8.51305e-286
3.33059e-283
1.28944e-280
4.94603e-278
1.8819e-275
7.11087e-273
2.67129e-270
9.98782e-268
3.72081e-265
1.38255e-262
5.12923e-260
1.90194e-257
6.68888e-255
1.96761e-252
4.72054e-250
8.96726e-248
1.30487e-245
1.40638e-243
1.0918e-241
6.01603e-240
2.35762e-238
6.67667e-237
1.39959e-235
2.23117e-234
2.77805e-233
2.76947e-232
2.26054e-231
1.5413e-230
8.93555e-230
4.47427e-229
1.96187e-228
7.6249e-228
2.6555e-227
8.36803e-227
2.40653e-226
6.3645e-226
1.55855e-225
3.55612e-225
7.60228e-225
1.5306e-224
2.91579e-224
5.27764e-224
9.11098e-224
1.50536e-223
2.38804e-223
3.64754e-223
5.37867e-223
7.67612e-223
1.06254e-222
1.42957e-222
1.87279e-222
2.393e-222
2.98663e-222
3.64563e-222
4.35786e-222
5.1076e-222
5.87629e-222
6.6418e-222
7.37881e-222
8.06268e-222
8.67133e-222
9.18191e-222
9.4522e-222
6.74523e-222
4.36683e-226
1.84088e-222
1.17153e-218
1.50857e-218
1.46511e-218
1.39379e-218
1.3077e-218
1.20859e-218
1.09921e-218
9.8293e-219
8.63482e-219
7.44555e-219
6.29555e-219
5.21462e-219
4.22597e-219
3.34657e-219
2.58589e-219
1.94643e-219
1.4248e-219
1.0122e-219
6.96412e-220
4.62921e-220
2.96529e-220
1.82524e-220
1.07625e-220
6.05837e-221
3.24358e-221
1.64482e-221
7.86419e-222
3.52732e-222
1.47611e-222
5.72751e-223
2.04642e-223
6.68143e-224
1.9763e-224
5.24493e-225
1.2353e-225
2.55013e-226
4.54941e-227
6.90076e-228
8.7344e-229
9.02594e-230
7.4234e-231
4.71571e-232
2.23329e-233
7.56086e-235
1.74109e-236
2.57221e-238
2.28141e-240
1.13844e-242
3.14431e-245
5.74787e-248
1.03162e-250
2.09157e-253
4.54213e-256
1.15075e-258
3.12644e-261
8.48169e-264
2.29523e-266
6.18901e-269
1.66112e-271
4.4329e-274
1.17488e-276
3.08898e-279
8.04717e-282
2.07466e-284
5.2867e-287
1.32982e-289
3.2975e-292
8.04934e-295
1.93147e-297
4.54898e-300
1.04991e-302
2.37074e-305
5.22821e-308
1.12398e-310
2.35099e-313
4.92821e-316
0
0
0
0
0
0
0
0
0
0
0
0
0
0
0
0
0
0
0
0
0
0
0
0
0
0
0
0
0
0
0
0
0
0
0
0
0
0
0
0
0
0
0
0
0
3.28562e-316
1.62992e-313
8.02549e-311
3.83657e-308
1.78448e-305
8.09139e-303
3.58321e-300
1.55245e-297
6.59134e-295
2.74681e-292
1.12522e-289
4.53766e-287
1.80391e-284
7.07893e-282
2.74572e-279
1.05396e-276
4.00866e-274
1.5125e-271
5.66778e-269
2.11173e-266
7.83159e-264
2.89411e-261
1.06682e-258
3.92674e-256
1.44472e-253
5.00726e-251
1.44278e-248
3.36569e-246
6.16301e-244
8.55943e-242
8.71489e-240
6.33451e-238
3.24954e-236
1.18328e-234
3.11687e-233
6.09438e-232
9.0957e-231
1.06457e-229
1.00169e-228
7.74744e-228
5.02368e-227
2.77915e-226
1.33208e-225
5.6074e-225
2.09787e-224
7.05011e-224
2.14858e-223
5.98829e-223
1.53783e-222
3.66355e-222
8.146e-222
1.69977e-221
3.34538e-221
6.23874e-221
1.10692e-220
1.8755e-220
3.04488e-220
4.75144e-220
7.14669e-220
1.03884e-219
1.46296e-219
2.00023e-219
2.66055e-219
3.44864e-219
4.36349e-219
5.39695e-219
6.53385e-219
7.75321e-219
9.02755e-219
1.03246e-218
1.16075e-218
1.2836e-218
1.3972e-218
1.49802e-218
1.58223e-218
1.62587e-218
1.1634e-218
8.36073e-223
2.84879e-219
1.80336e-215
2.33837e-215
2.27262e-215
2.1628e-215
2.03111e-215
1.88056e-215
1.71513e-215
1.53947e-215
1.35881e-215
1.17834e-215
1.00295e-215
8.37008e-216
6.8405e-216
5.46776e-216
4.2684e-216
3.24898e-216
2.40731e-216
1.73275e-216
1.20913e-216
8.16029e-217
5.31295e-217
3.32782e-217
1.99917e-217
1.14802e-217
6.27851e-218
3.25695e-218
1.59538e-218
7.343e-219
3.15875e-219
1.26223e-219
4.65377e-220
1.57128e-220
4.81753e-221
1.3286e-221
3.26072e-222
7.03557e-223
1.31625e-223
2.10149e-224
2.81119e-225
3.08427e-226
2.70693e-227
1.84546e-228
9.43942e-230
3.476e-231
8.77427e-233
1.43278e-234
1.41596e-236
7.90856e-239
2.4157e-241
4.62179e-244
8.2002e-247
1.64878e-249
3.57807e-252
9.06272e-255
2.48412e-257
6.79971e-260
1.85677e-262
5.05266e-265
1.36869e-267
3.68668e-270
9.86333e-273
2.618e-275
6.88589e-278
1.79253e-280
4.61259e-283
1.17174e-285
2.93455e-288
7.23554e-291
1.75384e-293
4.17296e-296
9.73074e-299
2.22012e-301
4.94739e-304
1.07485e-306
2.27219e-309
4.66415e-312
9.26464e-315
3.28548e-317
0
0
0
0
0
0
0
0
0
0
0
0
0
0
0
0
0
0
0
0
0
0
0
0
0
0
0
0
0
0
0
0
0
0
0
0
0
0
0
0
0
0
5.38819e-315
2.80305e-312
1.40926e-309
6.86489e-307
3.24719e-304
1.49456e-301
6.70643e-299
2.93929e-296
1.26045e-293
5.29728e-291
2.18533e-288
8.86281e-286
3.53873e-283
1.393e-280
5.4133e-278
2.07945e-275
7.90594e-273
2.97855e-270
1.11331e-267
4.13322e-265
1.52584e-262
5.60734e-260
2.05351e-257
7.50226e-255
2.73711e-252
9.98255e-250
3.40302e-247
9.58203e-245
2.16752e-242
3.81372e-240
5.03721e-238
4.82697e-236
3.27398e-234
1.55949e-232
5.26699e-231
1.28896e-229
2.34919e-228
3.28115e-227
3.60913e-226
3.20489e-225
2.3487e-224
1.44838e-223
7.64625e-223
3.50843e-222
1.41793e-221
5.1069e-221
1.65624e-220
4.88192e-220
1.31873e-219
3.28875e-219
7.62244e-219
1.65179e-218
3.36445e-218
6.47338e-218
1.18184e-217
2.05557e-217
3.41843e-217
5.45354e-217
8.37167e-217
1.24007e-216
1.77705e-216
2.46957e-216
3.33516e-216
4.38575e-216
5.62497e-216
7.04786e-216
8.6393e-216
1.03742e-215
1.22204e-215
1.41357e-215
1.60713e-215
1.79721e-215
1.97826e-215
2.14516e-215
2.29282e-215
2.41567e-215
2.47777e-215
1.7779e-215
1.41827e-219
4.0189e-216
2.48297e-212
3.23685e-212
3.15e-212
3.00151e-212
2.82365e-212
2.62076e-212
2.39803e-212
2.16132e-212
1.91723e-212
1.67236e-212
1.43303e-212
1.20503e-212
9.93179e-213
8.01316e-213
6.31983e-213
4.86443e-213
3.64813e-213
2.66043e-213
1.88279e-213
1.29004e-213
8.5365e-214
5.44065e-214
3.32974e-214
1.95044e-214
1.08956e-214
5.78133e-215
2.90109e-215
1.37009e-215
6.05789e-216
2.49273e-216
9.48284e-217
3.31067e-217
1.05202e-217
3.01458e-218
7.70862e-219
1.73824e-219
3.40994e-220
5.72976e-221
8.09984e-222
9.43412e-223
8.83493e-224
6.46387e-225
3.57092e-226
1.43045e-227
3.95913e-229
7.14956e-231
7.8811e-233
4.93933e-235
1.6804e-237
3.41123e-240
6.01124e-243
1.19719e-245
2.59659e-248
6.57206e-251
1.81915e-253
5.02899e-256
1.38704e-258
3.81272e-261
1.04339e-263
2.83957e-266
7.6764e-269
2.05904e-271
5.47345e-274
1.44018e-276
3.74617e-279
9.62071e-282
2.4361e-284
6.07354e-287
1.48875e-289
3.58241e-292
8.44922e-295
1.94995e-297
4.3958e-300
9.66183e-303
2.06654e-305
4.29233e-308
8.63877e-311
1.6807e-313
3.28533e-316
0
0
0
0
0
0
0
0
0
0
0
0
0
0
0
0
0
0
0
0
0
0
0
0
0
0
0
0
0
0
0
0
0
0
0
0
0
0
0
1.64275e-316
8.44002e-314
4.49889e-311
2.31219e-308
1.14876e-305
5.53027e-303
2.58542e-300
1.1762e-297
5.21729e-295
2.26057e-292
9.58423e-290
3.98277e-287
1.62476e-284
6.51665e-282
2.5735e-279
1.00206e-276
3.85224e-274
1.46403e-271
5.50743e-269
2.05323e-266
7.59505e-264
2.7908e-261
1.01981e-258
3.71009e-256
1.3452e-253
4.8662e-251
1.75809e-248
6.3502e-246
2.12478e-243
5.83244e-241
1.27571e-238
2.14962e-236
2.69024e-234
2.41719e-232
1.52483e-230
6.72723e-229
2.1038e-227
4.7784e-226
8.11291e-225
1.06009e-223
1.09569e-222
9.18151e-222
6.37549e-221
3.73931e-220
1.88395e-219
8.27593e-219
3.2115e-218
1.1136e-217
3.48565e-217
9.93808e-217
2.60207e-216
6.30222e-216
1.42123e-215
3.00184e-215
5.96906e-215
1.12282e-214
2.00692e-214
3.42199e-214
5.58591e-214
8.7575e-214
1.3226e-213
1.92947e-213
2.72599e-213
3.73861e-213
4.9874e-213
6.48414e-213
8.22879e-213
1.02104e-212
1.2405e-212
1.47764e-212
1.72791e-212
1.98559e-212
2.24411e-212
2.49633e-212
2.73529e-212
2.95473e-212
3.14826e-212
3.30864e-212
3.3878e-212
2.43773e-212
2.15824e-216
5.20143e-213
3.09235e-209
4.04767e-209
3.94553e-209
3.7661e-209
3.55087e-209
3.30521e-209
3.03522e-209
2.74762e-209
2.44996e-209
2.14988e-209
1.85479e-209
1.57165e-209
1.30638e-209
1.06391e-209
8.47711e-210
6.59797e-210
5.00829e-210
3.70024e-210
2.65566e-210
1.84723e-210
1.24228e-210
8.05579e-211
5.02238e-211
3.0007e-211
1.71202e-211
9.29123e-212
4.77579e-212
2.31405e-212
1.05154e-212
4.45517e-213
1.74853e-213
6.31139e-214
2.07832e-214
6.18719e-215
1.64824e-215
3.88369e-216
7.98768e-217
1.41238e-217
2.10967e-218
2.60822e-219
2.60599e-220
2.04589e-221
1.22067e-222
5.31946e-224
1.61464e-225
3.22593e-227
3.96997e-229
2.79787e-231
1.06664e-233
2.32902e-236
4.10537e-239
8.08735e-242
1.75298e-244
4.431e-247
1.2397e-249
3.46439e-252
9.66013e-255
2.68488e-257
7.42991e-260
2.04495e-262
5.59155e-265
1.51716e-267
4.08009e-270
1.08621e-272
2.85903e-275
7.43057e-278
1.90431e-280
4.80575e-283
1.19251e-285
2.90522e-288
6.93787e-291
1.62137e-293
3.70156e-296
8.24019e-299
1.78522e-301
3.75622e-304
7.65873e-307
1.50968e-309
2.86966e-312
5.25628e-315
0
0
0
0
0
0
0
0
0
0
0
0
0
0
0
0
0
0
0
0
0
0
0
0
0
0
0
0
0
0
0
0
0
0
0
0
0
2.16833e-315
1.24485e-312
6.80926e-310
3.58189e-307
1.81697e-304
8.91059e-302
4.23461e-299
1.95446e-296
8.77901e-294
3.84518e-291
1.64528e-288
6.88924e-286
2.82772e-283
1.13952e-280
4.51529e-278
1.7618e-275
6.77868e-273
2.57532e-270
9.67344e-268
3.59698e-265
1.32567e-262
4.84824e-260
1.76152e-257
6.36551e-255
2.29034e-252
8.21402e-250
2.93941e-247
1.05066e-244
3.75499e-242
1.2306e-239
3.28481e-237
6.92645e-235
1.11383e-232
1.31568e-230
1.1042e-228
6.4577e-227
2.63259e-225
7.61138e-224
1.60302e-222
2.53415e-221
3.09712e-220
3.00761e-219
2.37829e-218
1.56482e-217
8.72978e-217
4.19805e-216
1.76573e-215
6.57959e-215
2.19671e-214
6.63676e-214
1.83054e-213
4.64616e-213
1.09298e-212
2.39843e-212
4.93803e-212
9.58684e-212
1.76328e-211
3.08575e-211
5.15821e-211
8.2653e-211
1.27355e-210
1.89243e-210
2.7192e-210
3.78778e-210
5.12685e-210
6.75614e-210
8.68449e-210
1.0906e-209
1.34017e-209
1.61385e-209
1.90698e-209
2.21381e-209
2.52721e-209
2.83933e-209
3.14199e-209
3.42731e-209
3.68828e-209
3.91749e-209
4.10659e-209
4.1978e-209
3.02913e-209
2.97595e-213
6.21041e-210
3.51502e-206
4.61487e-206
4.50649e-206
4.31033e-206
4.07436e-206
3.80447e-206
3.50712e-206
3.18931e-206
2.85893e-206
2.52406e-206
2.19262e-206
1.87223e-206
1.56951e-206
1.29021e-206
1.03859e-206
8.17392e-207
6.27963e-207
4.70017e-207
3.42081e-207
2.41546e-207
1.65079e-207
1.08911e-207
6.91639e-208
4.21451e-208
2.45563e-208
1.36292e-208
7.17523e-209
3.56658e-209
1.66548e-209
7.26456e-210
2.94109e-210
1.09743e-210
3.74441e-211
1.15792e-211
3.21306e-212
7.90989e-213
1.70538e-213
3.1727e-214
5.00658e-215
6.56909e-216
7.00153e-217
5.8975e-218
3.7999e-219
1.8014e-220
5.99721e-222
1.32609e-223
1.82328e-225
1.44755e-227
6.21628e-230
1.47921e-232
2.63374e-235
5.12505e-238
1.10981e-240
2.79944e-243
7.92363e-246
2.24041e-248
6.32162e-251
1.77816e-253
4.98062e-256
1.38768e-258
3.84152e-261
1.0554e-263
2.87424e-266
7.74974e-269
2.06616e-271
5.43987e-274
1.41246e-276
3.61179e-279
9.08223e-282
2.24248e-284
5.428e-287
1.28589e-289
2.97621e-292
6.71763e-295
1.47576e-297
3.14893e-300
6.51174e-303
1.30194e-305
2.51042e-308
4.65556e-311
8.27822e-314
1.31407e-316
0
0
0
0
0
0
0
0
0
0
0
0
0
0
0
0
0
0
0
0
0
0
0
0
0
0
0
0
0
0
0
0
0
3.28537e-317
2.96323e-314
1.74268e-311
9.79883e-309
5.28338e-306
2.73981e-303
1.37022e-300
6.62558e-298
3.10489e-295
1.41324e-292
6.26088e-290
2.7049e-287
1.14173e-284
4.71665e-282
1.91022e-279
7.59631e-277
2.97063e-274
1.14407e-271
4.3453e-269
1.62981e-266
6.04463e-264
2.21953e-261
8.07872e-259
2.9183e-256
1.04743e-253
3.73952e-251
1.32947e-248
4.7118e-246
1.66646e-243
5.88785e-241
2.08025e-238
6.66292e-236
1.72499e-233
3.49554e-231
5.34443e-229
5.93421e-227
4.63402e-225
2.50471e-223
9.41497e-222
2.51312e-220
4.90382e-219
7.21506e-218
8.24637e-217
7.52379e-216
5.61447e-215
3.50063e-214
1.85777e-213
8.52811e-213
3.43488e-212
1.22921e-211
3.95175e-211
1.15249e-210
3.07557e-210
7.56843e-210
1.72949e-209
3.69338e-209
7.41299e-209
1.40525e-208
2.52745e-208
4.33108e-208
7.09843e-208
1.11659e-207
1.691e-207
2.47254e-207
3.49959e-207
4.80663e-207
6.42111e-207
8.35911e-207
1.06241e-206
1.32029e-206
1.60689e-206
1.91807e-206
2.24832e-206
2.59113e-206
2.93858e-206
3.28213e-206
3.6133e-206
3.92394e-206
4.20684e-206
4.45421e-206
4.65738e-206
4.75282e-206
3.43925e-206
3.74919e-210
6.8743e-207
3.67343e-203
4.83339e-203
4.72865e-203
4.53282e-203
4.29642e-203
4.02524e-203
3.72546e-203
3.40376e-203
3.0677e-203
2.72507e-203
2.38366e-203
2.0511e-203
1.73417e-203
1.43895e-203
1.17019e-203
9.31223e-204
7.24043e-204
5.48987e-204
4.05158e-204
2.90397e-204
2.01673e-204
1.35357e-204
8.75512e-205
5.44054e-205
3.23702e-205
1.83716e-205
9.90512e-206
5.05027e-206
2.42316e-206
1.08799e-206
4.54311e-207
1.75216e-207
6.19352e-208
1.98922e-208
5.74864e-209
1.47833e-209
3.34059e-210
6.53769e-211
1.0897e-211
1.51712e-212
1.72458e-213
1.55828e-214
1.08412e-215
5.59054e-217
2.04144e-218
4.99694e-220
7.68069e-222
6.87981e-224
3.34261e-226
8.77429e-229
1.59772e-231
3.06821e-234
6.63358e-237
1.66819e-239
4.78097e-242
1.36898e-244
3.91232e-247
1.11473e-249
3.16329e-252
8.93016e-255
2.50519e-257
6.97565e-260
1.92563e-262
5.26354e-265
1.42282e-267
3.79863e-270
1.00028e-272
2.59432e-275
6.61764e-278
1.65768e-280
4.07121e-283
9.78703e-286
2.29891e-288
5.26667e-291
1.17448e-293
2.54417e-296
5.34171e-299
1.08447e-301
2.12353e-304
3.99952e-307
7.22397e-310
1.24725e-312
2.03671e-315
0
0
0
0
0
0
0
0
0
0
0
0
0
0
0
0
0
0
0
0
0
0
0
0
0
0
0
0
0
0
0
5.91338e-316
3.83197e-313
2.32994e-310
1.34939e-307
7.47028e-305
3.96603e-302
2.02529e-299
9.97519e-297
4.75074e-294
2.19298e-291
9.83334e-289
4.29203e-286
1.82713e-283
7.60017e-281
3.09446e-278
1.23531e-275
4.84269e-273
1.86714e-270
7.09052e-268
2.65581e-265
9.82472e-263
3.59429e-260
1.30204e-257
4.67604e-255
1.66684e-252
5.9044e-250
2.0807e-247
7.30258e-245
2.55531e-242
8.92422e-240
3.11394e-237
1.08669e-234
3.39376e-232
8.49856e-230
1.64956e-227
2.38864e-225
2.48261e-223
1.7968e-221
8.9491e-220
3.09564e-218
7.61976e-217
1.37661e-215
1.88446e-214
2.01401e-213
1.72649e-212
1.21593e-211
7.18488e-211
3.62757e-210
1.58986e-209
6.13293e-209
2.10804e-208
6.52671e-208
1.83765e-207
4.74527e-207
1.13231e-206
2.51389e-206
5.22512e-206
1.02247e-205
1.89275e-205
3.3293e-205
5.58708e-205
8.97891e-205
1.38664e-204
2.06415e-204
2.97002e-204
4.14114e-204
5.60867e-204
7.39535e-204
9.51116e-204
1.19528e-203
1.47003e-203
1.77212e-203
2.09689e-203
2.43836e-203
2.78978e-203
3.14318e-203
3.49028e-203
3.8229e-203
4.13329e-203
4.41457e-203
4.65939e-203
4.85973e-203
4.95107e-203
3.59267e-203
4.34585e-207
7.08492e-204
3.55116e-200
4.67949e-200
4.58666e-200
4.40686e-200
4.18896e-200
3.93813e-200
3.65979e-200
3.35973e-200
3.04461e-200
2.72137e-200
2.39701e-200
2.07857e-200
1.77241e-200
1.48447e-200
1.21954e-200
9.8127e-201
7.72121e-201
5.9303e-201
4.43772e-201
3.22844e-201
2.27813e-201
1.55536e-201
1.02457e-201
6.49216e-202
3.94397e-202
2.28867e-202
1.26354e-202
6.60736e-203
3.25701e-203
1.50514e-203
6.4814e-204
2.5833e-204
9.45854e-205
3.1546e-205
9.49279e-206
2.54961e-206
6.03721e-207
1.24262e-207
2.18722e-208
3.23042e-209
3.91563e-210
3.79455e-211
2.84995e-212