/*--------------------------------*- C++ -*----------------------------------*\
| =========                 |                                                 |
| \\      /  F ield         | OpenFOAM: The Open Source CFD Toolbox           |
|  \\    /   O peration     | Version:  2412                                  |
|   \\  /    A nd           | Website:  www.openfoam.com                      |
|    \\/     M anipulation  |                                                 |
\*---------------------------------------------------------------------------*/
FoamFile
{
    version     2.0;
    format      ascii;
    arch        "LSB;label=32;scalar=64";
    class       surfaceScalarField;
    location    "1.03";
    object      alphaPhi0.water;
}
// * * * * * * * * * * * * * * * * * * * * * * * * * * * * * * * * * * * * * //

dimensions      [0 3 -1 0 0 0 0];

oriented        oriented;

internalField   nonuniform List<scalar> 
79600
(
1.3906e-261
-2.22223e-257
4.9336e-266
3.76826e-266
1.63451e-258
-1.86609e-254
5.03319e-258
-3.28205e-254
1.03797e-257
-4.5221e-254
1.43401e-257
-4.69621e-254
1.70184e-257
-4.48182e-254
1.81627e-257
-4.01546e-254
1.79881e-257
-3.43972e-254
1.69783e-257
-2.86779e-254
1.53784e-257
-2.33067e-254
1.33966e-257
-1.84414e-254
1.12576e-257
-1.42143e-254
9.1313e-258
-1.06602e-254
7.14789e-258
-7.76752e-255
5.39535e-258
-5.48877e-255
3.92064e-258
-3.75245e-255
2.73968e-258
-2.47767e-255
1.83754e-258
-1.57629e-255
1.18042e-258
-9.63779e-256
7.24477e-259
-5.64749e-256
4.23638e-259
-3.1618e-256
2.35283e-259
-1.68561e-256
1.23685e-259
-8.52587e-257
6.13073e-260
-4.07508e-257
2.85345e-260
-1.83264e-257
1.24139e-260
-7.71823e-258
5.02253e-261
-3.02829e-258
1.87914e-261
-1.10057e-258
6.46086e-262
-3.6813e-259
2.02667e-262
-1.12506e-259
5.75398e-263
-3.11629e-260
1.46545e-263
-7.75305e-261
3.31496e-264
-1.71528e-261
6.58666e-265
-3.33707e-262
1.13513e-265
-5.63689e-263
1.67242e-266
-8.14793e-264
2.07208e-267
-9.91233e-265
2.11813e-268
-9.95615e-266
1.74758e-269
-8.0755e-267
1.13468e-270
-5.15605e-268
5.6303e-272
-2.51566e-269
2.06341e-273
-9.06018e-271
5.36756e-275
-2.31312e-272
9.46253e-277
-3.9927e-274
1.0719e-278
-4.41034e-276
7.36286e-281
-2.93305e-278
2.91946e-283
-1.11043e-280
6.77751e-286
-2.38727e-283
1.12679e-288
-3.47233e-286
1.8557e-291
-4.73812e-289
3.2868e-294
-6.54817e-292
5.93946e-297
-7.79815e-295
1.05138e-299
-3.72168e-298
2.25909e-302
1.67201e-305
5.28415e-305
9.33521e-308
1.23253e-307
3.46592e-310
2.86381e-310
1.10877e-312
6.62139e-313
3.27977e-315
1.52172e-315
9.21926e-318
3.4723e-318
2.49651e-320
7.85564e-321
6.42285e-323
1.97626e-323
0
0
0
0
0
0
0
0
0
0
0
0
0
0
0
0
0
0
0
0
0
0
0
0
0
0
0
0
0
0
0
0
0
0
0
0
0
0
0
0
0
0
0
0
0
0
0
0
0
0
0
0
0
0
0
0
0
0
0
0
0
0
0
0
0
0
0
0
0
0
0
0
0
0
0
0
0
0
0
0
0
0
0
0
0
0
0
0
0
0
0
0
0
0
0
0
0
0
0
0
0
0
0
0
0
0
0
0
0
0
0
0
0
0
0
0
0
0
0
0
0
0
0
0
0
0
0
0
0
0
0
0
0
0
0
0
0
0
0
0
0
0
0
0
0
-5.92879e-323
0
-2.68426e-320
0
-1.19359e-317
2.56914e-322
-5.25662e-315
1.00651e-319
-2.29572e-312
3.82723e-317
-9.95384e-310
1.41234e-314
-4.28948e-307
5.02223e-312
-1.83923e-304
1.69831e-309
-7.85513e-302
5.31201e-307
-3.34519e-299
1.43774e-304
-1.42199e-296
2.64887e-302
-5.7967e-294
-2.43152e-295
-1.97579e-291
-4.86912e-292
-5.60795e-289
-2.79659e-289
-1.30717e-286
-1.08369e-286
-2.45189e-284
-3.13903e-284
-3.60877e-282
-6.92238e-282
-4.05583e-280
-1.15246e-279
-3.39666e-278
-1.42216e-277
-2.08566e-276
-1.27743e-275
-9.34941e-275
-8.26352e-274
-3.08184e-273
-3.85276e-272
-7.59154e-272
-1.30952e-270
-1.42702e-270
-3.30806e-269
-2.09389e-269
-6.35618e-268
-2.45084e-268
-9.51622e-267
-2.33551e-267
-1.13554e-265
-1.84594e-266
-1.10294e-264
-1.23171e-265
-8.88678e-264
-7.048e-265
-6.04779e-263
-3.50719e-264
-3.53192e-262
-1.53626e-263
-1.79525e-261
-5.98737e-263
-8.04022e-261
-2.0968e-262
-3.20729e-260
-6.65665e-262
-1.15098e-259
-1.93042e-261
-3.74907e-259
-5.14555e-261
-1.11706e-258
-1.26721e-260
-3.06372e-258
-2.89885e-260
-7.77572e-258
-6.19326e-260
-1.83616e-257
-1.24302e-259
-4.05645e-257
-2.35672e-259
-8.43404e-257
-4.23832e-259
-1.65979e-256
-7.25239e-259
-3.10493e-256
-1.18365e-258
-5.53944e-256
-1.84586e-258
-9.45056e-256
-2.75502e-258
-1.54494e-255
-3.94328e-258
-2.42476e-255
-5.4247e-258
-3.66197e-255
-7.18715e-258
-5.3356e-255
-9.19281e-258
-7.51824e-255
-1.1373e-257
-1.02752e-254
-1.36196e-257
-1.3656e-254
-1.57847e-257
-1.76775e-254
-1.76839e-257
-2.23099e-254
-1.91217e-257
-2.74568e-254
-1.99278e-257
-3.29625e-254
-1.99782e-257
-3.86396e-254
-1.91989e-257
-4.42941e-254
-1.75549e-257
-4.9725e-254
-1.50553e-257
-5.46981e-254
-1.16366e-257
-5.89086e-254
-5.32515e-258
-6.12349e-254
-8.01969e-263
-4.27637e-254
-1.3509e-258
5.65466e-257
-3.66423e-253
2.72439e-254
-1.18891e-250
9.87211e-254
-3.58155e-250
1.64362e-253
-4.99089e-250
2.28801e-253
-5.9362e-250
2.76967e-253
-6.19377e-250
3.08942e-253
-6.0265e-250
3.20865e-253
-5.5307e-250
3.15978e-253
-4.86933e-250
2.98113e-253
-4.15107e-250
2.70718e-253
-3.43781e-250
2.37167e-253
-2.7686e-250
2.00701e-253
-2.16865e-250
1.64101e-253
-1.65119e-250
1.29602e-253
-1.22077e-250
9.87834e-254
-8.75121e-251
7.25753e-254
-6.072e-251
5.13255e-254
-4.07047e-251
3.48739e-254
-2.63048e-251
2.27204e-254
-1.6349e-251
1.41583e-254
-9.74606e-252
8.41594e-255
-5.55611e-252
4.75746e-255
-3.01933e-252
2.54888e-255
-1.55845e-252
1.28944e-255
-7.61077e-253
6.13401e-256
-3.50166e-253
2.73153e-256
-1.51078e-253
1.1329e-256
-6.08097e-254
4.35172e-257
-2.27041e-254
1.53861e-257
-7.81396e-255
4.97189e-258
-2.46132e-255
1.45693e-258
-7.03973e-256
3.83794e-259
-1.81226e-256
9.00048e-260
-4.15813e-257
1.85856e-260
-8.4099e-258
3.33752e-261
-1.48066e-258
5.13854e-262
-2.2371e-259
6.67373e-263
-2.85347e-260
7.17643e-264
-3.01547e-261
6.2535e-265
-2.58353e-262
4.30755e-266
-1.75005e-263
2.27887e-267
-9.10333e-265
8.95364e-269
-3.51426e-266
2.51201e-270
-9.67282e-268
4.80724e-272
-1.81104e-269
5.95262e-274
-2.18358e-271
4.50069e-276
-1.59395e-273
1.97337e-278
-6.6333e-276
5.0387e-281
-1.54481e-278
9.0238e-284
-2.31804e-281
1.60256e-286
-3.12204e-284
3.17515e-289
-4.26742e-287
6.70433e-292
-5.03623e-290
1.46789e-294
-2.26006e-293
3.68077e-297
5.31115e-300
9.59939e-300
3.25921e-302
2.49637e-302
1.34281e-304
6.46661e-305
4.78239e-307
1.66678e-307
1.57517e-309
4.2701e-310
4.93147e-312
1.0861e-312
1.48758e-314
2.73949e-315
4.3557e-317
6.84432e-318
1.24322e-319
1.69168e-320
3.45846e-322
3.95253e-323
0
0
0
0
0
0
0
0
0
0
0
0
0
0
0
0
0
0
0
0
0
0
0
0
0
0
0
0
0
0
0
0
0
0
0
0
0
0
0
0
0
0
0
0
0
0
0
0
0
0
0
0
0
0
0
0
0
0
0
0
0
0
0
0
0
0
0
0
0
0
0
0
0
0
0
0
0
0
0
0
0
0
0
0
0
0
0
0
0
0
0
0
0
0
0
0
0
0
0
0
0
0
0
0
0
0
0
0
0
0
0
0
0
0
0
0
0
0
0
0
0
0
0
0
0
0
0
0
0
0
0
0
0
0
0
0
0
-8.39912e-323
0
-3.44759e-320
0
-1.41106e-317
7.90505e-322
-5.70679e-315
2.90328e-319
-2.28334e-312
1.04146e-316
-9.04924e-310
3.65108e-314
-3.55651e-307
1.24805e-311
-1.38774e-304
4.14164e-309
-5.38212e-302
1.32432e-306
-2.07699e-299
4.02691e-304
-7.98397e-297
1.13381e-301
-3.06029e-294
2.76879e-299
-1.17089e-291
4.60695e-297
-4.33901e-289
-1.37408e-290
-1.38411e-286
-2.75096e-287
-3.73008e-284
-1.56914e-284
-8.30606e-282
-6.00662e-282
-1.48943e-279
-1.70791e-279
-2.09013e-277
-3.66731e-277
-2.22922e-275
-5.89209e-275
-1.76223e-273
-6.95294e-273
-1.0166e-271
-5.92218e-271
-4.27055e-270
-3.60845e-269
-1.31909e-268
-1.57885e-267
-3.05027e-267
-5.03288e-266
-5.39637e-266
-1.19418e-264
-7.47503e-265
-2.16034e-263
-8.28932e-264
-3.05418e-262
-7.51376e-263
-3.4535e-261
-5.67067e-262
-3.19109e-260
-3.62429e-261
-2.45539e-259
-1.99198e-260
-1.6007e-258
-9.54407e-260
-8.97973e-258
-4.03437e-259
-4.39507e-257
-1.52049e-258
-1.89968e-256
-5.15837e-258
-7.32867e-256
-1.58878e-257
-2.54799e-255
-4.47619e-257
-8.05264e-255
-1.16132e-256
-2.33106e-254
-2.79043e-256
-6.22292e-254
-6.24298e-256
-1.54088e-253
-1.30727e-255
-3.55842e-253
-2.57492e-255
-7.70474e-253
-4.79332e-255
-1.57216e-252
-8.46653e-255
-3.03804e-252
-1.42353e-254
-5.58248e-252
-2.28445e-254
-9.7874e-252
-3.50713e-254
-1.64196e-251
-5.16209e-254
-2.64247e-251
-7.29894e-254
-4.08961e-251
-9.93465e-254
-6.10066e-251
-1.30395e-253
-8.79354e-251
-1.65315e-253
-1.22743e-250
-2.02699e-253
-1.66281e-250
-2.40547e-253
-2.1905e-250
-2.76362e-253
-2.81047e-250
-3.07199e-253
-3.51669e-250
-3.30069e-253
-4.29455e-250
-3.42283e-253
-5.12271e-250
-3.41835e-253
-5.97421e-250
-3.27451e-253
-6.82079e-250
-2.98551e-253
-7.63142e-250
-2.55501e-253
-8.36954e-250
-1.97436e-253
-8.99376e-250
-9.07292e-254
-9.34717e-250
-1.48604e-258
-6.56308e-250
-2.2756e-254
1.34639e-253
-1.70468e-249
4.49162e-250
-2.4905e-246
9.14421e-250
-3.63235e-246
1.33664e-249
-4.1786e-246
1.73367e-249
-4.48702e-246
2.04064e-249
-4.50243e-246
2.2452e-249
-4.30924e-246
2.32684e-249
-3.94688e-246
2.3002e-249
-3.49275e-246
2.18401e-249
-3.00069e-246
1.9988e-249
-2.50752e-246
1.76659e-249
-2.03935e-246
1.50931e-249
-1.6141e-246
1.24671e-249
-1.24239e-246
9.95354e-250
-9.29066e-247
7.67492e-250
-6.74063e-247
5.70886e-250
-4.73694e-247
4.09092e-250
-3.21867e-247
2.819e-250
-2.11003e-247
1.8643e-250
-1.33153e-247
1.18044e-250
-8.06693e-248
7.13726e-251
-4.67859e-248
4.10854e-251
-2.58941e-248
2.24425e-251
-1.36284e-248
1.15902e-251
-6.79508e-249
5.63622e-252
-3.19621e-249
2.56931e-252
-1.41178e-249
1.09248e-252
-5.82613e-250
4.30891e-253
-2.23371e-250
1.56692e-253
-7.90739e-251
5.21727e-254
-2.56658e-251
1.57841e-254
-7.57922e-252
4.30195e-255
-2.01883e-252
1.0462e-255
-4.80378e-253
2.24583e-256
-1.01007e-253
4.20365e-257
-1.85373e-254
6.76554e-258
-2.92797e-255
9.21469e-259
-3.91689e-256
1.04283e-259
-4.35675e-257
9.60161e-261
-3.94452e-258
7.01895e-262
-2.83615e-259
3.9598e-263
-1.57359e-260
1.66783e-264
-6.51418e-262
5.04486e-266
-1.93391e-263
1.04727e-267
-3.93001e-265
1.41563e-269
-5.17683e-267
1.1751e-271
-4.15403e-269
5.66555e-274
-1.90573e-271
1.56788e-276
-4.83903e-274
2.89899e-279
-7.56361e-277
5.08902e-282
-1.00662e-279
1.0004e-284
-1.35676e-282
2.11208e-287
-1.58936e-285
4.64229e-290
-7.02831e-289
1.17194e-292
2.57996e-295
3.07576e-295
1.59147e-297
8.04939e-298
6.59353e-300
2.09836e-300
2.36255e-302
5.44296e-303
7.82953e-305
1.40331e-305
2.46652e-307
3.59207e-308
7.48693e-310
9.1183e-311
2.20599e-312
2.29269e-313
6.33611e-315
5.70314e-316
1.77835e-317
1.40176e-318
4.88384e-320
3.39917e-321
1.33398e-322
9.88131e-324
0
0
0
0
0
0
0
0
0
0
0
0
0
0
0
0
0
0
0
0
0
0
0
0
0
0
0
0
0
0
0
0
0
0
0
0
0
0
0
0
0
0
0
0
0
0
0
0
0
0
0
0
0
0
0
0
0
0
0
0
0
0
0
0
0
0
0
0
0
0
0
0
0
0
0
0
0
0
0
0
0
0
0
0
0
0
0
0
0
0
0
0
0
0
0
0
0
0
0
0
0
0
0
0
0
0
0
0
0
0
0
0
0
0
0
0
0
0
0
0
0
0
0
0
0
0
0
0
0
-1.4822e-323
0
-5.85962e-321
0
-2.45079e-318
2.51973e-322
-1.01038e-315
9.48161e-320
-4.11048e-313
3.52717e-317
-1.65233e-310
1.28483e-314
-6.57114e-308
4.57972e-312
-2.58852e-305
1.59523e-309
-1.01121e-302
5.41748e-307
-3.92204e-300
1.78622e-304
-1.51199e-297
5.67525e-302
-5.80003e-295
1.71444e-299
-2.21626e-292
4.79442e-297
-8.44461e-290
1.16257e-294
-3.21186e-287
1.91543e-292
-1.18144e-284
-3.92253e-286
-3.72877e-282
-7.62405e-283
-9.89634e-280
-4.29599e-280
-2.1574e-277
-1.61775e-277
-3.75988e-275
-4.4965e-275
-5.08536e-273
-9.36439e-273
-5.18147e-271
-1.4464e-270
-3.88114e-269
-1.62595e-268
-2.10871e-267
-1.30859e-266
-8.31617e-266
-7.49145e-265
-2.41032e-264
-3.07147e-263
-5.23723e-263
-9.17484e-262
-8.72948e-262
-2.04365e-260
-1.14279e-260
-3.48105e-259
-1.20173e-259
-4.64903e-258
-1.03636e-258
-4.98345e-257
-7.46691e-258
-4.38007e-256
-4.57011e-257
-3.21703e-255
-2.412e-256
-2.00816e-254
-1.11246e-255
-1.08171e-253
-4.5372e-255
-5.09621e-253
-1.65362e-254
-2.12524e-252
-5.4355e-254
-7.92834e-252
-1.6249e-253
-2.67069e-251
-4.45095e-253
-8.19207e-251
-1.1247e-252
-2.30562e-250
-2.63694e-252
-5.99467e-250
-5.76703e-252
-1.44838e-249
-1.18244e-251
-3.26967e-249
-2.28368e-251
-6.93209e-249
-4.17259e-251
-1.38696e-248
-7.24032e-251
-2.63062e-248
-1.19702e-250
-4.7487e-248
-1.89063e-250
-8.18654e-248
-2.85962e-250
-1.35173e-247
-4.15161e-250
-2.14327e-247
-5.79715e-250
-3.27183e-247
-7.80134e-250
-4.82012e-247
-1.01339e-249
-6.8693e-247
-1.27256e-249
-9.48974e-247
-1.54642e-249
-1.27338e-246
-1.81968e-249
-1.66256e-246
-2.07406e-249
-2.11511e-246
-2.28914e-249
-2.62561e-246
-2.44466e-249
-3.18358e-246
-2.52247e-249
-3.77434e-246
-2.50856e-249
-4.37956e-246
-2.39384e-249
-4.97893e-246
-2.17505e-249
-5.54959e-246
-1.85651e-249
-6.06617e-246
-1.43288e-249
-6.50238e-246
-6.60107e-250
-6.74998e-246
-1.19907e-254
-4.75285e-246
-1.82524e-250
3.55525e-250
-5.79995e-246
2.60744e-246
-1.67049e-242
5.04825e-246
-2.13686e-242
6.89141e-246
-2.22776e-242
8.57088e-246
-2.25711e-242
9.90623e-246
-2.20252e-242
1.07834e-245
-2.07534e-242
1.11491e-245
-1.8917e-242
1.10464e-245
-1.67571e-242
1.05374e-245
-1.44543e-242
9.70437e-246
-1.21505e-242
8.64131e-246
-9.95443e-243
7.44566e-246
-7.94515e-243
6.20809e-246
-6.1728e-243
5.00735e-246
-4.6634e-243
3.90407e-246
-3.42111e-243
2.93892e-246
-2.4331e-243
2.13327e-246
-1.67465e-243
1.49041e-246
-1.11307e-243
1.00031e-246
-7.1284e-244
6.43446e-247
-4.38728e-244
3.95652e-247
-2.58771e-244
2.31889e-247
-1.45817e-244
1.29122e-247
-7.82327e-245
6.80636e-248
-3.98134e-245
3.38293e-248
-1.91402e-245
1.5784e-248
-8.6531e-246
6.8795e-249
-3.66039e-246
2.7858e-249
-1.44081e-246
1.04186e-249
-5.24557e-247
3.57428e-250
-1.75427e-247
1.11638e-250
-5.34828e-248
3.14803e-251
-1.47391e-248
7.93906e-252
-3.63696e-249
1.77169e-252
-7.95007e-250
3.45673e-253
-1.52091e-250
5.81632e-254
-2.51157e-251
8.30898e-255
-3.52421e-252
9.89849e-256
-4.1267e-253
9.63211e-257
-3.94913e-254
7.47456e-258
-3.01466e-255
4.49809e-259
-1.78457e-256
2.03167e-260
-7.92462e-258
6.62856e-262
-2.53867e-259
1.49354e-263
-5.60285e-261
2.20571e-265
-8.07034e-263
2.01272e-267
-7.12851e-265
1.06977e-269
-3.61474e-267
3.22773e-272
-1.007e-269
6.2164e-275
-1.65858e-272
1.07838e-277
-2.19385e-275
2.09099e-280
-2.91663e-278
4.38703e-283
-3.40189e-281
9.61345e-286
-1.52893e-284
2.42902e-288
7.12655e-291
6.39491e-291
4.43065e-293
1.67886e-293
1.84346e-295
4.3905e-296
6.62993e-298
1.14252e-298
2.20497e-300
2.95521e-301
6.97038e-303
7.58929e-304
2.12306e-305
1.93287e-306
6.27679e-308
4.87617e-309
1.80895e-310
1.21703e-311
5.09437e-313
3.00145e-314
1.40383e-315
7.3047e-317
3.78767e-318
1.75201e-319
1.00048e-320
4.15015e-322
2.47033e-323
0
0
0
0
0
0
0
0
0
0
0
0
0
0
0
0
0
0
0
0
0
0
0
0
0
0
0
0
0
0
0
0
0
0
0
0
0
0
0
0
0
0
0
0
0
0
0
0
0
0
0
0
0
0
0
0
0
0
0
0
0
0
0
0
0
0
0
0
0
0
0
0
0
0
0
0
0
0
0
0
0
0
0
0
0
0
0
0
0
0
0
0
0
0
0
0
0
0
0
0
0
0
0
0
0
0
0
0
0
0
0
0
0
0
0
0
0
0
0
0
0
0
0
0
-6.07701e-322
0
-2.62868e-319
3.95253e-323
-1.11358e-316
1.64672e-320
-4.64266e-314
6.36714e-318
-1.90754e-311
2.41019e-315
-7.73443e-309
8.9342e-313
-3.09876e-306
3.24285e-310
-1.22828e-303
1.15186e-307
-4.82268e-301
3.99824e-305
-1.87789e-298
1.35294e-302
-7.26011e-296
4.44442e-300
-2.78994e-293
1.40686e-297
-1.06684e-290
4.23359e-295
-4.06377e-288
1.17868e-292
-1.54361e-285
2.84164e-290
-5.85295e-283
4.62739e-288
-2.14072e-280
-7.69126e-282
-6.68631e-278
-1.427e-278
-1.74623e-275
-7.91116e-276
-3.7207e-273
-2.92107e-273
-6.28762e-271
-7.9102e-271
-8.1731e-269
-1.59219e-268
-7.93076e-267
-2.35537e-266
-5.61206e-265
-2.51291e-264
-2.86483e-263
-1.90455e-262
-1.05887e-261
-1.02177e-260
-2.87675e-260
-3.9186e-259
-5.86992e-259
-1.09574e-257
-9.21482e-258
-2.28989e-256
-1.13989e-256
-3.67128e-255
-1.13658e-255
-4.63111e-254
-9.32482e-255
-4.70574e-253
-6.4126e-254
-3.93395e-252
-3.75768e-253
-2.75744e-251
-1.904e-252
-1.64782e-250
-8.45216e-252
-8.521e-250
-3.32578e-251
-3.86371e-249
-1.17204e-250
-1.55444e-248
-3.73289e-250
-5.60712e-248
-1.08328e-249
-1.8301e-247
-2.88563e-249
-5.44942e-247
-7.10298e-249
-1.4915e-246
-1.62501e-248
-3.77762e-246
-3.4737e-248
-8.90626e-246
-6.97216e-248
-1.96519e-245
-1.31993e-247
-4.07865e-245
-2.3668e-247
-7.99924e-245
-4.03479e-247
-1.48897e-244
-6.56003e-247
-2.64065e-244
-1.01999e-246
-4.47691e-244
-1.52034e-246
-7.27712e-244
-2.17739e-246
-1.13712e-243
-3.00239e-246
-1.71246e-243
-3.99399e-246
-2.49135e-243
-5.13364e-246
-3.50983e-243
-6.38435e-246
-4.79779e-243
-7.68922e-246
-6.37579e-243
-8.97325e-246
-8.25014e-243
-1.01497e-245
-1.04091e-242
-1.11249e-245
-1.28225e-242
-1.18089e-245
-1.54398e-242
-1.21222e-245
-1.81944e-242
-1.20014e-245
-2.1004e-242
-1.14061e-245
-2.37723e-242
-1.03271e-245
-2.63918e-242
-8.79219e-246
-2.87493e-242
-6.77636e-246
-3.07397e-242
-3.13096e-246
-3.18616e-242
-6.32265e-251
-2.24955e-242
-9.58941e-247
9.17869e-247
-1.63292e-242
9.87115e-243
-6.85039e-239
1.92029e-242
-8.54328e-239
2.57252e-242
-8.54704e-239
3.14042e-242
-8.38546e-239
3.58473e-242
-8.02519e-239
3.87392e-242
-7.47988e-239
4.00097e-242
-6.79485e-239
3.9717e-242
-6.02224e-239
3.80366e-242
-5.21085e-239
3.52218e-242
-4.40213e-239
3.15751e-242
-3.62972e-239
2.74196e-242
-2.91923e-239
2.30644e-242
-2.28781e-239
1.87859e-242
-1.7452e-239
1.48042e-242
-1.29398e-239
1.12748e-242
-9.31008e-240
8.28758e-243
-6.48883e-240
5.86909e-243
-4.37155e-240
3.99685e-243
-2.8406e-240
2.61135e-243
-1.77572e-240
1.63273e-243
-1.06495e-240
9.74161e-244
-6.10891e-241
5.5288e-244
-3.34051e-241
2.97426e-244
-1.73493e-241
1.5107e-244
-8.52339e-242
7.21347e-245
-3.94338e-242
3.22241e-245
-1.70967e-242
1.33959e-245
-6.90848e-243
5.15205e-246
-2.58647e-243
1.82102e-246
-8.91168e-244
5.87166e-247
-2.80475e-244
1.71293e-247
-7.9965e-245
4.47949e-248
-2.04609e-245
1.03919e-248
-4.64947e-246
2.11348e-249
-9.27188e-247
3.71798e-250
-1.60083e-247
5.57137e-251
-2.3563e-248
6.98744e-252
-2.90489e-249
7.18703e-253
-2.93864e-250
5.92133e-254
-2.38201e-251
3.80182e-255
-1.50471e-252
1.84199e-256
-7.16949e-254
6.48476e-258
-2.47931e-255
1.58682e-259
-5.9459e-257
2.56243e-261
-9.37246e-259
2.57363e-263
-9.12397e-261
1.51168e-265
-5.1254e-263
5.00273e-268
-1.57508e-265
1.01489e-270
-2.76471e-268
1.74884e-273
-3.66189e-271
3.34206e-276
-4.80254e-274
6.96825e-279
-5.58945e-277
1.52297e-281
-2.59868e-280
3.85031e-284
1.39415e-286
1.01774e-286
8.78104e-289
2.68271e-289
3.67715e-291
7.04441e-292
1.32941e-293
1.8407e-294
4.44267e-296
4.78096e-297
1.41094e-298
1.23297e-299
4.31697e-301
3.15351e-302
1.28201e-303
7.98965e-305
3.71114e-306
2.00274e-307
1.04978e-308
4.96069e-310
2.90575e-311
1.2126e-312
7.87516e-314
2.92127e-315
2.09006e-316
6.92626e-318
5.43057e-319
1.61411e-320
1.37844e-321
3.45846e-323
4.94066e-324
0
0
0
0
0
0
0
0
0
0
0
0
0
0
0
0
0
0
0
0
0
0
0
0
0
0
0
0
0
0
0
0
0
0
0
0
0
0
0
0
0
0
0
0
0
0
0
0
0
0
0
0
0
0
0
0
0
0
0
0
0
0
0
0
0
0
0
0
0
0
0
0
0
0
0
0
0
0
0
0
0
0
0
0
0
0
0
0
0
0
0
0
0
0
0
0
0
0
0
0
0
0
0
0
0
0
0
0
0
0
0
0
0
0
0
0
-4.44659e-323
0
-2.06964e-320
4.94066e-324
-9.0501e-318
1.92686e-321
-3.88377e-315
7.7465e-319
-1.63796e-312
3.04701e-316
-6.79873e-310
1.17277e-313
-2.7812e-307
4.41933e-311
-1.12279e-304
1.63082e-308
-4.47908e-302
5.89274e-306
-1.76785e-299
2.08367e-303
-6.91191e-297
7.20022e-301
-2.68015e-294
2.42533e-298
-1.03188e-291
7.92983e-296
-3.94905e-289
2.4981e-293
-1.50393e-286
7.47998e-291
-5.70559e-284
2.07094e-288
-2.15859e-281
4.95609e-286
-8.15245e-279
7.9447e-284
-2.96041e-276
-1.16407e-277
-9.1334e-274
-2.04311e-274
-2.34201e-271
-1.11073e-271
-4.86452e-269
-4.00965e-269
-7.94727e-267
-1.05461e-266
-9.89504e-265
-2.04478e-264
-9.11271e-263
-2.88664e-262
-6.0731e-261
-2.91225e-260
-2.90569e-259
-2.07203e-258
-1.00479e-257
-1.03923e-256
-2.55586e-256
-3.72199e-255
-4.89413e-255
-9.73198e-254
-7.23291e-254
-1.90698e-252
-8.45224e-253
-2.87663e-251
-7.98926e-252
-3.42664e-250
-6.23491e-251
-3.29988e-249
-4.09189e-250
-2.62366e-248
-2.29531e-249
-1.75483e-247
-1.11645e-248
-1.00378e-246
-4.76994e-248
-4.98253e-246
-1.81072e-247
-2.17431e-245
-6.16997e-247
-8.43915e-245
-1.90407e-246
-2.94338e-244
-5.36439e-246
-9.30849e-244
-1.38978e-245
-2.69093e-243
-3.33275e-245
-7.16319e-243
-7.4402e-245
-1.76752e-242
-1.55447e-244
-4.06645e-242
-3.05395e-244
-8.76995e-242
-5.66671e-244
-1.78163e-241
-9.97153e-244
-3.42486e-241
-1.67005e-243
-6.25612e-241
-2.67045e-243
-1.09005e-240
-4.08784e-243
-1.81757e-240
-6.00496e-243
-2.9087e-240
-8.48449e-243
-4.47946e-240
-1.15539e-242
-6.65537e-240
-1.51938e-242
-9.56236e-240
-1.93234e-242
-1.33173e-239
-2.37983e-242
-1.80122e-239
-2.8406e-242
-2.37045e-239
-3.2876e-242
-3.03986e-239
-3.69048e-242
-3.80374e-239
-4.01744e-242
-4.65032e-239
-4.2387e-242
-5.56145e-239
-4.32815e-242
-6.51419e-239
-4.26502e-242
-7.48079e-239
-4.03698e-242
-8.42791e-239
-3.64304e-242
-9.31904e-239
-3.09437e-242
-1.01175e-238
-2.38154e-242
-1.07912e-238
-1.10398e-242
-1.1167e-238
-2.47803e-247
-7.90596e-239
-3.74251e-243
2.23084e-243
-3.96944e-239
2.8733e-239
-2.06517e-235
5.65815e-239
-2.58287e-235
7.51647e-239
-2.53748e-235
9.08044e-239
-2.44709e-235
1.02892e-238
-2.31538e-235
1.10872e-238
-2.14532e-235
1.14519e-238
-1.94533e-235
1.13943e-238
-1.72601e-235
1.09554e-238
-1.4982e-235
1.01987e-238
-1.27179e-235
9.20237e-239
-1.05512e-235
8.05198e-239
-8.54843e-236
6.83137e-239
-6.75612e-236
5.61749e-239
-5.20259e-236
4.47358e-239
-3.89788e-236
3.44628e-239
-2.83662e-236
2.56485e-239
-2.00163e-236
1.84089e-239
-1.36665e-236
1.27186e-239
-9.00909e-237
8.43939e-240
-5.71946e-237
5.36493e-240
-3.48741e-237
3.25829e-240
-2.03625e-237
1.88464e-240
-1.13476e-237
1.0346e-240
-6.01386e-238
5.36973e-241
-3.01893e-238
2.62373e-241
-1.42922e-238
1.20121e-241
-6.35028e-239
5.12596e-242
-2.63401e-239
2.02723e-242
-1.01403e-239
7.38184e-243
-3.5993e-240
2.457e-243
-1.16933e-240
7.41502e-244
-3.44875e-241
2.01065e-244
-9.14989e-242
4.84875e-245
-2.16132e-242
1.02792e-245
-4.49267e-243
1.89059e-246
-8.10988e-244
2.97182e-247
-1.25222e-244
3.92405e-248
-1.62538e-245
4.26654e-249
-1.73824e-246
3.73244e-250
-1.49625e-247
2.55716e-251
-1.00874e-248
1.3293e-252
-5.15819e-250
5.05149e-254
-1.92615e-251
1.34307e-255
-5.02183e-253
2.37314e-257
-8.66854e-255
2.62635e-259
-9.31003e-257
1.70846e-261
-5.80508e-259
6.23429e-264
-1.97722e-261
1.34706e-266
-3.73884e-264
2.32233e-269
-5.00521e-267
4.37118e-272
-6.47733e-270
9.05806e-275
-7.53432e-273
1.97551e-277
-3.6623e-276
4.99741e-280
2.12303e-282
1.32759e-282
1.36163e-284
3.5172e-285
5.75158e-287
9.28299e-288
2.09362e-289
2.4382e-290
7.03984e-292
6.36597e-293
2.24893e-294
1.65039e-295
6.92035e-297
4.2436e-298
2.06675e-299
1.08092e-300
6.01637e-302
2.72421e-303
1.71141e-304
6.78462e-306
4.76375e-307
1.66759e-308
1.29836e-309
4.03972e-311
3.46537e-312
9.63179e-314
9.05527e-315
2.25699e-316
2.31538e-317
5.18996e-319
5.78847e-320
1.17094e-321
1.43279e-322
4.94066e-324
0
0
0
0
0
0
0
0
0
0
0
0
0
0
0
0
0
0
0
0
0
0
0
0
0
0
0
0
0
0
0
0
0
0
0
0
0
0
0
0
0
0
0
0
0
0
0
0
0
0
0
0
0
0
0
0
0
0
0
0
0
0
0
0
0
0
0
0
0
0
0
0
0
0
0
0
0
0
0
0
0
0
0
0
0
0
0
0
0
0
0
0
0
0
0
0
0
0
0
0
0
0
0
0
0
0
0
0
0
-4.94066e-324
0
-1.27469e-321
0
-5.7863e-319
1.67982e-322
-2.56809e-316
6.99795e-320
-1.11673e-313
2.86527e-317
-4.76541e-311
1.14605e-314
-1.99858e-308
4.4822e-312
-8.2497e-306
1.71538e-309
-3.35626e-303
6.42759e-307
-1.34758e-300
2.3586e-304
-5.34686e-298
8.47463e-302
-2.0991e-295
2.97973e-299
-8.1636e-293
1.02384e-296
-3.14891e-290
3.42916e-294
-1.20606e-287
1.11472e-291
-4.59189e-285
3.49085e-289
-1.73983e-282
1.03878e-286
-6.56722e-280
2.85628e-284
-2.47215e-277
6.77429e-282
-9.29049e-275
1.06469e-279
-3.34358e-272
-1.45577e-273
-1.01693e-269
-2.39275e-270
-2.55442e-267
-1.27152e-267
-5.1583e-265
-4.47496e-265
-8.12184e-263
-1.13967e-262
-9.65338e-261
-2.12127e-260
-8.40891e-259
-2.84734e-258
-5.2622e-257
-2.70685e-256
-2.35427e-255
-1.80257e-254
-7.60438e-254
-8.4331e-253
-1.80902e-252
-2.81625e-251
-3.24848e-251
-6.87856e-250
-4.51747e-250
-1.26299e-248
-4.98557e-249
-1.7918e-247
-4.46644e-248
-2.01506e-246
-3.3152e-247
-1.83878e-245
-2.07614e-246
-1.39028e-244
-1.11473e-245
-8.87241e-244
-5.20483e-245
-4.85752e-243
-2.14018e-244
-2.31446e-242
-7.83797e-244
-9.72048e-242
-2.58238e-243
-3.63979e-241
-7.72202e-243
-1.22747e-240
-2.11218e-242
-3.76149e-240
-5.32234e-242
-1.05574e-239
-1.24348e-241
-2.73345e-239
-2.70893e-241
-6.57142e-239
-5.53161e-241
-1.47536e-238
-1.06373e-240
-3.10989e-238
-1.93461e-240
-6.18417e-238
-3.3407e-240
-1.16522e-237
-5.49678e-240
-2.08879e-237
-8.64459e-240
-3.57562e-237
-1.30286e-239
-5.86393e-237
-1.88634e-239
-9.23947e-237
-2.62963e-239
-1.40243e-236
-3.53661e-239
-2.05585e-236
-4.59754e-239
-2.91727e-236
-5.78538e-239
-4.01638e-236
-7.05576e-239
-5.37506e-236
-8.34618e-239
-7.00492e-236
-9.57964e-239
-8.90257e-236
-1.06722e-238
-1.10479e-235
-1.15388e-238
-1.34051e-235
-1.21011e-238
-1.59235e-235
-1.2291e-238
-1.85399e-235
-1.20552e-238
-2.11786e-235
-1.13652e-238
-2.37484e-235
-1.02245e-238
-2.6155e-235
-8.66504e-239
-2.83055e-235
-6.65834e-239
-3.01186e-235
-3.09501e-239
-3.11143e-235
-7.71255e-244
-2.2087e-235
-1.16071e-239
4.90607e-240
-8.48997e-236
6.86875e-236
-4.98098e-232
1.36285e-235
-6.28948e-232
1.80026e-235
-6.12994e-232
2.16318e-235
-5.86136e-232
2.444e-235
-5.51426e-232
2.63167e-235
-5.09511e-232
2.72154e-235
-4.61924e-232
2.71551e-235
-4.10614e-232
2.62192e-235
-3.5769e-232
2.45407e-235
-3.05144e-232
2.22877e-235
-2.5473e-232
1.96487e-235
-2.07892e-232
1.68124e-235
-1.6568e-232
1.39563e-235
-1.2878e-232
1.12305e-235
-9.74842e-233
8.75039e-236
-7.17476e-233
6.59316e-236
-5.1253e-233
4.79562e-236
-3.54614e-233
3.36114e-236
-2.37131e-233
2.26491e-236
-1.52875e-233
1.46379e-236
-9.47632e-234
9.04857e-237
-5.63153e-234
5.33362e-237
-3.19807e-234
2.98763e-237
-1.72935e-234
1.58438e-237
-8.86982e-235
7.92132e-238
-4.29652e-235
3.71647e-238
-1.95627e-235
1.62789e-238
-8.32866e-236
6.6198e-239
-3.29673e-236
2.48315e-239
-1.20541e-236
8.5312e-240
-4.04207e-237
2.66328e-240
-1.23315e-237
7.4878e-241
-3.39213e-238
1.87698e-241
-8.32872e-239
4.1476e-242
-1.80455e-239
7.97555e-243
-3.40564e-240
1.31508e-243
-5.51614e-241
1.8282e-244
-7.53842e-242
2.10127e-245
-8.52273e-243
1.95195e-246
-7.79086e-244
1.42716e-247
-5.60616e-245
7.96129e-249
-3.077e-246
3.26651e-250
-1.24101e-247
9.44031e-252
-3.51883e-249
1.82629e-253
-6.65543e-251
2.22921e-255
-7.89315e-253
1.60897e-257
-5.47217e-255
6.50392e-260
-2.07427e-257
1.51281e-262
-4.26843e-260
2.63294e-265
-5.83956e-263
4.8794e-268
-7.46285e-266
1.00479e-270
-8.68499e-269
2.18778e-273
-4.4505e-272
5.53743e-276
2.65959e-278
1.47992e-278
1.7464e-280
3.94467e-281
7.45683e-283
1.04753e-283
2.73707e-285
2.76847e-286
9.27242e-288
7.27367e-289
2.98317e-290
1.89766e-291
9.2431e-293
4.91062e-294
2.77922e-295
1.2589e-296
8.14509e-298
3.19342e-299
2.33259e-300
8.00548e-302
6.53673e-303
1.98072e-304
1.79367e-305
4.83037e-307
4.81995e-308
1.15946e-309
1.2681e-310
2.73541e-312
3.26472e-313
6.33324e-315
8.21859e-316
1.43675e-317
2.02115e-318
3.18821e-320
4.85172e-321
6.91692e-323
9.88131e-324
0
0
0
0
0
0
0
0
0
0
0
0
0
0
0
0
0
0
0
0
0
0
0
0
0
0
0
0
0
0
0
0
0
0
0
0
0
0
0
0
0
0
0
0
0
0
0
0
0
0
0
0
0
0
0
0
0
0
0
0
0
0
0
0
0
0
0
0
0
0
0
0
0
0
0
0
0
0
0
0
0
0
0
0
0
0
0
0
0
0
0
0
0
0
0
0
0
0
0
0
0
0
0
0
-6.42285e-323
0
-3.01874e-320
9.88131e-324
-1.39292e-317
4.95548e-321
-6.27641e-315
2.11945e-318
-2.7665e-312
8.83146e-316
-1.19482e-309
3.59099e-313
-5.06423e-307
1.42644e-310
-2.10968e-304
5.54072e-308
-8.65046e-302
2.10608e-305
-3.49614e-299
7.83804e-303
-1.39458e-296
2.85673e-300
-5.49757e-294
1.01953e-297
-2.14442e-291
3.56056e-295
-8.28692e-289
1.21514e-292
-3.17636e-286
4.04226e-290
-1.20898e-283
1.30502e-287
-4.57459e-281
4.05798e-285
-1.72267e-278
1.19854e-282
-6.46307e-276
3.26818e-280
-2.41835e-273
7.6673e-278
-9.03434e-271
1.17587e-275
-3.21635e-268
-1.56666e-269
-9.62363e-266
-2.39021e-266
-2.36247e-263
-1.2374e-263
-4.62561e-261
-4.23319e-261
-6.99723e-259
-1.04074e-258
-7.91185e-257
-1.85328e-256
-6.49648e-255
-2.35662e-254
-3.80627e-253
-2.10361e-252
-1.5888e-251
-1.30735e-250
-4.78617e-250
-5.69286e-249
-1.06374e-248
-1.77015e-247
-1.79009e-247
-4.03484e-246
-2.34137e-246
-6.9377e-245
-2.43968e-245
-9.25293e-244
-2.07126e-244
-9.82176e-243
-1.46209e-243
-8.49185e-242
-8.73671e-243
-6.10537e-241
-4.48995e-242
-3.71745e-240
-2.01239e-241
-1.94795e-239
-7.96409e-241
-8.9092e-239
-2.81398e-240
-3.60126e-238
-8.96474e-240
-1.301e-237
-2.59756e-239
-4.24246e-237
-6.89831e-239
-1.25978e-236
-1.69073e-238
-3.43302e-236
-3.84868e-238
-8.64579e-236
-8.18228e-238
-2.0252e-235
-1.63303e-237
-4.43737e-235
-3.07383e-237
-9.14216e-235
-5.47952e-237
-1.77952e-234
-9.28582e-237
-3.28664e-234
-1.50109e-236
-5.7821e-234
-2.32183e-236
-9.72449e-234
-3.44542e-236
-1.56857e-233
-4.91687e-236
-2.43349e-233
-6.76308e-236
-3.6408e-233
-8.98346e-236
-5.26621e-233
-1.15447e-235
-7.38075e-233
-1.43733e-235
-1.00455e-232
-1.73575e-235
-1.33014e-232
-2.03468e-235
-1.71654e-232
-2.3161e-235
-2.16197e-232
-2.56092e-235
-2.66089e-232
-2.75024e-235
-3.20448e-232
-2.86711e-235
-3.78099e-232
-2.89678e-235
-4.37615e-232
-2.82809e-235
-4.97259e-232
-2.65585e-235
-5.55008e-232
-2.38184e-235
-6.0883e-232
-2.01364e-235
-6.56843e-232
-1.54439e-235
-6.97248e-232
-7.19604e-236
-7.19055e-232
-1.98885e-240
-5.11779e-232
-2.98485e-236
9.64202e-237
-1.6162e-232
1.38498e-232
-1.00688e-228
2.77205e-232
-1.2851e-228
3.65468e-232
-1.2487e-228
4.38113e-232
-1.18931e-228
4.94587e-232
-1.11622e-228
5.32923e-232
-1.03074e-228
5.52265e-232
-9.35508e-229
5.52893e-232
-8.33797e-229
5.36253e-232
-7.29241e-229
5.04734e-232
-6.25365e-229
4.61428e-232
-5.25354e-229
4.09878e-232
-4.3192e-229
3.53703e-232
-3.47103e-229
2.96395e-232
-2.72318e-229
2.40991e-232
-2.08267e-229
1.89906e-232
-1.55014e-229
1.44856e-232
-1.12094e-229
1.0677e-232
-7.85878e-230
7.59097e-233
-5.33054e-230
5.19431e-233
-3.4895e-230
3.41272e-233
-2.19883e-230
2.14709e-233
-1.32986e-230
1.28964e-233
-7.69524e-231
7.37066e-234
-4.24551e-231
3.99356e-234
-2.22466e-231
2.04289e-234
-1.10253e-231
9.82164e-235
-5.14386e-232
4.41558e-235
-2.24764e-232
1.84616e-235
-9.14699e-233
7.13341e-236
-3.44492e-233
2.52953e-236
-1.19225e-233
8.16809e-237
-3.76215e-234
2.38092e-237
-1.07291e-234
6.20353e-238
-2.73807e-235
1.42878e-238
-6.18318e-236
2.87232e-239
-1.21994e-236
4.9679e-240
-2.07264e-237
7.27091e-241
-2.98208e-238
8.83405e-242
-3.56408e-239
8.71412e-243
-3.45991e-240
6.79969e-244
-2.65745e-241
4.07092e-245
-1.56571e-242
1.80378e-246
-6.82172e-244
5.66826e-248
-2.10422e-245
1.20119e-249
-4.36285e-247
1.6185e-251
-5.7182e-249
1.29827e-253
-4.4144e-251
5.83688e-256
-1.8689e-253