/*--------------------------------*- C++ -*----------------------------------*\
| =========                 |                                                 |
| \\      /  F ield         | OpenFOAM: The Open Source CFD Toolbox           |
|  \\    /   O peration     | Version:  2412                                  |
|   \\  /    A nd           | Website:  www.openfoam.com                      |
|    \\/     M anipulation  |                                                 |
\*---------------------------------------------------------------------------*/
FoamFile
{
    version     2.0;
    format      ascii;
    arch        "LSB;label=32;scalar=64";
    class       volScalarField;
    location    "1.03";
    object      p;
}
// * * * * * * * * * * * * * * * * * * * * * * * * * * * * * * * * * * * * * //

dimensions      [1 -1 -2 0 0 0 0];

internalField   nonuniform List<scalar> 
40000
(
0
0.000115346
1.92017e-05
-0.000300843
-0.000826516
-0.00154054
-0.00243485
-0.00350466
-0.0047461
-0.00615654
-0.00773382
-0.00947598
-0.0113811
-0.0134473
-0.0156728
-0.0180558
-0.0205944
-0.0232866
-0.0261302
-0.0291231
-0.0322629
-0.0355473
-0.0389739
-0.0425402
-0.0462437
-0.0500816
-0.054051
-0.058149
-0.0623725
-0.0667181
-0.0711825
-0.075762
-0.080453
-0.0852515
-0.0901535
-0.095155
-0.100252
-0.105439
-0.110714
-0.116071
-0.121505
-0.127013
-0.132588
-0.138227
-0.143924
-0.149675
-0.155473
-0.161313
-0.16719
-0.173098
-0.179032
-0.184985
-0.190952
-0.196927
-0.202904
-0.208877
-0.21484
-0.220787
-0.22671
-0.232605
-0.238465
-0.244283
-0.250052
-0.255767
-0.261422
-0.267009
-0.272522
-0.277956
-0.283303
-0.288558
-0.293715
-0.298767
-0.303708
-0.308533
-0.313235
-0.317808
-0.322248
-0.326548
-0.330703
-0.334708
-0.338557
-0.342246
-0.345771
-0.349126
-0.352307
-0.355311
-0.358133
-0.36077
-0.363217
-0.365473
-0.367533
-0.369394
-0.371056
-0.372514
-0.373767
-0.374814
-0.375654
-0.376285
-0.376706
-0.376916
-0.376917
-0.376707
-0.376286
-0.375656
-0.374817
-0.37377
-0.372517
-0.371059
-0.369399
-0.367538
-0.365479
-0.363224
-0.360778
-0.358142
-0.35532
-0.352317
-0.349136
-0.345781
-0.342257
-0.338568
-0.334718
-0.330714
-0.326558
-0.322259
-0.317819
-0.313246
-0.308544
-0.303719
-0.298778
-0.293726
-0.288569
-0.283314
-0.277966
-0.272532
-0.267018
-0.261431
-0.255776
-0.25006
-0.24429
-0.238472
-0.232611
-0.226715
-0.22079
-0.214843
-0.208878
-0.202903
-0.196924
-0.190947
-0.184977
-0.179021
-0.173085
-0.167174
-0.161294
-0.155451
-0.149651
-0.143897
-0.138196
-0.132553
-0.126972
-0.12146
-0.11602
-0.110658
-0.105377
-0.100184
-0.0950806
-0.0900729
-0.0851644
-0.0803591
-0.075661
-0.0710738
-0.0666013
-0.062247
-0.0580143
-0.0539063
-0.049926
-0.0460765
-0.0423609
-0.0387814
-0.0353405
-0.0320412
-0.0288858
-0.0258764
-0.0230152
-0.0203042
-0.0177452
-0.0153398
-0.0130898
-0.0109967
-0.00906184
-0.00728641
-0.00567175
-0.00421885
-0.00292865
-0.00180205
-0.000840243
-4.36316e-05
0.000587571
0.00105313
0.00135178
0.00148887
-3.92361
-3.92361
-3.92378
-3.92413
-3.92467
-3.92539
-3.92629
-3.92736
-3.92861
-3.93002
-3.9316
-3.93334
-3.93525
-3.93732
-3.93954
-3.94193
-3.94447
-3.94716
-3.95001
-3.953
-3.95614
-3.95943
-3.96286
-3.96643
-3.97013
-3.97397
-3.97794
-3.98205
-3.98627
-3.99062
-3.99509
-3.99967
-4.00436
-4.00917
-4.01407
-4.01908
-4.02418
-4.02937
-4.03465
-4.04001
-4.04544
-4.05096
-4.05654
-4.06218
-4.06788
-4.07363
-4.07944
-4.08528
-4.09116
-4.09708
-4.10302
-4.10897
-4.11495
-4.12093
-4.12691
-4.13289
-4.13885
-4.14481
-4.15073
-4.15663
-4.1625
-4.16832
-4.1741
-4.17982
-4.18548
-4.19107
-4.19659
-4.20203
-4.20738
-4.21264
-4.2178
-4.22286
-4.22781
-4.23263
-4.23734
-4.24192
-4.24636
-4.25067
-4.25483
-4.25884
-4.26269
-4.26638
-4.26991
-4.27327
-4.27646
-4.27946
-4.28229
-4.28493
-4.28738
-4.28964
-4.2917
-4.29356
-4.29522
-4.29668
-4.29794
-4.29899
-4.29983
-4.30046
-4.30088
-4.30109
-4.30109
-4.30088
-4.30046
-4.29983
-4.29899
-4.29794
-4.29669
-4.29523
-4.29357
-4.2917
-4.28964
-4.28738
-4.28493
-4.2823
-4.27947
-4.27647
-4.27328
-4.26992
-4.26639
-4.2627
-4.25885
-4.25484
-4.25068
-4.24637
-4.24193
-4.23735
-4.23265
-4.22782
-4.22287
-4.21781
-4.21265
-4.20739
-4.20204
-4.1966
-4.19108
-4.18549
-4.17983
-4.17411
-4.16833
-4.16251
-4.15664
-4.15074
-4.14481
-4.13886
-4.13289
-4.12691
-4.12092
-4.11494
-4.10897
-4.103
-4.09706
-4.09115
-4.08526
-4.07942
-4.07361
-4.06785
-4.06215
-4.0565
-4.05092
-4.0454
-4.03996
-4.03459
-4.02931
-4.02411
-4.019
-4.01399
-4.00908
-4.00427
-3.99957
-3.99498
-3.9905
-3.98615
-3.98191
-3.9778
-3.97382
-3.96997
-3.96625
-3.96267
-3.95922
-3.95592
-3.95276
-3.94975
-3.94689
-3.94418
-3.94162
-3.93921
-3.93696
-3.93487
-3.93293
-3.93115
-3.92954
-3.92808
-3.92679
-3.92567
-3.9247
-3.92391
-3.92327
-3.92281
-3.92251
-3.92237
-7.84711
-7.84718
-7.8474
-7.84779
-7.84834
-7.84907
-7.84998
-7.85106
-7.85231
-7.85372
-7.8553
-7.85705
-7.85896
-7.86103
-7.86326
-7.86565
-7.86819
-7.87089
-7.87374
-7.87674
-7.87988
-7.88318
-7.88661
-7.89018
-7.89389
-7.89774
-7.90172
-7.90582
-7.91005
-7.91441
-7.91888
-7.92347
-7.92817
-7.93298
-7.93789
-7.9429
-7.94801
-7.95321
-7.9585
-7.96387
-7.96931
-7.97483
-7.98042
-7.98607
-7.99179
-7.99755
-8.00336
-8.00922
-8.01511
-8.02103
-8.02698
-8.03295
-8.03893
-8.04492
-8.05091
-8.0569
-8.06288
-8.06885
-8.07479
-8.0807
-8.08657
-8.09241
-8.09819
-8.10393
-8.1096
-8.1152
-8.12073
-8.12618
-8.13155
-8.13682
-8.14199
-8.14706
-8.15201
-8.15685
-8.16157
-8.16616
-8.17061
-8.17493
-8.1791
-8.18311
-8.18698
-8.19068
-8.19422
-8.19758
-8.20077
-8.20379
-8.20662
-8.20927
-8.21172
-8.21398
-8.21605
-8.21792
-8.21959
-8.22105
-8.22231
-8.22336
-8.2242
-8.22483
-8.22526
-8.22547
-8.22547
-8.22526
-8.22484
-8.2242
-8.22336
-8.22231
-8.22105
-8.21959
-8.21792
-8.21606
-8.21399
-8.21173
-8.20927
-8.20663
-8.2038
-8.20078
-8.19759
-8.19423
-8.19069
-8.18699
-8.18313
-8.17911
-8.17494
-8.17062
-8.16617
-8.16158
-8.15687
-8.15203
-8.14707
-8.142
-8.13683
-8.13156
-8.12619
-8.12074
-8.11521
-8.10961
-8.10394
-8.0982
-8.09242
-8.08658
-8.0807
-8.07479
-8.06885
-8.06289
-8.05691
-8.05091
-8.04492
-8.03893
-8.03294
-8.02697
-8.02102
-8.01509
-8.0092
-8.00334
-7.99753
-7.99176
-7.98604
-7.98039
-7.97479
-7.96927
-7.96382
-7.95844
-7.95315
-7.94794
-7.94283
-7.93781
-7.93289
-7.92808
-7.92337
-7.91877
-7.91429
-7.90993
-7.90569
-7.90157
-7.89758
-7.89373
-7.89
-7.88642
-7.88297
-7.87967
-7.8765
-7.87349
-7.87062
-7.86791
-7.86534
-7.86293
-7.86068
-7.85858
-7.85664
-7.85487
-7.85325
-7.85179
-7.8505
-7.84937
-7.84841
-7.84761
-7.84698
-7.84651
-7.84621
-7.84608
-11.7705
-11.7706
-11.7709
-11.7713
-11.7718
-11.7726
-11.7735
-11.7746
-11.7758
-11.7773
-11.7788
-11.7806
-11.7825
-11.7846
-11.7868
-11.7892
-11.7918
-11.7945
-11.7973
-11.8003
-11.8035
-11.8068
-11.8102
-11.8138
-11.8175
-11.8214
-11.8254
-11.8295
-11.8337
-11.8381
-11.8426
-11.8472
-11.8519
-11.8567
-11.8616
-11.8666
-11.8718
-11.877
-11.8823
-11.8876
-11.8931
-11.8986
-11.9042
-11.9099
-11.9156
-11.9214
-11.9272
-11.9331
-11.939
-11.945
-11.9509
-11.9569
-11.9629
-11.9689
-11.9749
-11.9809
-11.9869
-11.9929
-11.9989
-12.0048
-12.0107
-12.0165
-12.0223
-12.0281
-12.0338
-12.0394
-12.045
-12.0504
-12.0558
-12.0611
-12.0663
-12.0714
-12.0763
-12.0812
-12.0859
-12.0905
-12.095
-12.0993
-12.1035
-12.1075
-12.1114
-12.1151
-12.1187
-12.1221
-12.1253
-12.1283
-12.1311
-12.1338
-12.1363
-12.1385
-12.1406
-12.1425
-12.1442
-12.1456
-12.1469
-12.1479
-12.1488
-12.1494
-12.1498
-12.1501
-12.1501
-12.1498
-12.1494
-12.1488
-12.1479
-12.1469
-12.1456
-12.1442
-12.1425
-12.1406
-12.1385
-12.1363
-12.1338
-12.1311
-12.1283
-12.1253
-12.1221
-12.1187
-12.1152
-12.1114
-12.1076
-12.1035
-12.0993
-12.095
-12.0905
-12.0859
-12.0812
-12.0764
-12.0714
-12.0663
-12.0611
-12.0558
-12.0504
-12.045
-12.0394
-12.0338
-12.0281
-12.0224
-12.0166
-12.0107
-12.0048
-11.9989
-11.9929
-11.9869
-11.9809
-11.9749
-11.9689
-11.9629
-11.9569
-11.9509
-11.9449
-11.939
-11.9331
-11.9272
-11.9214
-11.9156
-11.9099
-11.9042
-11.8986
-11.8931
-11.8876
-11.8822
-11.8769
-11.8717
-11.8666
-11.8615
-11.8566
-11.8518
-11.8471
-11.8425
-11.838
-11.8336
-11.8293
-11.8252
-11.8212
-11.8174
-11.8136
-11.81
-11.8066
-11.8033
-11.8001
-11.7971
-11.7942
-11.7915
-11.7889
-11.7865
-11.7842
-11.7821
-11.7802
-11.7784
-11.7768
-11.7753
-11.774
-11.7729
-11.7719
-11.7711
-11.7705
-11.77
-11.7697
-11.7696
-15.6938
-15.6939
-15.6942
-15.6946
-15.6952
-15.6959
-15.6968
-15.6979
-15.6992
-15.7006
-15.7022
-15.704
-15.7059
-15.708
-15.7102
-15.7126
-15.7152
-15.7179
-15.7208
-15.7238
-15.7269
-15.7302
-15.7337
-15.7373
-15.741
-15.7449
-15.7489
-15.753
-15.7573
-15.7616
-15.7661
-15.7707
-15.7755
-15.7803
-15.7852
-15.7903
-15.7954
-15.8006
-15.806
-15.8114
-15.8168
-15.8224
-15.828
-15.8337
-15.8394
-15.8452
-15.8511
-15.857
-15.8629
-15.8689
-15.8748
-15.8809
-15.8869
-15.8929
-15.8989
-15.905
-15.911
-15.917
-15.923
-15.9289
-15.9348
-15.9407
-15.9466
-15.9523
-15.958
-15.9637
-15.9693
-15.9747
-15.9802
-15.9855
-15.9907
-15.9958
-16.0008
-16.0057
-16.0104
-16.015
-16.0195
-16.0239
-16.0281
-16.0321
-16.036
-16.0398
-16.0433
-16.0467
-16.0499
-16.053
-16.0558
-16.0585
-16.061
-16.0633
-16.0654
-16.0672
-16.0689
-16.0704
-16.0717
-16.0727
-16.0736
-16.0742
-16.0746
-16.0749
-16.0749
-16.0746
-16.0742
-16.0736
-16.0727
-16.0717
-16.0704
-16.0689
-16.0672
-16.0654
-16.0633
-16.061
-16.0585
-16.0559
-16.053
-16.05
-16.0467
-16.0433
-16.0398
-16.036
-16.0321
-16.0281
-16.0239
-16.0195
-16.0151
-16.0104
-16.0057
-16.0008
-15.9958
-15.9907
-15.9855
-15.9802
-15.9748
-15.9693
-15.9637
-15.9581
-15.9523
-15.9466
-15.9407
-15.9349
-15.9289
-15.923
-15.917
-15.911
-15.905
-15.8989
-15.8929
-15.8869
-15.8808
-15.8748
-15.8688
-15.8629
-15.857
-15.8511
-15.8452
-15.8394
-15.8337
-15.828
-15.8223
-15.8168
-15.8113
-15.8059
-15.8006
-15.7953
-15.7902
-15.7852
-15.7802
-15.7754
-15.7706
-15.766
-15.7615
-15.7571
-15.7529
-15.7487
-15.7447
-15.7408
-15.7371
-15.7335
-15.73
-15.7267
-15.7235
-15.7205
-15.7176
-15.7149
-15.7123
-15.7099
-15.7076
-15.7055
-15.7036
-15.7018
-15.7002
-15.6987
-15.6974
-15.6963
-15.6953
-15.6945
-15.6939
-15.6934
-15.6931
-15.693
-19.6169
-19.617
-19.6173
-19.6177
-19.6183
-19.6191
-19.62
-19.6211
-19.6224
-19.6238
-19.6254
-19.6272
-19.6291
-19.6312
-19.6335
-19.6359
-19.6385
-19.6412
-19.644
-19.6471
-19.6502
-19.6536
-19.657
-19.6606
-19.6644
-19.6682
-19.6723
-19.6764
-19.6807
-19.6851
-19.6896
-19.6942
-19.6989
-19.7038
-19.7088
-19.7138
-19.719
-19.7242
-19.7296
-19.735
-19.7405
-19.7461
-19.7517
-19.7574
-19.7632
-19.769
-19.7749
-19.7808
-19.7868
-19.7927
-19.7988
-19.8048
-19.8108
-19.8169
-19.823
-19.829
-19.8351
-19.8411
-19.8471
-19.8531
-19.859
-19.865
-19.8708
-19.8766
-19.8824
-19.888
-19.8936
-19.8992
-19.9046
-19.9099
-19.9152
-19.9203
-19.9253
-19.9303
-19.935
-19.9397
-19.9442
-19.9486
-19.9528
-19.9569
-19.9608
-19.9646
-19.9682
-19.9716
-19.9748
-19.9779
-19.9807
-19.9834
-19.9859
-19.9882
-19.9903
-19.9922
-19.9939
-19.9954
-19.9967
-19.9977
-19.9986
-19.9992
-19.9997
-19.9999
-19.9999
-19.9997
-19.9992
-19.9986
-19.9977
-19.9967
-19.9954
-19.9939
-19.9922
-19.9903
-19.9882
-19.9859
-19.9834
-19.9807
-19.9779
-19.9748
-19.9716
-19.9682
-19.9646
-19.9608
-19.9569
-19.9528
-19.9486
-19.9442
-19.9397
-19.935
-19.9303
-19.9254
-19.9203
-19.9152
-19.91
-19.9046
-19.8992
-19.8937
-19.888
-19.8824
-19.8766
-19.8708
-19.865
-19.8591
-19.8531
-19.8471
-19.8411
-19.8351
-19.829
-19.823
-19.8169
-19.8108
-19.8048
-19.7987
-19.7927
-19.7867
-19.7808
-19.7749
-19.769
-19.7632
-19.7574
-19.7517
-19.746
-19.7404
-19.7349
-19.7295
-19.7242
-19.7189
-19.7137
-19.7087
-19.7037
-19.6989
-19.6941
-19.6895
-19.6849
-19.6805
-19.6763
-19.6721
-19.6681
-19.6642
-19.6605
-19.6568
-19.6534
-19.65
-19.6468
-19.6438
-19.6409
-19.6382
-19.6356
-19.6332
-19.6309
-19.6288
-19.6268
-19.625
-19.6234
-19.6219
-19.6206
-19.6195
-19.6185
-19.6177
-19.6171
-19.6166
-19.6163
-19.6162
-23.5398
-23.54
-23.5403
-23.5407
-23.5413
-23.5421
-23.543
-23.5442
-23.5454
-23.5469
-23.5485
-23.5503
-23.5522
-23.5543
-23.5566
-23.559
-23.5616
-23.5643
-23.5672
-23.5702
-23.5734
-23.5767
-23.5802
-23.5838
-23.5876
-23.5915
-23.5955
-23.5997
-23.604
-23.6084
-23.6129
-23.6176
-23.6223
-23.6272
-23.6322
-23.6373
-23.6424
-23.6477
-23.6531
-23.6585
-23.6641
-23.6697
-23.6753
-23.6811
-23.6869
-23.6927
-23.6986
-23.7046
-23.7106
-23.7166
-23.7226
-23.7287
-23.7348
-23.7409
-23.747
-23.7531
-23.7592
-23.7652
-23.7713
-23.7773
-23.7833
-23.7892
-23.7951
-23.801
-23.8068
-23.8125
-23.8181
-23.8237
-23.8291
-23.8345
-23.8398
-23.845
-23.85
-23.855
-23.8598
-23.8645
-23.869
-23.8734
-23.8777
-23.8818
-23.8857
-23.8895
-23.8931
-23.8966
-23.8998
-23.9029
-23.9058
-23.9085
-23.911
-23.9134
-23.9155
-23.9174
-23.9191
-23.9206
-23.9219
-23.9229
-23.9238
-23.9245
-23.9249
-23.9251
-23.9251
-23.9249
-23.9245
-23.9238
-23.9229
-23.9219
-23.9206
-23.9191
-23.9174
-23.9155
-23.9134
-23.911
-23.9085
-23.9058
-23.9029
-23.8999
-23.8966
-23.8931
-23.8895
-23.8857
-23.8818
-23.8777
-23.8734
-23.869
-23.8645
-23.8598
-23.855
-23.85
-23.845
-23.8398
-23.8345
-23.8291
-23.8237
-23.8181
-23.8125
-23.8068
-23.801
-23.7951
-23.7892
-23.7833
-23.7773
-23.7713
-23.7652
-23.7592
-23.7531
-23.747
-23.7409
-23.7348
-23.7287
-23.7226
-23.7166
-23.7106
-23.7046
-23.6986
-23.6927
-23.6868
-23.681
-23.6753
-23.6696
-23.664
-23.6585
-23.653
-23.6477
-23.6424
-23.6372
-23.6321
-23.6271
-23.6222
-23.6175
-23.6128
-23.6083
-23.6038
-23.5995
-23.5954
-23.5913
-23.5874
-23.5837
-23.58
-23.5765
-23.5732
-23.57
-23.5669
-23.564
-23.5613
-23.5587
-23.5563
-23.554
-23.5519
-23.5499
-23.5481
-23.5465
-23.545
-23.5437
-23.5425
-23.5416
-23.5408
-23.5401
-23.5397
-23.5393
-23.5392
-27.4627
-27.4628
-27.4631
-27.4635
-27.4642
-27.4649
-27.4659
-27.467
-27.4683
-27.4698
-27.4714
-27.4732
-27.4751
-27.4772
-27.4795
-27.4819
-27.4845
-27.4873
-27.4902
-27.4932
-27.4964
-27.4998
-27.5033
-27.5069
-27.5107
-27.5146
-27.5186
-27.5228
-27.5271
-27.5316
-27.5361
-27.5408
-27.5456
-27.5505
-27.5555
-27.5606
-27.5658
-27.5711
-27.5765
-27.582
-27.5876
-27.5932
-27.5989
-27.6047
-27.6105
-27.6164
-27.6223
-27.6283
-27.6344
-27.6404
-27.6465
-27.6526
-27.6587
-27.6649
-27.671
-27.6771
-27.6833
-27.6894
-27.6955
-27.7015
-27.7076
-27.7136
-27.7195
-27.7254
-27.7312
-27.737
-27.7426
-27.7483
-27.7538
-27.7592
-27.7645
-27.7697
-27.7748
-27.7798
-27.7847
-27.7894
-27.794
-27.7984
-27.8027
-27.8069
-27.8108
-27.8147
-27.8183
-27.8218
-27.8251
-27.8282
-27.8311
-27.8338
-27.8364
-27.8387
-27.8408
-27.8428
-27.8445
-27.846
-27.8473
-27.8484
-27.8492
-27.8499
-27.8503
-27.8505
-27.8505
-27.8503
-27.8499
-27.8492
-27.8484
-27.8473
-27.846
-27.8445
-27.8428
-27.8408
-27.8387
-27.8364
-27.8338
-27.8311
-27.8282
-27.8251
-27.8218
-27.8183
-27.8147
-27.8108
-27.8069
-27.8027
-27.7984
-27.794
-27.7894
-27.7847
-27.7798
-27.7748
-27.7697
-27.7645
-27.7592
-27.7538
-27.7483
-27.7427
-27.737
-27.7312
-27.7254
-27.7195
-27.7136
-27.7076
-27.7015
-27.6955
-27.6894
-27.6833
-27.6771
-27.671
-27.6649
-27.6587
-27.6526
-27.6465
-27.6404
-27.6343
-27.6283
-27.6223
-27.6164
-27.6105
-27.6046
-27.5989
-27.5932
-27.5875
-27.5819
-27.5765
-27.5711
-27.5658
-27.5605
-27.5554
-27.5504
-27.5455
-27.5407
-27.536
-27.5315
-27.527
-27.5227
-27.5185
-27.5144
-27.5105
-27.5067
-27.5031
-27.4996
-27.4962
-27.493
-27.4899
-27.487
-27.4843
-27.4817
-27.4792
-27.4769
-27.4748
-27.4728
-27.471
-27.4694
-27.4679
-27.4666
-27.4654
-27.4644
-27.4636
-27.463
-27.4625
-27.4622
-27.4621
-31.3853
-31.3854
-31.3857
-31.3862
-31.3868
-31.3876
-31.3886
-31.3897
-31.391
-31.3925
-31.3941
-31.3959
-31.3979
-31.4
-31.4023
-31.4047
-31.4073
-31.4101
-31.413
-31.4161
-31.4193
-31.4226
-31.4262
-31.4298
-31.4336
-31.4376
-31.4416
-31.4458
-31.4502
-31.4546
-31.4592
-31.4639
-31.4687
-31.4737
-31.4787
-31.4839
-31.4891
-31.4944
-31.4999
-31.5054
-31.511
-31.5166
-31.5224
-31.5282
-31.5341
-31.54
-31.546
-31.552
-31.5581
-31.5642
-31.5703
-31.5765
-31.5827
-31.5888
-31.595
-31.6012
-31.6074
-31.6136
-31.6197
-31.6258
-31.6319
-31.6379
-31.6439
-31.6499
-31.6557
-31.6615
-31.6673
-31.6729
-31.6785
-31.684
-31.6893
-31.6946
-31.6997
-31.7048
-31.7097
-31.7144
-31.7191
-31.7236
-31.7279
-31.7321
-31.7361
-31.74
-31.7436
-31.7471
-31.7505
-31.7536
-31.7566
-31.7593
-31.7619
-31.7642
-31.7664
-31.7683
-31.7701
-31.7716
-31.7729
-31.774
-31.7749
-31.7756
-31.776
-31.7762
-31.7762
-31.776
-31.7756
-31.7749
-31.774
-31.7729
-31.7716
-31.7701
-31.7683
-31.7664
-31.7642
-31.7619
-31.7593
-31.7566
-31.7536
-31.7505
-31.7472
-31.7436
-31.74
-31.7361
-31.7321
-31.7279
-31.7236
-31.7191
-31.7145
-31.7097
-31.7048
-31.6998
-31.6946
-31.6893
-31.684
-31.6785
-31.6729
-31.6673
-31.6616
-31.6557
-31.6499
-31.6439
-31.6379
-31.6319
-31.6258
-31.6197
-31.6136
-31.6074
-31.6012
-31.595
-31.5888
-31.5827
-31.5765
-31.5703
-31.5642
-31.5581
-31.552
-31.546
-31.54
-31.5341
-31.5282
-31.5224
-31.5166
-31.5109
-31.5053
-31.4998
-31.4944
-31.489
-31.4838
-31.4786
-31.4736
-31.4687
-31.4638
-31.4591
-31.4545
-31.4501
-31.4457
-31.4415
-31.4374
-31.4335
-31.4297
-31.426
-31.4225
-31.4191
-31.4159
-31.4128
-31.4098
-31.4071
-31.4044
-31.402
-31.3997
-31.3975
-31.3956
-31.3937
-31.3921
-31.3906
-31.3893
-31.3881
-31.3871
-31.3863
-31.3857
-31.3852
-31.3849
-31.3848
-35.3078
-35.3079
-35.3082
-35.3087
-35.3093
-35.3101
-35.3111
-35.3122
-35.3135
-35.315
-35.3167
-35.3185
-35.3204
-35.3226
-35.3249
-35.3273
-35.33
-35.3327
-35.3357
-35.3388
-35.342
-35.3454
-35.3489
-35.3526
-35.3564
-35.3604
-35.3645
-35.3687
-35.3731
-35.3776
-35.3822
-35.3869
-35.3918
-35.3967
-35.4018
-35.407
-35.4123
-35.4177
-35.4231
-35.4287
-35.4343
-35.44
-35.4458
-35.4517
-35.4576
-35.4636
-35.4696
-35.4757
-35.4818
-35.488
-35.4942
-35.5004
-35.5066
-35.5128
-35.5191
-35.5253
-35.5315
-35.5378
-35.544
-35.5501
-35.5563
-35.5624
-35.5684
-35.5744
-35.5803
-35.5862
-35.592
-35.5977
-35.6033
-35.6088
-35.6143
-35.6196
-35.6248
-35.6299
-35.6348
-35.6396
-35.6443
-35.6489
-35.6532
-35.6575
-35.6615
-35.6654
-35.6691
-35.6727
-35.6761
-35.6792
-35.6822
-35.685
-35.6876
-35.69
-35.6922
-35.6941
-35.6959
-35.6974
-35.6988
-35.6999
-35.7008
-35.7014
-35.7019
-35.7021
-35.7021
-35.7019
-35.7014
-35.7008
-35.6999
-35.6988
-35.6974
-35.6959
-35.6941
-35.6922
-35.69
-35.6876
-35.685
-35.6822
-35.6792
-35.6761
-35.6727
-35.6692
-35.6654
-35.6615
-35.6575
-35.6532
-35.6489
-35.6443
-35.6396
-35.6348
-35.6299
-35.6248
-35.6196
-35.6143
-35.6089
-35.6033
-35.5977
-35.592
-35.5862
-35.5803
-35.5744
-35.5684
-35.5624
-35.5563
-35.5501
-35.544
-35.5378
-35.5315
-35.5253
-35.5191
-35.5128
-35.5066
-35.5004
-35.4941
-35.488
-35.4818
-35.4757
-35.4696
-35.4636
-35.4576
-35.4517
-35.4458
-35.44
-35.4343
-35.4286
-35.4231
-35.4176
-35.4122
-35.4069
-35.4017
-35.3967
-35.3917
-35.3868
-35.3821
-35.3775
-35.373
-35.3686
-35.3644
-35.3603
-35.3563
-35.3525
-35.3488
-35.3452
-35.3418
-35.3386
-35.3355
-35.3325
-35.3297
-35.3271
-35.3246
-35.3223
-35.3201
-35.3181
-35.3163
-35.3147
-35.3132
-35.3118
-35.3107
-35.3097
-35.3089
-35.3082
-35.3077
-35.3074
-35.3073
-39.2301
-39.2302
-39.2305
-39.231
-39.2317
-39.2325
-39.2334
-39.2346
-39.2359
-39.2374
-39.2391
-39.2409
-39.2429
-39.245
-39.2473
-39.2498
-39.2524
-39.2552
-39.2582
-39.2613
-39.2646
-39.268
-39.2715
-39.2752
-39.2791
-39.2831
-39.2872
-39.2915
-39.2959
-39.3004
-39.305
-39.3098
-39.3147
-39.3197
-39.3248
-39.33
-39.3354
-39.3408
-39.3463
-39.3519
-39.3576
-39.3634
-39.3692
-39.3751
-39.3811
-39.3871
-39.3932
-39.3993
-39.4055
-39.4117
-39.4179
-39.4242
-39.4305
-39.4368
-39.4431
-39.4494
-39.4557
-39.462
-39.4682
-39.4745
-39.4807
-39.4868
-39.4929
-39.499
-39.505
-39.5109
-39.5168
-39.5225
-39.5282
-39.5338
-39.5393
-39.5447
-39.5499
-39.5551
-39.5601
-39.565
-39.5697
-39.5743
-39.5787
-39.583
-39.5871
-39.5911
-39.5948
-39.5984
-39.6018
-39.6051
-39.6081
-39.6109
-39.6135
-39.6159
-39.6181
-39.6201
-39.6219
-39.6235
-39.6248
-39.626
-39.6269
-39.6275
-39.628
-39.6282
-39.6282
-39.628
-39.6275
-39.6269
-39.626
-39.6248
-39.6235
-39.6219
-39.6201
-39.6181
-39.6159
-39.6135
-39.6109
-39.6081
-39.6051
-39.6018
-39.5984
-39.5949
-39.5911
-39.5871
-39.583
-39.5787
-39.5743
-39.5697
-39.565
-39.5601
-39.5551
-39.55
-39.5447
-39.5393
-39.5338
-39.5282
-39.5226
-39.5168
-39.5109
-39.505
-39.499
-39.4929
-39.4868
-39.4807
-39.4745
-39.4682
-39.462
-39.4557
-39.4494
-39.4431
-39.4368
-39.4305
-39.4242
-39.4179
-39.4117
-39.4055
-39.3993
-39.3932
-39.3871
-39.381
-39.3751
-39.3692
-39.3633
-39.3575
-39.3519
-39.3463
-39.3407
-39.3353
-39.33
-39.3248
-39.3196
-39.3146
-39.3097
-39.305
-39.3003
-39.2958
-39.2914
-39.2871
-39.283
-39.279
-39.2751
-39.2714
-39.2678
-39.2644
-39.2611
-39.258
-39.255
-39.2522
-39.2496
-39.2471
-39.2447
-39.2426
-39.2406
-39.2387
-39.2371
-39.2355
-39.2342
-39.233
-39.2321
-39.2312
-39.2306
-39.2301
-39.2298
-39.2296
-43.1522
-43.1524
-43.1527
-43.1532
-43.1538
-43.1546
-43.1556
-43.1568
-43.1581
-43.1596
-43.1613
-43.1631
-43.1651
-43.1673
-43.1696
-43.1721
-43.1748
-43.1776
-43.1806
-43.1837
-43.187
-43.1904
-43.194
-43.1977
-43.2016
-43.2056
-43.2098
-43.2141
-43.2185
-43.2231
-43.2278
-43.2326
-43.2375
-43.2426
-43.2477
-43.253
-43.2584
-43.2638
-43.2694
-43.275
-43.2808
-43.2866
-43.2925
-43.2984
-43.3045
-43.3106
-43.3167
-43.3229
-43.3291
-43.3354
-43.3417
-43.348
-43.3544
-43.3608
-43.3671
-43.3735
-43.3799
-43.3862
-43.3925
-43.3988
-43.4051
-43.4113
-43.4175
-43.4236
-43.4297
-43.4357
-43.4416
-43.4475
-43.4532
-43.4589
-43.4644
-43.4699
-43.4752
-43.4804
-43.4855
-43.4904
-43.4952
-43.4999
-43.5044
-43.5087
-43.5129
-43.5169
-43.5207
-43.5244
-43.5278
-43.5311
-43.5341
-43.537
-43.5396
-43.5421
-43.5443
-43.5464
-43.5482
-43.5498
-43.5511
-43.5523
-43.5532
-43.5539
-43.5543
-43.5545
-43.5545
-43.5543
-43.5539
-43.5532
-43.5523
-43.5511
-43.5498
-43.5482
-43.5464
-43.5443
-43.5421
-43.5397
-43.537
-43.5341
-43.5311
-43.5278
-43.5244
-43.5207
-43.5169
-43.5129
-43.5087
-43.5044
-43.4999
-43.4953
-43.4905
-43.4855
-43.4804
-43.4752
-43.4699
-43.4645
-43.4589
-43.4533
-43.4475
-43.4417
-43.4357
-43.4297
-43.4237
-43.4175
-43.4114
-43.4051
-43.3989
-43.3925
-43.3862
-43.3799
-43.3735
-43.3671
-43.3608
-43.3544
-43.348
-43.3417
-43.3354
-43.3291
-43.3229
-43.3167
-43.3105
-43.3045
-43.2984
-43.2925
-43.2866
-43.2807
-43.275
-43.2693
-43.2638
-43.2583
-43.2529
-43.2477
-43.2425
-43.2374
-43.2325
-43.2277
-43.223
-43.2184
-43.214
-43.2097
-43.2055
-43.2015
-43.1976
-43.1939
-43.1903
-43.1868
-43.1835
-43.1804
-43.1774
-43.1745
-43.1719
-43.1694
-43.167
-43.1648
-43.1628
-43.161
-43.1593
-43.1578
-43.1564
-43.1553
-43.1542
-43.1534
-43.1528
-43.1523
-43.152
-43.1518
-47.0742
-47.0744
-47.0747
-47.0752
-47.0758
-47.0766
-47.0776
-47.0788
-47.0801
-47.0817
-47.0833
-47.0852
-47.0872
-47.0894
-47.0917
-47.0943
-47.0969
-47.0998
-47.1028
-47.1059
-47.1093
-47.1127
-47.1163
-47.1201
-47.124
-47.1281
-47.1323
-47.1366
-47.1411
-47.1457
-47.1504
-47.1552
-47.1602
-47.1653
-47.1705
-47.1758
-47.1812
-47.1868
-47.1924
-47.1981
-47.2039
-47.2098
-47.2157
-47.2217
-47.2278
-47.234
-47.2402
-47.2464
-47.2527
-47.2591
-47.2655
-47.2719
-47.2783
-47.2847
-47.2912
-47.2976
-47.304
-47.3105
-47.3169
-47.3233
-47.3296
-47.3359
-47.3422
-47.3484
-47.3545
-47.3606
-47.3666
-47.3725
-47.3783
-47.3841
-47.3897
-47.3952
-47.4006
-47.4059
-47.411
-47.4161
-47.4209
-47.4256
-47.4302
-47.4346
-47.4388
-47.4429
-47.4468
-47.4505
-47.454
-47.4573
-47.4604
-47.4633
-47.466
-47.4685
-47.4707
-47.4728
-47.4746
-47.4762
-47.4776
-47.4788
-47.4797
-47.4804
-47.4809
-47.4811
-47.4811
-47.4809
-47.4804
-47.4797
-47.4788
-47.4776
-47.4762
-47.4746
-47.4728
-47.4707
-47.4685
-47.466
-47.4633
-47.4604
-47.4573
-47.454
-47.4505
-47.4468
-47.4429
-47.4388
-47.4346
-47.4302
-47.4257
-47.4209
-47.4161
-47.4111
-47.4059
-47.4006
-47.3952
-47.3897
-47.3841
-47.3784
-47.3725
-47.3666
-47.3606
-47.3545
-47.3484
-47.3422
-47.3359
-47.3296
-47.3233
-47.3169
-47.3105
-47.304
-47.2976
-47.2912
-47.2847
-47.2783
-47.2719
-47.2655
-47.2591
-47.2527
-47.2464
-47.2402
-47.234
-47.2278
-47.2217
-47.2157
-47.2097
-47.2038
-47.198
-47.1923
-47.1867
-47.1812
-47.1758
-47.1705
-47.1652
-47.1602
-47.1552
-47.1503
-47.1456
-47.141
-47.1365
-47.1322
-47.128
-47.1239
-47.12
-47.1162
-47.1126
-47.1091
-47.1058
-47.1026
-47.0996
-47.0967
-47.094
-47.0915
-47.0891
-47.0869
-47.0849
-47.083
-47.0813
-47.0798
-47.0785
-47.0773
-47.0763
-47.0754
-47.0748
-47.0743
-47.074
-47.0738
-50.996
-50.9962
-50.9965
-50.997
-50.9976
-50.9985
-50.9995
-51.0006
-51.002
-51.0035
-51.0052
-51.0071
-51.0091
-51.0113
-51.0137
-51.0162
-51.0189
-51.0218
-51.0248
-51.028
-51.0314
-51.0349
-51.0385
-51.0423
-51.0463
-51.0504
-51.0546
-51.059
-51.0635
-51.0681
-51.0729
-51.0778
-51.0828
-51.0879
-51.0932
-51.0986
-51.104
-51.1096
-51.1153
-51.1211
-51.1269
-51.1328
-51.1389
-51.145
-51.1511
-51.1573
-51.1636
-51.1699
-51.1763
-51.1827
-51.1892
-51.1957
-51.2022
-51.2087
-51.2152
-51.2217
-51.2282
-51.2347
-51.2412
-51.2477
-51.2541
-51.2605
-51.2669
-51.2732
-51.2794
-51.2855
-51.2916
-51.2976
-51.3035
-51.3094
-51.3151
-51.3207
-51.3262
-51.3315
-51.3367
-51.3418
-51.3468
-51.3516
-51.3562
-51.3606
-51.3649
-51.3691
-51.373
-51.3768
-51.3803
-51.3837
-51.3868
-51.3898
-51.3925
-51.3951
-51.3974
-51.3995
-51.4013
-51.403
-51.4044
-51.4055
-51.4065
-51.4072
-51.4077
-51.4079
-51.4079
-51.4077
-51.4072
-51.4065
-51.4055
-51.4044
-51.403
-51.4013
-51.3995
-51.3974
-51.3951
-51.3925
-51.3898
-51.3868
-51.3837
-51.3803
-51.3768
-51.373
-51.3691
-51.365
-51.3607
-51.3562
-51.3516
-51.3468
-51.3418
-51.3367
-51.3315
-51.3262
-51.3207
-51.3151
-51.3094
-51.3036
-51.2976
-51.2916
-51.2856
-51.2794
-51.2732
-51.2669
-51.2605
-51.2541
-51.2477
-51.2412
-51.2348
-51.2282
-51.2217
-51.2152
-51.2087
-51.2022
-51.1957
-51.1892
-51.1827
-51.1763
-51.1699
-51.1636
-51.1573
-51.1511
-51.1449
-51.1388
-51.1328
-51.1269
-51.121
-51.1152
-51.1096
-51.104
-51.0985
-51.0931
-51.0879
-51.0827
-51.0777
-51.0728
-51.068
-51.0634
-51.0589
-51.0545
-51.0502
-51.0461
-51.0422
-51.0384
-51.0347
-51.0312
-51.0279
-51.0247
-51.0216
-51.0187
-51.016
-51.0135
-51.0111
-51.0089
-51.0068
-51.0049
-51.0032
-51.0017
-51.0003
-50.9991
-50.9981
-50.9973
-50.9966
-50.9961
-50.9958
-50.9957
-54.9177
-54.9178
-54.9181
-54.9186
-54.9193
-54.9201
-54.9211
-54.9223
-54.9237
-54.9252
-54.9269
-54.9288
-54.9309
-54.9331
-54.9355
-54.9381
-54.9408
-54.9437
-54.9467
-54.95
-54.9533
-54.9569
-54.9605
-54.9644
-54.9684
-54.9725
-54.9768
-54.9812
-54.9857
-54.9904
-54.9952
-55.0002
-55.0053
-55.0105
-55.0158
-55.0212
-55.0267
-55.0324
-55.0381
-55.0439
-55.0498
-55.0559
-55.0619
-55.0681
-55.0743
-55.0806
-55.087
-55.0934
-55.0998
-55.1063
-55.1129
-55.1194
-55.126
-55.1326
-55.1392
-55.1458
-55.1524
-55.159
-55.1656
-55.1722
-55.1787
-55.1852
-55.1916
-55.198
-55.2043
-55.2106
-55.2167
-55.2228
-55.2288
-55.2347
-55.2405
-55.2462
-55.2518
-55.2572
-55.2626
-55.2677
-55.2727
-55.2776
-55.2823
-55.2869
-55.2912
-55.2954
-55.2994
-55.3032
-55.3069
-55.3103
-55.3135
-55.3165
-55.3193
-55.3219
-55.3242
-55.3263
-55.3282
-55.3299
-55.3313
-55.3325
-55.3335
-55.3342
-55.3347
-55.3349
-55.3349
-55.3347
-55.3342
-55.3335
-55.3325
-55.3313
-55.3299
-55.3282
-55.3263
-55.3242
-55.3219
-55.3193
-55.3165
-55.3135
-55.3103
-55.3069
-55.3033
-55.2994
-55.2954
-55.2912
-55.2869
-55.2823
-55.2776
-55.2728
-55.2677
-55.2626
-55.2573
-55.2518
-55.2463
-55.2406
-55.2348
-55.2289
-55.2229
-55.2168
-55.2106
-55.2043
-55.198
-55.1916
-55.1852
-55.1787
-55.1722
-55.1656
-55.159
-55.1524
-55.1458
-55.1392
-55.1326
-55.126
-55.1194
-55.1129
-55.1063
-55.0998
-55.0934
-55.087
-55.0806
-55.0743
-55.0681
-55.0619
-55.0558
-55.0498
-55.0439
-55.0381
-55.0323
-55.0267
-55.0211
-55.0157
-55.0104
-55.0052
-55.0001
-54.9952
-54.9903
-54.9856
-54.9811
-54.9767
-54.9724
-54.9682
-54.9642
-54.9604
-54.9567
-54.9532
-54.9498
-54.9466
-54.9435
-54.9406
-54.9379
-54.9353
-54.9329
-54.9306
-54.9286
-54.9267
-54.925
-54.9234
-54.922
-54.9208
-54.9198
-54.919
-54.9183
-54.9178
-54.9175
-54.9173
-58.8391
-58.8393
-58.8396
-58.8401
-58.8407
-58.8416
-58.8426
-58.8438
-58.8452
-58.8468
-58.8485
-58.8504
-58.8525
-58.8547
-58.8571
-58.8597
-58.8625
-58.8654
-58.8685
-58.8717
-58.8751
-58.8787
-58.8824
-58.8863
-58.8903
-58.8945
-58.8988
-58.9033
-58.9079
-58.9126
-58.9175
-58.9225
-58.9276
-58.9329
-58.9382
-58.9437
-58.9493
-58.955
-58.9608
-58.9667
-58.9727
-58.9788
-58.9849
-58.9912
-58.9975
-59.0039
-59.0103
-59.0168
-59.0233
-59.0299
-59.0365
-59.0432
-59.0499
-59.0565
-59.0633
-59.07
-59.0767
-59.0834
-59.09
-59.0967
-59.1033
-59.1099
-59.1164
-59.1229
-59.1293
-59.1357
-59.1419
-59.1481
-59.1542
-59.1602
-59.1661
-59.1719
-59.1776
-59.1831
-59.1885
-59.1938
-59.1989
-59.2038
-59.2086
-59.2133
-59.2177
-59.222
-59.226
-59.2299
-59.2336
-59.2371
-59.2404
-59.2434
-59.2463
-59.2489
-59.2513
-59.2535
-59.2554
-59.2571
-59.2585
-59.2598
-59.2607
-59.2615
-59.262
-59.2622
-59.2622
-59.262
-59.2615
-59.2607
-59.2598
-59.2586
-59.2571
-59.2554
-59.2535
-59.2513
-59.2489
-59.2463
-59.2434
-59.2404
-59.2371
-59.2336
-59.2299
-59.2261
-59.222
-59.2177
-59.2133
-59.2086
-59.2039
-59.1989
-59.1938
-59.1885
-59.1831
-59.1776
-59.1719
-59.1662
-59.1603
-59.1543
-59.1482
-59.142
-59.1357
-59.1293
-59.1229
-59.1164
-59.1099
-59.1033
-59.0967
-59.09
-59.0834
-59.0767
-59.07
-59.0633
-59.0566
-59.0499
-59.0432
-59.0365
-59.0299
-59.0233
-59.0168
-59.0103
-59.0039
-58.9975
-58.9912
-58.9849
-58.9788
-58.9727
-58.9667
-58.9608
-58.955
-58.9493
-58.9437
-58.9382
-58.9328
-58.9276
-58.9224
-58.9174
-58.9125
-58.9078
-58.9032
-58.8987
-58.8944
-58.8902
-58.8862
-58.8823
-58.8786
-58.875
-58.8716
-58.8683
-58.8652
-58.8623
-58.8595
-58.8569
-58.8545
-58.8522
-58.8502
-58.8482
-58.8465
-58.8449
-58.8436
-58.8423
-58.8413
-58.8404
-58.8398
-58.8393
-58.839
-58.8388
-62.7604
-62.7605
-62.7609
-62.7614
-62.762
-62.7629
-62.7639
-62.7651
-62.7665
-62.7681
-62.7699
-62.7718
-62.7739
-62.7762
-62.7786
-62.7812
-62.784
-62.7869
-62.7901
-62.7933
-62.7968
-62.8004
-62.8041
-62.8081
-62.8121
-62.8163
-62.8207
-62.8252
-62.8299
-62.8347
-62.8396
-62.8446
-62.8498
-62.8551
-62.8606
-62.8661
-62.8718
-62.8776
-62.8834