/*--------------------------------*- C++ -*----------------------------------*\
| =========                 |                                                 |
| \\      /  F ield         | OpenFOAM: The Open Source CFD Toolbox           |
|  \\    /   O peration     | Version:  2412                                  |
|   \\  /    A nd           | Website:  www.openfoam.com                      |
|    \\/     M anipulation  |                                                 |
\*---------------------------------------------------------------------------*/
FoamFile
{
    version     2.0;
    format      ascii;
    arch        "LSB;label=32;scalar=64";
    class       volScalarField;
    location    "1.03";
    object      p_rgh;
}
// * * * * * * * * * * * * * * * * * * * * * * * * * * * * * * * * * * * * * //

dimensions      [1 -1 -2 0 0 0 0];

internalField   nonuniform List<scalar> 
40000
(
1.962
1.96212
1.96202
1.9617
1.96117
1.96046
1.95957
1.9585
1.95725
1.95584
1.95427
1.95252
1.95062
1.94855
1.94633
1.94394
1.94141
1.93871
1.93587
1.93288
1.92974
1.92645
1.92303
1.91946
1.91576
1.91192
1.90795
1.90385
1.89963
1.89528
1.89082
1.88624
1.88155
1.87675
1.87185
1.86685
1.86175
1.85656
1.85129
1.84593
1.84049
1.83499
1.82941
1.82377
1.81808
1.81233
1.80653
1.80069
1.79481
1.7889
1.78297
1.77702
1.77105
1.76507
1.7591
1.75312
1.74716
1.74121
1.73529
1.72939
1.72354
1.71772
1.71195
1.70623
1.70058
1.69499
1.68948
1.68404
1.6787
1.67344
1.66829
1.66323
1.65829
1.65347
1.64877
1.64419
1.63975
1.63545
1.6313
1.62729
1.62344
1.61975
1.61623
1.61287
1.60969
1.60669
1.60387
1.60123
1.59878
1.59653
1.59447
1.59261
1.59094
1.58949
1.58823
1.58719
1.58635
1.58572
1.58529
1.58508
1.58508
1.58529
1.58571
1.58634
1.58718
1.58823
1.58948
1.59094
1.5926
1.59446
1.59652
1.59878
1.60122
1.60386
1.60668
1.60968
1.61286
1.61622
1.61974
1.62343
1.62728
1.63129
1.63544
1.63974
1.64418
1.64875
1.65346
1.65828
1.66322
1.66827
1.67343
1.67869
1.68403
1.68947
1.69498
1.70057
1.70622
1.71194
1.71771
1.72353
1.72939
1.73528
1.74121
1.74716
1.75312
1.7591
1.76508
1.77105
1.77702
1.78298
1.78891
1.79483
1.80071
1.80655
1.81235
1.8181
1.8238
1.82945
1.83503
1.84054
1.84598
1.85134
1.85662
1.86182
1.86692
1.87193
1.87684
1.88164
1.88634
1.89093
1.8954
1.89975
1.90399
1.90809
1.91207
1.91592
1.91964
1.92322
1.92666
1.92996
1.93311
1.93612
1.93898
1.9417
1.94425
1.94666
1.94891
1.951
1.95294
1.95471
1.95633
1.95778
1.95907
1.9602
1.96116
1.96196
1.96259
1.96305
1.96335
1.96349
1.96239
1.96239
1.96222
1.96187
1.96133
1.96061
1.95971
1.95864
1.95739
1.95598
1.9544
1.95266
1.95075
1.94868
1.94646
1.94407
1.94153
1.93884
1.93599
1.933
1.92986
1.92657
1.92314
1.91957
1.91587
1.91203
1.90806
1.90395
1.89973
1.89538
1.89091
1.88633
1.88164
1.87683
1.87193
1.86692
1.86182
1.85663
1.85135
1.84599
1.84056
1.83504
1.82946
1.82382
1.81812
1.81237
1.80656
1.80072
1.79484
1.78892
1.78298
1.77703
1.77105
1.76507
1.75909
1.75311
1.74715
1.74119
1.73527
1.72937
1.7235
1.71768
1.7119
1.70618
1.70052
1.69493
1.68941
1.68397
1.67862
1.67336
1.6682
1.66314
1.65819
1.65337
1.64866
1.64408
1.63964
1.63533
1.63117
1.62716
1.62331
1.61962
1.61609
1.61273
1.60954
1.60654
1.60371
1.60107
1.59862
1.59636
1.5943
1.59244
1.59078
1.58932
1.58806
1.58701
1.58617
1.58554
1.58512
1.58491
1.58491
1.58512
1.58554
1.58617
1.58701
1.58806
1.58931
1.59077
1.59243
1.5943
1.59636
1.59862
1.60107
1.6037
1.60653
1.60953
1.61272
1.61608
1.61961
1.6233
1.62715
1.63116
1.63532
1.63963
1.64407
1.64865
1.65335
1.65818
1.66313
1.66819
1.67335
1.67861
1.68396
1.6894
1.69492
1.70051
1.70617
1.71189
1.71767
1.72349
1.72936
1.73526
1.74119
1.74714
1.75311
1.75909
1.76508
1.77106
1.77703
1.783
1.78894
1.79485
1.80074
1.80658
1.81239
1.81815
1.82385
1.8295
1.83508
1.8406
1.84604
1.85141
1.85669
1.86189
1.867
1.87201
1.87692
1.88173
1.88643
1.89102
1.8955
1.89985
1.90409
1.9082
1.91218
1.91603
1.91975
1.92333
1.92678
1.93008
1.93324
1.93625
1.93911
1.94182
1.94438
1.94679
1.94904
1.95113
1.95307
1.95485
1.95646
1.95792
1.95921
1.96033
1.9613
1.96209
1.96273
1.96319
1.96349
1.96363
1.96289
1.96282
1.9626
1.96221
1.96166
1.96093
1.96002
1.95894
1.95769
1.95628
1.9547
1.95295
1.95104
1.94897
1.94674
1.94435
1.94181
1.93911
1.93626
1.93326
1.93012
1.92682
1.92339
1.91982
1.91611
1.91226
1.90828
1.90418
1.89995
1.89559
1.89112
1.88653
1.88183
1.87702
1.87211
1.8671
1.86199
1.85679
1.8515
1.84613
1.84069
1.83517
1.82958
1.82393
1.81821
1.81245
1.80664
1.80078
1.79489
1.78897
1.78302
1.77705
1.77107
1.76508
1.75909
1.7531
1.74712
1.74115
1.73521
1.7293
1.72343
1.71759
1.71181
1.70607
1.7004
1.6948
1.68927
1.68382
1.67845
1.67318
1.66801
1.66294
1.65799
1.65315
1.64843
1.64384
1.63939
1.63507
1.6309
1.62689
1.62302
1.61932
1.61578
1.61242
1.60923
1.60621
1.60338
1.60073
1.59828
1.59602
1.59395
1.59208
1.59041
1.58895
1.58769
1.58664
1.5858
1.58517
1.58474
1.58453
1.58453
1.58474
1.58516
1.5858
1.58664
1.58769
1.58895
1.59041
1.59208
1.59394
1.59601
1.59827
1.60073
1.60337
1.6062
1.60922
1.61241
1.61577
1.61931
1.62301
1.62687
1.63089
1.63506
1.63938
1.64383
1.64842
1.65313
1.65797
1.66293
1.668
1.67317
1.67844
1.68381
1.68926
1.69479
1.70039
1.70606
1.7118
1.71758
1.72342
1.7293
1.73521
1.74115
1.74711
1.75309
1.75909
1.76508
1.77107
1.77706
1.78303
1.78898
1.79491
1.8008
1.80666
1.81247
1.81824
1.82396
1.82961
1.83521
1.84073
1.84618
1.85156
1.85685
1.86206
1.86717
1.87219
1.87711
1.88192
1.88663
1.89123
1.89571
1.90007
1.90431
1.90843
1.91242
1.91627
1.92
1.92358
1.92703
1.93033
1.9335
1.93651
1.93938
1.94209
1.94466
1.94707
1.94932
1.95142
1.95336
1.95513
1.95675
1.95821
1.9595
1.96063
1.96159
1.96239
1.96302
1.96349
1.96379
1.96392
1.9635
1.9634
1.96314
1.96274
1.96216
1.96142
1.9605
1.95941
1.95816
1.95674
1.95515
1.9534
1.95149
1.94941
1.94718
1.94478
1.94223
1.93953
1.93668
1.93367
1.93052
1.92722
1.92378
1.9202
1.91648
1.91263
1.90864
1.90453
1.90028
1.89592
1.89144
1.88684
1.88213
1.87731
1.87239
1.86736
1.86224
1.85703
1.85173
1.84635
1.84089
1.83536
1.82975
1.82409
1.81836
1.81258
1.80676
1.80089
1.79498
1.78904
1.78308
1.77709
1.77109
1.76508
1.75907
1.75307
1.74707
1.74109
1.73513
1.7292
1.72331
1.71746
1.71165
1.7059
1.70022
1.69459
1.68905
1.68358
1.6782
1.67291
1.66772
1.66263
1.65766
1.6528
1.64807
1.64347
1.639
1.63467
1.63048
1.62645
1.62258
1.61886
1.61531
1.61193
1.60873
1.6057
1.60286
1.60021
1.59774
1.59547
1.5934
1.59152
1.58985
1.58838
1.58712
1.58606
1.58521
1.58458
1.58415
1.58394
1.58394
1.58415
1.58458
1.58521
1.58606
1.58711
1.58837
1.58984
1.59152
1.59339
1.59546
1.59773
1.6002
1.60285
1.60569
1.60872
1.61192
1.6153
1.61885
1.62256
1.62644
1.63047
1.63466
1.63899
1.64346
1.64806
1.65279
1.65765
1.66262
1.66771
1.6729
1.67819
1.68357
1.68903
1.69458
1.70021
1.70589
1.71164
1.71745
1.7233
1.7292
1.73513
1.74109
1.74707
1.75307
1.75907
1.76509
1.7711
1.7771
1.78309
1.78905
1.79499
1.8009
1.80678
1.81261
1.81839
1.82412
1.82979
1.8354
1.84094
1.8464
1.85179
1.85709
1.86231
1.86744
1.87247
1.87739
1.88222
1.88694
1.89155
1.89604
1.90041
1.90466
1.90878
1.91278
1.91664
1.92038
1.92397
1.92742
1.93073
1.9339
1.93692
1.9398
1.94252
1.94509
1.9475
1.94976
1.95186
1.9538
1.95558
1.9572
1.95866
1.95996
1.96109
1.96205
1.96285
1.96349
1.96395
1.96425
1.96439
1.96424
1.96412
1.96385
1.96342
1.96283
1.96208
1.96115
1.96006
1.9588
1.95737
1.95577
1.95402
1.95209
1.95001
1.94777
1.94537
1.94281
1.9401
1.93724
1.93423
1.93107
1.92776
1.92431
1.92072
1.91699
1.91312
1.90913
1.905
1.90075
1.89637
1.89187
1.88726
1.88254
1.8777
1.87277
1.86773
1.86259
1.85736
1.85205
1.84665
1.84117
1.83562
1.82999
1.82431
1.81856
1.81276
1.80692
1.80103
1.7951
1.78914
1.78315
1.77714
1.77112
1.76509
1.75906
1.75303
1.74701
1.74101
1.73502
1.72907
1.72315
1.71728
1.71145
1.70567
1.69996
1.69432
1.68874
1.68325
1.67785
1.67253
1.66732
1.66221
1.65722
1.65234
1.64758
1.64296
1.63847
1.63412
1.62991
1.62586
1.62197
1.61823
1.61467
1.61127
1.60805
1.60501
1.60216
1.59949
1.59701
1.59473
1.59264
1.59076
1.58908
1.5876
1.58633
1.58527
1.58442
1.58378
1.58335
1.58314
1.58314
1.58335
1.58378
1.58442
1.58527
1.58633
1.5876
1.58907
1.59075
1.59264
1.59472
1.597
1.59948
1.60215
1.605
1.60804
1.61126
1.61466
1.61822
1.62196
1.62585
1.6299
1.63411
1.63845
1.64295
1.64757
1.65233
1.6572
1.6622
1.66731
1.67252
1.67783
1.68324
1.68873
1.6943
1.69995
1.70566
1.71144
1.71727
1.72314
1.72906
1.73502
1.741
1.74701
1.75303
1.75906
1.76509
1.77113
1.77715
1.78316
1.78915
1.79511
1.80104
1.80694
1.81279
1.81859
1.82434
1.83003
1.83566
1.84121
1.8467
1.8521
1.85742
1.86266
1.8678
1.87284
1.87779
1.88263
1.88736
1.89198
1.89648
1.90087
1.90513
1.90927
1.91328
1.91715
1.92089
1.9245
1.92796
1.93128
1.93446
1.93748
1.94036
1.94309
1.94567
1.94809
1.95035
1.95246
1.95441
1.95619
1.95782
1.95928
1.96058
1.96171
1.96268
1.96348
1.96412
1.96458
1.96488
1.96502
1.96512
1.96499
1.96471
1.96427
1.96367
1.9629
1.96197
1.96087
1.9596
1.95816
1.95656
1.95479
1.95286
1.95077
1.94852
1.94611
1.94355
1.94083
1.93796
1.93493
1.93176
1.92844
1.92498
1.92137
1.91763
1.91375
1.90974
1.9056
1.90133
1.89694
1.89243
1.8878
1.88305
1.8782
1.87324
1.86819
1.86303
1.85778
1.85244
1.84702
1.84152
1.83594
1.8303
1.82459
1.81882
1.813
1.80712
1.8012
1.79525
1.78926
1.78325
1.77721
1.77116
1.7651
1.75904
1.75298
1.74693
1.7409
1.73488
1.7289
1.72295
1.71705
1.71119
1.70538
1.69964
1.69396
1.68836
1.68284
1.6774
1.67206
1.66682
1.66168
1.65665
1.65175
1.64696
1.64231
1.63779
1.63342
1.62919
1.62511
1.62119
1.61744
1.61385
1.61043
1.60719
1.60414
1.60126
1.59858
1.59608
1.59379
1.59169
1.58979
1.5881
1.58661
1.58534
1.58427
1.58341
1.58277
1.58234
1.58213
1.58213
1.58234
1.58277
1.58341
1.58427
1.58533
1.58661
1.5881
1.58979
1.59168
1.59378
1.59608
1.59857
1.60125
1.60413
1.60719
1.61043
1.61384
1.61743
1.62118
1.6251
1.62918
1.63341
1.63778
1.6423
1.64695
1.65174
1.65664
1.66167
1.6668
1.67205
1.67739
1.68283
1.68835
1.69395
1.69963
1.70537
1.71118
1.71704
1.72294
1.72889
1.73488
1.74089
1.74693
1.75298
1.75904
1.7651
1.77117
1.77722
1.78326
1.78927
1.79526
1.80122
1.80714
1.81302
1.81885
1.82462
1.83033
1.83598
1.84156
1.84707
1.8525
1.85784
1.86309
1.86826
1.87332
1.87828
1.88314
1.88789
1.89253
1.89705
1.90145
1.90573
1.90988
1.9139
1.91779
1.92155
1.92516
1.92864
1.93197
1.93516
1.9382
1.94108
1.94382
1.94641
1.94884
1.95111
1.95322
1.95517
1.95697
1.9586
1.96006
1.96137
1.9625
1.96347
1.96428
1.96491
1.96538
1.96568
1.96582
1.96615
1.96602
1.96573
1.96529
1.96467
1.9639
1.96295
1.96184
1.96056
1.95912
1.95751
1.95573
1.95379
1.95169
1.94943
1.94702
1.94444
1.94171
1.93882
1.93579
1.9326
1.92927
1.92579
1.92217
1.91841
1.91452
1.91049
1.90633
1.90204
1.89763
1.89309
1.88844
1.88368
1.87881
1.87383
1.86874
1.86356
1.85829
1.85292
1.84747
1.84195
1.83634
1.83067
1.82493
1.81913
1.81327
1.80737
1.80142
1.79543
1.78941
1.78336
1.77729
1.77121
1.76512
1.75902
1.75292
1.74684
1.74077
1.73472
1.7287
1.72271
1.71677
1.71087
1.70503
1.69925
1.69354
1.6879
1.68234
1.67686
1.67149
1.66621
1.66103
1.65597
1.65103
1.64622
1.64153
1.63698
1.63257
1.62831
1.62421
1.62026
1.61648
1.61286
1.60942
1.60616
1.60307
1.60018
1.59747
1.59496
1.59265
1.59053
1.58862
1.58692
1.58542
1.58413
1.58306
1.58219
1.58155
1.58111
1.5809
1.5809
1.58111
1.58154
1.58219
1.58305
1.58413
1.58542
1.58691
1.58862
1.59053
1.59264
1.59496
1.59747
1.60017
1.60307
1.60615
1.60941
1.61285
1.61647
1.62025
1.6242
1.6283
1.63256
1.63697
1.64152
1.6462
1.65102
1.65596
1.66102
1.66619
1.67147
1.67685
1.68232
1.68788
1.69352
1.69924
1.70502
1.71086
1.71676
1.7227
1.72869
1.73471
1.74076
1.74683
1.75292
1.75902
1.76512
1.77121
1.7773
1.78337
1.78942
1.79545
1.80144
1.80739
1.8133
1.81916
1.82496
1.8307
1.83638
1.84199
1.84752
1.85298
1.85834
1.86362
1.86881
1.8739
1.87889
1.88377
1.88854
1.8932
1.89774
1.90216
1.90645
1.91062
1.91466
1.91857
1.92234
1.92597
1.92946
1.9328
1.936
1.93906
1.94196
1.94471
1.9473
1.94974
1.95202
1.95414
1.9561
1.9579
1.95954
1.96101
1.96232
1.96346
1.96443
1.96524
1.96588
1.96635
1.96665
1.96679
1.96735
1.96721
1.96692
1.96646
1.96584
1.96506
1.9641
1.96298
1.9617
1.96024
1.95862
1.95684
1.95489
1.95278
1.9505
1.94807
1.94548
1.94274
1.93984
1.93679
1.93359
1.93024
1.92674
1.9231
1.91933
1.91541
1.91136
1.90718
1.90287
1.89844
1.89388
1.88921
1.88442
1.87952
1.87451
1.8694
1.86419
1.85888
1.85349
1.84801
1.84245
1.83681
1.8311
1.82533
1.8195
1.8136
1.80766
1.80168
1.79565
1.78959
1.7835
1.77739
1.77127
1.76513
1.75899
1.75286
1.74673
1.74061
1.73452
1.72846
1.72243
1.71644
1.7105
1.70462
1.69879
1.69303
1.68735
1.68175
1.67623
1.67081
1.66549
1.66028
1.65518
1.65019
1.64534
1.64061
1.63603
1.63158
1.62729
1.62314
1.61916
1.61535
1.6117
1.60823
1.60494
1.60183
1.59891
1.59618
1.59364
1.59131
1.58917
1.58725
1.58552
1.58401
1.58271
1.58163
1.58076
1.58011
1.57967
1.57945
1.57945
1.57967
1.5801
1.58076
1.58163
1.58271
1.58401
1.58552
1.58724
1.58917
1.5913
1.59364
1.59617
1.5989
1.60182
1.60493
1.60822
1.61169
1.61534
1.61915
1.62313
1.62727
1.63157
1.63601
1.6406
1.64533
1.65018
1.65516
1.66026
1.66548
1.6708
1.67622
1.68174
1.68734
1.69302
1.69878
1.7046
1.71049
1.71643
1.72242
1.72845
1.73452
1.74061
1.74672
1.75285
1.75899
1.76513
1.77127
1.7774
1.78351
1.7896
1.79566
1.80169
1.80768
1.81363
1.81952
1.82536
1.83114
1.83685
1.84249
1.84806
1.85354
1.85894
1.86425
1.86946
1.87458
1.87959
1.8845
1.8893
1.89398
1.89854
1.90299
1.90731
1.9115
1.91555
1.91948
1.92327
1.92692
1.93042
1.93379
1.937
1.94007
1.94298
1.94574
1.94835
1.9508
1.95309
1.95522
1.95719
1.959
1.96064
1.96212
1.96343
1.96458
1.96556
1.96637
1.96701
1.96748
1.96779
1.96793
1.9687
1.96856
1.96827
1.96781
1.96718
1.96638
1.96542
1.96429
1.96299
1.96153
1.9599
1.9581
1.95614
1.95402
1.95173
1.94929
1.94668
1.94392
1.94101
1.93794
1.93472
1.93135
1.92784
1.92418
1.92038
1.91644
1.91237
1.90816
1.90383
1.89937
1.89478
1.89008
1.88526
1.88033
1.87529
1.87015
1.86491
1.85957
1.85414
1.84862
1.84303
1.83735
1.83161
1.82579
1.81992
1.81398
1.808
1.80197
1.7959
1.7898
1.78366
1.77751
1.77133
1.76515
1.75896
1.75278
1.7466
1.74044
1.7343
1.72819
1.72211
1.71607
1.71008
1.70414
1.69827
1.69246
1.68673
1.68107
1.67551
1.67004
1.66467
1.65941
1.65426
1.64923
1.64433
1.63956
1.63493
1.63044
1.6261
1.62192
1.6179
1.61405
1.61036
1.60686
1.60353
1.60039
1.59744
1.59468
1.59212
1.58976
1.58761
1.58566
1.58392
1.5824
1.58108
1.57999
1.57911
1.57845
1.57801
1.57779
1.57779
1.57801
1.57845
1.57911
1.57998
1.58108
1.58239
1.58392
1.58566
1.5876
1.58976
1.59212
1.59468
1.59743
1.60038
1.60352
1.60685
1.61035
1.61404
1.61789
1.62191
1.62609
1.63043
1.63491
1.63955
1.64431
1.64922
1.65425
1.65939
1.66466
1.67002
1.67549
1.68106
1.68671
1.69244
1.69825
1.70413
1.71007
1.71606
1.7221
1.72818
1.73429
1.74043
1.7466
1.75278
1.75896
1.76515
1.77134
1.77751
1.78367
1.78981
1.79591
1.80199
1.80802
1.81401
1.81994
1.82582
1.83164
1.83739
1.84307
1.84867
1.85419
1.85962
1.86497
1.87022
1.87536
1.88041
1.88535
1.89017
1.89488
1.89947
1.90394
1.90829
1.9125
1.91658
1.92053
1.92434
1.92801
1.93153
1.93491
1.93815
1.94123
1.94416
1.94694
1.94956
1.95202
1.95432
1.95646
1.95844
1.96026
1.96191
1.9634
1.96472
1.96587
1.96685
1.96767
1.96831
1.96879
1.96909
1.96923
1.97022
1.97008
1.96978
1.96931
1.96868
1.96788
1.96691
1.96577
1.96446
1.96298
1.96134
1.95953
1.95756
1.95542
1.95312
1.95066
1.94804
1.94526
1.94233
1.93924
1.936
1.93261
1.92907
1.92539
1.92157
1.91761
1.91351
1.90928
1.90491
1.90042
1.89581
1.89107
1.88622
1.88126
1.87618
1.871
1.86572
1.86035
1.85488
1.84932
1.84368
1.83796
1.83217
1.82632
1.82039
1.81441
1.80838
1.8023
1.79618
1.79003
1.78385
1.77764
1.77141
1.76518
1.75893
1.75269
1.74646
1.74024
1.73405
1.72788
1.72174
1.71565
1.7096
1.70361
1.69767
1.69181
1.68602
1.68031
1.67469
1.66916
1.66374
1.65842
1.65322
1.64814
1.64318
1.63836
1.63368
1.62915
1.62476
1.62054
1.61647
1.61257
1.60885
1.6053
1.60194
1.59877
1.59578
1.59299
1.5904
1.58802
1.58584
1.58387
1.58211
1.58056
1.57924
1.57813
1.57724
1.57657
1.57612
1.5759
1.5759
1.57612
1.57657
1.57724
1.57813
1.57923
1.58056
1.58211
1.58386
1.58583
1.58801
1.5904
1.59299
1.59577
1.59876
1.60193
1.6053
1.60884
1.61256
1.61646
1.62053
1.62475
1.62914
1.63367
1.63835
1.64317
1.64813
1.65321
1.65841
1.66372
1.66915
1.67467
1.6803
1.686
1.69179
1.69766
1.70359
1.70959
1.71563
1.72173
1.72787
1.73404
1.74024
1.74646
1.75269
1.75893
1.76518
1.77142
1.77764
1.78385
1.79004
1.7962
1.80232
1.8084
1.81444
1.82042
1.82634
1.83221
1.838
1.84372
1.84937
1.85493
1.8604
1.86578
1.87107
1.87625
1.88133
1.8863
1.89116
1.8959
1.90052
1.90502
1.90939
1.91363
1.91774
1.92172
1.92555
1.92924
1.93279
1.93619
1.93944
1.94254
1.94549
1.94828
1.95092
1.9534
1.95571
1.95787
1.95986
1.96169
1.96335
1.96484
1.96617
1.96733
1.96832
1.96913
1.96978
1.97026
1.97057
1.97071
1.9719
1.97176
1.97146
1.97099
1.97035
1.96954
1.96856
1.96741
1.96609
1.9646
1.96295
1.96113
1.95914
1.95699
1.95467
1.95219
1.94955
1.94676
1.9438
1.94069
1.93743
1.93402
1.93046
1.92675
1.9229
1.91891
1.91478
1.91052
1.90612
1.9016
1.89695
1.89218
1.88729
1.88229
1.87718
1.87196
1.86663
1.86121
1.8557
1.8501
1.84441
1.83865
1.83281
1.8269
1.82093
1.8149
1.80881
1.80268
1.7965
1.79029
1.78405
1.77779
1.7715
1.76521
1.7589
1.7526
1.74631
1.74003
1.73377
1.72754
1.72134
1.71518
1.70907
1.70301
1.69701
1.69108
1.68523
1.67946
1.67378
1.66819
1.6627
1.65732
1.65206
1.64692
1.64191
1.63703
1.63229
1.6277
1.62327
1.61899
1.61487
1.61093
1.60716
1.60357
1.60016
1.59695
1.59393
1.5911
1.58848
1.58607
1.58386
1.58186
1.58008
1.57852
1.57717
1.57605
1.57515
1.57447
1.57402
1.57379
1.57379
1.57402
1.57447
1.57514
1.57605
1.57717
1.57851
1.58008
1.58186
1.58385
1.58606
1.58848
1.5911
1.59392
1.59694
1.60016
1.60356
1.60715
1.61092
1.61486
1.61898
1.62326
1.62769
1.63228
1.63702
1.6419
1.64691
1.65205
1.65731
1.66269
1.66817
1.67376
1.67944
1.68522
1.69107
1.697
1.70299
1.70905
1.71516
1.72132
1.72753
1.73376
1.74002
1.7463
1.7526
1.7589
1.76521
1.7715
1.77779
1.78406
1.7903
1.79652
1.80269
1.80883
1.81492
1.82095
1.82693
1.83284
1.83868
1.84445
1.85014
1.85575
1.86127
1.86669
1.87202
1.87724
1.88236
1.88737
1.89226
1.89704
1.9017
1.90623
1.91063
1.9149
1.91904
1.92304
1.9269
1.93062
1.93419
1.93761
1.94089
1.94401
1.94698
1.94979
1.95244
1.95493
1.95727
1.95943
1.96144
1.96328
1.96495
1.96645
1.96779
1.96895
1.96995
1.97077
1.97143
1.97191
1.97221
1.97236
1.97376
1.97362
1.97331
1.97283
1.97219
1.97137
1.97038
1.96922
1.96789
1.96639
1.96472
1.96289
1.96089
1.95872
1.95638
1.95389
1.95123
1.94841
1.94543
1.9423
1.93901
1.93557
1.93199
1.92825
1.92437
1.92035
1.91619
1.91189
1.90746
1.9029
1.89822
1.89341
1.88848
1.88343
1.87828
1.87301
1.86764
1.86218
1.85662
1.85096
1.84523
1.83941
1.83352
1.82755
1.82152
1.81543
1.80929
1.8031
1.79686
1.79059
1.78428
1.77795
1.7716
1.76524
1.75887
1.7525
1.74614
1.73979
1.73346
1.72716
1.72089
1.71466
1.70848
1.70235
1.69628
1.69028
1.68436
1.67852
1.67277
1.66711
1.66155
1.65611
1.65078
1.64557
1.6405
1.63556
1.63076
1.62611
1.62161
1.61728
1.61311
1.60911
1.60529
1.60165
1.5982
1.59494
1.59188
1.58901
1.58635
1.5839
1.58167
1.57964
1.57783
1.57625
1.57488
1.57374
1.57283
1.57214
1.57169
1.57146
1.57146
1.57169
1.57214
1.57283
1.57374
1.57488
1.57624
1.57783
1.57964
1.58166
1.5839
1.58635
1.589
1.59187
1.59493
1.59819
1.60164
1.60528
1.6091
1.6131
1.61726
1.6216
1.6261
1.63074
1.63554
1.64048
1.64556
1.65077
1.65609
1.66154
1.66709
1.67275
1.6785
1.68434
1.69027
1.69627
1.70234
1.70846
1.71465
1.72088
1.72715
1.73345
1.73978
1.74613
1.7525
1.75887
1.76524
1.7716
1.77796
1.78429
1.7906
1.79687
1.80311
1.80931
1.81545
1.82155
1.82758
1.83355
1.83944
1.84526
1.851
1.85666
1.86223
1.8677
1.87307
1.87834
1.8835
1.88855
1.89349
1.8983
1.903
1.90756
1.912
1.91631
1.92048
1.92451
1.9284
1.93214
1.93574
1.93919
1.94249
1.94563
1.94862
1.95145
1.95412
1.95663
1.95898
1.96116
1.96318
1.96503
1.96672
1.96823
1.96958
1.97075
1.97175
1.97258
1.97324
1.97372
1.97403
1.97418
1.97578
1.97564
1.97533
1.97485
1.9742
1.97337
1.97237
1.9712
1.96986
1.96835
1.96667
1.96482
1.9628
1.96061
1.95826
1.95574
1.95306
1.95022
1.94722
1.94406
1.94075
1.93728
1.93366
1.9299
1.92598
1.92193
1.91773
1.9134
1.90893
1.90433
1.8996
1.89475
1.88978
1.88469
1.87948
1.87417
1.86875
1.86323
1.85762
1.85191
1.84612
1.84024
1.83429
1.82827
1.82218
1.81602
1.80981
1.80356
1.79725
1.79091
1.78454
1.77814
1.77172
1.76528
1.75884
1.7524
1.74596
1.73953
1.73313
1.72675
1.7204
1.7141
1.70784
1.70163
1.69549
1.68941
1.68341
1.67749
1.67166
1.66593
1.6603
1.65478
1.64938
1.6441
1.63895
1.63394
1.62907
1.62436
1.6198
1.6154
1.61117
1.60711
1.60323
1.59954
1.59604
1.59273
1.58962
1.58672
1.58402
1.58153
1.57926
1.5772
1.57537
1.57376
1.57237
1.57121
1.57029
1.56959
1.56912
1.56889
1.56889
1.56912
1.56959
1.57029
1.57121
1.57237
1.57375
1.57536
1.5772
1.57925
1.58152
1.58401
1.58671
1.58961
1.59272
1.59603
1.59953
1.60322
1.6071
1.61116
1.61539
1.61978
1.62434
1.62906
1.63393
1.63894
1.64408
1.64936
1.65476
1.66028
1.66591
1.67164
1.67747
1.68339
1.68939
1.69547
1.70162
1.70782
1.71408
1.72039
1.72674
1.73312
1.73953
1.74595
1.75239
1.75884
1.76528
1.77172
1.77814
1.78454
1.79092
1.79726
1.80357
1.80983
1.81604
1.8222
1.82829
1.83432
1.84028
1.84615
1.85195
1.85766
1.86328
1.8688
1.87423
1.87954
1.88475
1.88985
1.89483
1.89969
1.90442
1.90903
1.9135
1.91785
1.92205
1.92611
1.93004
1.93381
1.93744
1.94092
1.94424
1.94741
1.95042
1.95327
1.95597
1.9585
1.96086
1.96306
1.96509
1.96696
1.96866
1.97018
1.97153
1.97272
1.97373
1.97456
1.97522
1.97571
1.97602
1.97617
1.97798
1.97783
1.97752
1.97704
1.97638
1.97554
1.97453
1.97335
1.972
1.97048
1.96878
1.96691
1.96487
1.96267
1.96029
1.95776
1.95505
1.95219
1.94916
1.94597
1.94263
1.93914
1.93549
1.93169
1.92774
1.92365
1.91941
1.91504
1.91053
1.90589
1.90111
1.89622
1.89119
1.88605
1.8808
1.87543
1.86996
1.86439
1.85871
1.85295
1.84709
1.84116
1.83514
1.82905
1.82289
1.81667
1.81039
1.80406
1.79768
1.79127
1.78482
1.77834
1.77184
1.76533
1.75881
1.75228
1.74576
1.73926
1.73277
1.72631
1.71987
1.71348
1.70714
1.70085
1.69462
1.68846
1.68237
1.67637
1.67046
1.66464
1.65893
1.65333
1.64785
1.64249
1.63727
1.63218
1.62724
1.62245
1.61782
1.61335
1.60905
1.60493
1.601
1.59725
1.59369
1.59033
1.58717
1.58421
1.58147
1.57894
1.57663
1.57454
1.57268
1.57104
1.56963
1.56846
1.56751
1.5668
1.56633
1.56609
1.56609
1.56633
1.5668
1.56751
1.56845
1.56963
1.57104
1.57267
1.57454
1.57663
1.57893
1.58146
1.5842
1.58716
1.59032
1.59368
1.59723
1.60099
1.60492
1.60904
1.61334
1.6178
1.62244
1.62722
1.63216
1.63725
1.64248
1.64783
1.65331
1.65891
1.66463
1.67044
1.67635
1.68236
1.68844
1.6946
1.70083
1.70713
1.71347
1.71986
1.72629
1.73276
1.73925
1.74576
1.75228
1.7588
1.76533
1.77184
1.77834
1.78482
1.79127
1.79769
1.80407
1.8104
1.81669
1.82291
1.82907
1.83517
1.84119
1.84713
1.85299
1.85875
1.86443
1.87001
1.87549
1.88086
1.88612
1.89126
1.89629
1.9012
1.90597
1.91062
1.91514
1.91952
1.92376
1.92786
1.93182
1.93563
1.93929
1.94279
1.94615
1.94934
1.95238
1.95526
1.95797
1.96052
1.96291
1.96512
1.96717
1.96905
1.97076
1.9723
1.97367
1.97486
1.97587
1.97672
1.97738
1.97787
1.97819
1.97833
1.98035
1.9802
1.97989
1.9794
1.97873
1.97789
1.97687
1.97568
1.97431
1.97277
1.97106
1.96918
1.96712
1.96489
1.9625
1.95994
1.95721
1.95432
1.95126
1.94805
1.94467
1.94114
1.93746
1.93362
1.92964
1.92551
1.92123
1.91682
1.91226
1.90757
1.90275
1.8978
1.89273
1.88754
1.88223
1.8768
1.87127
1.86564
1.8599
1.85407
1.84815
1.84215
1.83606
1.8299
1.82367
1.81737
1.81102
1.80461
1.79816
1.79166
1.78513
1.77857
1.77198
1.76539
1.75878
1.75217
1.74556
1.73896
1.73238
1.72583
1.71931
1.71282
1.70639
1.70001
1.69369
1.68743
1.68126
1.67516
1.66916
1.66325
1.65745
1.65176
1.64619
1.64075
1.63544
1.63027
1.62525
1.62038
1.61568
1.61113
1.60677
1.60258
1.59857
1.59476
1.59114
1.58772
1.5845
1.5815
1.57871
1.57613
1.57378
1.57166
1.56976
1.56809
1.56666
1.56546
1.5645
1.56378
1.5633
1.56306
1.56306
1.5633
1.56378
1.5645
1.56546
1.56666
1.56809
1.56976
1.57165
1.57378
1.57613
1.5787
1.58149
1.58449
1.58771
1.59112
1.59474
1.59856
1.60256
1.60675
1.61112
1.61566
1.62037
1.62524
1.63026
1.63543
1.64074
1.64618
1.65175
1.65744
1.66324
1.66914
1.67515
1.68124
1.68742
1.69367
1.69999
1.70638
1.71281
1.7193
1.72582
1.73237
1.73895
1.74555
1.75216
1.75877
1.76538
1.77198
1.77857
1.78513
1.79166
1.79816
1.80462
1.81103
1.81739
1.82369
1.82992
1.83608
1.84217
1.84818
1.85411
1.85994
1.86568
1.87132
1.87686
1.88228
1.8876
1.8928
1.89788
1.90283
1.90766
1.91235
1.91691
1.92134
1.92562
1.92976
1.93375
1.9376
1.94129
1.94483
1.94821
1.95143
1.9545
1.9574
1.96014
1.96271
1.96512
1.96736
1.96942
1.97132
1.97304
1.97459
1.97597
1.97717
1.9782
1.97905
1.97972
1.98021
1.98053
1.98068
1.98289
1.98275
1.98243
1.98193
1.98126
1.98041
1.97938
1.97818
1.9768
1.97524
1.97351
1.97161
1.96953
1.96729
1.96487
1.96228
1.95953
1.95661
1.95352
1.95028
1.94687
1.94331
1.93959
1.93571
1.93169
1.92751
1.92319
1.91873
1.91413
1.90939
1.90452
1.89952
1.89439
1.88914
1.88377
1.87828
1.87269
1.86699
1.86119
1.85529
1.8493
1.84322
1.83706
1.83082
1.82451
1.81813
1.8117
1.80521
1.79867
1.79209
1.78547
1.77882
1.77214
1.76545
1.75875
1.75204
1.74534
1.73865
1.73197
1.72532
1.7187
1.71212
1.70558
1.6991
1.69268
1.68633
1.68005
1.67386
1.66776
1.66176
1.65586
1.65008
1.64441
1.63888
1.63348
1.62822
1.62311
1.61816
1.61337
1.60874
1.6043
1.60003
1.59596
1.59207
1.58838
1.5849
1.58163
1.57857
1.57573
1.57311
1.57071
1.56854
1.56661
1.56491
1.56345
1.56223
1.56126
1.56052
1.56003
1.55978
1.55978
1.56003
1.56052
1.56125
1.56223
1.56345
1.56491
1.56661
1.56854
1.5707
1.5731
1.57572
1.57856
1.58162
1.58489
1.58837
1.59206
1.59594
1.60002
1.60428
1.60873
1.61335
1.61814
1.6231
1.6282
1.63346
1.63886
1.6444
1.65006
1.65584
1.66174
1.66774
1.67385
1.68004
1.68631
1.69267
1.69909
1.70557
1.71211
1.71869
1.72531
1.73196
1.73864
1.74533
1.75204
1.75874
1.76545
1.77214
1.77881
1.78547
1.79209
1.79867
1.80522
1.81171
1.81815
1.82453
1.83084
1.83708
1.84324
1.84932
1.85532
1.86122
1.86703
1.87273
1.87833
1.88382
1.88919
1.89445
1.89958
1.90459
1.90947
1.91421
1.91882
1.92329
1.92762
1.9318
1.93583
1.93971
1.94344
1.94702
1.95043
1.95369
1.95678
1.95971
1.96247
1.96507
1.9675
1.96976
1.97184
1.97376
1.9755
1.97706
1.97845
1.97966
1.9807
1.98155
1.98223
1.98273
1.98305
1.9832
1.98562
1.98547
1.98515
1.98465
1.98397
1.98311
1.98207
1.98085
1.97946
1.97789
1.97614
1.97422
1.97212
1.96985
1.96741
1.96479
1.96201
1.95906
1.95595
1.95267
1.94923
1.94562
1.94186
1.93795
1.93388
1.92966
1.92529
1.92078
1.91613
1.91134
1.90641
1.90135
1.89617
1.89085
1.88542
1.87987
1.87421
1.86844
1.86257
1.85659
1.85053
1.84437
1.83813
1.83181
1.82542
1.81896
1.81243
1.80585
1.79922
1.79255
1.78583
1.77909
1.77232
1.76553
1.75873
1.75192
1.74511
1.73832
1.73154
1.72478
1.71805
1.71137
1.70473
1.69814
1.69161
1.68515
1.67877
1.67247
1.66626
1.66016
1.65416
1.64827
1.64251
1.63687
1.63137
1.62602
1.62081
1.61577
1.61089
1.60618
1.60165
1.5973
1.59315
1.58919
1.58543
1.58188
1.57854
1.57542
1.57252
1.56985
1.56741
1.5652
1.56323
1.5615
1.56001
1.55876
1.55776
1.55701
1.55651
1.55626
1.55626
1.55651
1.55701
1.55776
1.55876
1.56
1.56149
1.56322
1.56519
1.5674
1.56984
1.57251
1.57541
1.57853
1.58187
1.58542
1.58917
1.59313
1.59729
1.60164
1.60617
1.61087
1.61575
1.6208
1.626
1.63136
1.63685
1.64249
1.64825
1.65414
1.66014
1.66625
1.67245
1.67875
1.68514
1.6916
1.69812
1.70471
1.71135
1.71804
1.72477
1.73153
1.73831
1.7451
1.75191
1.75872
1.76552
1.77231
1.77909
1.78583
1.79255
1.79923
1.80586
1.81244
1.81897
1.82543
1.83183
1.83815
1.84439
1.85055
1.85662
1.8626
1.86848
1.87425
1.87992
1.88547
1.89091
1.89622
1.90142
1.90648
1.91141
1.91621
1.92087
1.92539
1.92976
1.93399
1.93806
1.94199
1.94575
1.94936
1.95281
1.9561
1.95923
1.96218
1.96498
1.9676
1.97005
1.97233
1.97443
1.97637
1.97812
1.9797
1.9811
1.98233
1.98337
1.98424
1.98492
1.98542
1.98575
1.9859
1.98852
1.98837
1.98804
1.98754
1.98685
1.98598
1.98493
1.9837
1.98229
1.98071
1.97894
1.977
1.97488
1.97258
1.97012
1.96748
1.96466
1.96168
1.95853
1.95522
1.95174
1.9481
1.9443
1.94034
1.93622
1.93196
1.92754
1.92298
1.91827
1.91342
1.90844
1.90332
1.89807
1.89269
1.88719
1.88157
1.87584
1.86999
1.86404
1.85799
1.85185
1.84561
1.83928
1.83288
1.82639
1.81984
1.81323
1.80655
1.79982
1.79305
1.78623
1.77939
1.77251
1.76562
1.75871
1.75179
1.74488
1.73797
1.73108
1.72421
1.71737
1.71057
1.70381
1.69711
1.69047
1.6839
1.6774
1.67099
1.66467
1.65845
1.65234
1.64634
1.64047
1.63473
1.62912
1.62366
1.61836
1.61322
1.60824
1.60344
1.59881
1.59438
1.59014
1.5861
1.58227
1.57864
1.57524
1.57205
1.56909
1.56636
1.56387
1.56162
1.5596
1.55783
1.55631
1.55504
1.55402
1.55326
1.55275
1.55249
1.55249
1.55275
1.55326
1.55402
1.55504
1.55631
1.55783
1.5596
1.56161
1.56386
1.56636
1.56908
1.57204
1.57523
1.57863
1.58225
1.58609
1.59013
1.59437
1.5988
1.60342
1.60822
1.6132
1.61834
1.62365
1.62911
1.63471
1.64045
1.64632
1.65232
1.65843
1.66465
1.67097
1.67738
1.68388
1.69045
1.6971
1.7038
1.71056
1.71736
1.7242
1.73107
1.73796
1.74487
1.75178
1.7587
1.76561
1.7725
1.77938
1.78623
1.79305
1.79982
1.80655
1.81323
1.81985
1.8264
1.83289
1.8393
1.84563
1.85187
1.85802
1.86407
1.87003
1.87588
1.88161
1.88724
1.89274
1.89812
1.90338
1.9085
1.91349
1.91835
1.92306
1.92763
1.93205
1.93633
1.94045
1.94441
1.94822
1.95187
1.95536
1.95868
1.96184
1.96483
1.96765
1.9703
1.97277
1.97508
1.9772
1.97915
1.98093
1.98252
1.98394
1.98517
1.98623
1.9871
1.98779
1.9883
1.98863
1.98878
1.9916
1.99145
1.99112
1.99061
1.98991
1.98904
1.98798
1.98673
1.98531
1.9837
1.98192
1.97996
1.97781
1.97549
1.973
1.97033
1.96749
1.96447
1.96129
1.95793
1.95442
1.95073
1.94689
1.94288
1.93872
1.9344
1.92993
1.92532
1.92055
1.91565
1.9106
1.90541
1.9001
1.89465
1.88908
1.88339
1.87758
1.87165
1.86562
1.85949
1.85326
1.84693
1.84052
1.83402
1.82744
1.82079
1.81408
1.8073
1.80047
1.79359
1.78667
1.77971
1.77272
1.76572
1.75869
1.75166
1.74463
1.73761
1.7306
1.72361
1.71665
1.70973
1.70285
1.69602
1.68926
1.68257
1.67595
1.66941
1.66297
1.65663
1.6504
1.64429
1.6383
1.63244
1.62672
1.62116
1.61574
1.61049
1.60541
1.60051
1.59579
1.59126
1.58693
1.58281
1.57889
1.57519
1.57171