/*--------------------------------*- C++ -*----------------------------------*\
| =========                 |                                                 |
| \\      /  F ield         | OpenFOAM: The Open Source CFD Toolbox           |
|  \\    /   O peration     | Version:  2412                                  |
|   \\  /    A nd           | Website:  www.openfoam.com                      |
|    \\/     M anipulation  |                                                 |
\*---------------------------------------------------------------------------*/
FoamFile
{
    version     2.0;
    format      ascii;
    arch        "LSB;label=32;scalar=64";
    class       surfaceScalarField;
    location    "1.03";
    object      phi;
}
// * * * * * * * * * * * * * * * * * * * * * * * * * * * * * * * * * * * * * //

dimensions      [0 3 -1 0 0 0 0];

oriented        oriented;

internalField   nonuniform List<scalar> 
79600
(
8.1371e-12
-1.20434e-11
6.67583e-12
1.46104e-12
1.59298e-11
-9.25707e-12
2.70976e-11
-1.11669e-11
3.96806e-11
-1.25773e-11
5.21904e-11
-1.2507e-11
6.44577e-11
-1.22698e-11
7.64465e-11
-1.19929e-11
8.81346e-11
-1.16899e-11
9.95828e-11
-1.14474e-11
1.10829e-10
-1.12452e-11
1.21889e-10
-1.10593e-11
1.3278e-10
-1.08906e-11
1.43513e-10
-1.07331e-11
1.54096e-10
-1.05821e-11
1.64531e-10
-1.04339e-11
1.74816e-10
-1.02833e-11
1.84947e-10
-1.01308e-11
1.94923e-10
-9.97527e-12
2.04737e-10
-9.81481e-12
2.14386e-10
-9.64884e-12
2.23862e-10
-9.47648e-12
2.33159e-10
-9.29704e-12
2.42269e-10
-9.1104e-12
2.51186e-10
-8.91622e-12
2.59901e-10
-8.71468e-12
2.68408e-10
-8.50607e-12
2.767e-10
-8.29057e-12
2.8477e-10
-8.06844e-12
2.92611e-10
-7.83952e-12
3.00215e-10
-7.60359e-12
3.07576e-10
-7.36055e-12
3.14686e-10
-7.11009e-12
3.21537e-10
-6.85209e-12
3.28123e-10
-6.58669e-12
3.34435e-10
-6.31377e-12
3.40466e-10
-6.03316e-12
3.46209e-10
-5.74491e-12
3.51657e-10
-5.44872e-12
3.568e-10
-5.14426e-12
3.6163e-10
-4.83152e-12
3.6614e-10
-4.51048e-12
3.70321e-10
-4.18111e-12
3.74164e-10
-3.84375e-12
3.77663e-10
-3.4988e-12
3.80809e-10
-3.14659e-12
3.83596e-10
-2.78756e-12
3.86017e-10
-2.42216e-12
3.88067e-10
-2.05067e-12
3.8974e-10
-1.67347e-12
3.91031e-10
-1.291e-12
3.91934e-10
-9.03542e-13
3.92446e-10
-5.1134e-13
3.92559e-10
-1.13419e-13
3.92272e-10
2.87924e-13
3.91583e-10
6.8988e-13
3.90487e-10
1.09628e-12
3.88983e-10
1.50454e-12
3.87067e-10
1.91593e-12
3.84738e-10
2.32962e-12
3.81992e-10
2.74512e-12
3.7883e-10
3.16202e-12
3.75249e-10
3.57998e-12
3.7125e-10
3.99845e-12
3.66833e-10
4.41672e-12
3.61998e-10
4.83403e-12
3.56748e-10
5.2496e-12
3.51085e-10
5.66263e-12
3.45013e-10
6.07236e-12
3.38536e-10
6.47818e-12
3.31657e-10
6.87955e-12
3.24381e-10
7.27591e-12
3.16715e-10
7.6667e-12
3.08664e-10
8.05143e-12
3.00234e-10
8.42964e-12
2.91433e-10
8.80076e-12
2.82268e-10
9.1641e-12
2.72748e-10
9.51895e-12
2.62883e-10
9.86459e-12
2.52682e-10
1.02003e-11
2.42157e-10
1.05252e-11
2.31318e-10
1.08385e-11
2.2018e-10
1.11393e-11
2.08755e-10
1.14267e-11
1.97056e-10
1.17001e-11
1.85099e-10
1.1959e-11
1.72897e-10
1.22029e-11
1.60467e-10
1.24312e-11
1.47823e-10
1.26432e-11
1.34984e-10
1.28387e-11
1.21965e-10
1.30176e-11
1.08783e-10
1.31796e-11
9.5457e-11
1.33244e-11
8.20037e-11
1.34516e-11
6.84415e-11
1.3561e-11
5.47885e-11
1.36525e-11
4.10625e-11
1.37263e-11
2.72811e-11
1.37822e-11
1.34623e-11
1.382e-11
-3.75606e-13
1.3839e-11
-1.42139e-11
1.38391e-11
-2.80338e-11
1.38203e-11
-4.18168e-11
1.37829e-11
-5.55443e-11
1.37271e-11
-6.91984e-11
1.36534e-11
-8.27608e-11
1.35617e-11
-9.62138e-11
1.34523e-11
-1.0954e-10
1.33253e-11
-1.22721e-10
1.3181e-11
-1.35742e-10
1.30195e-11
-1.48584e-10
1.2841e-11
-1.61231e-10
1.26459e-11
-1.73666e-10
1.24342e-11
-1.85873e-10
1.22066e-11
-1.97836e-10
1.19633e-11
-2.09541e-10
1.1705e-11
-2.20972e-10
1.14323e-11
-2.32116e-10
1.11455e-11
-2.42961e-10
1.08454e-11
-2.53493e-10
1.05328e-11
-2.63701e-10
1.02084e-11
-2.73574e-10
9.87327e-12
-2.83102e-10
9.52826e-12
-2.92277e-10
9.17422e-12
-3.01089e-10
8.81188e-12
-3.09531e-10
8.44182e-12
-3.17596e-10
8.06456e-12
-3.25277e-10
7.68062e-12
-3.32568e-10
7.29059e-12
-3.39463e-10
6.89507e-12
-3.45958e-10
6.49464e-12
-3.52049e-10
6.09005e-12
-3.57731e-10
5.68218e-12
-3.63002e-10
5.27164e-12
-3.67859e-10
4.85885e-12
-3.72303e-10
4.44469e-12
-3.76332e-10
4.03019e-12
-3.79946e-10
3.61551e-12
-3.83144e-10
3.20006e-12
-3.85928e-10
2.78432e-12
-3.88298e-10
2.36945e-12
-3.90252e-10
1.95481e-12
-3.9179e-10
1.53949e-12
-3.92917e-10
1.12534e-12
-3.93632e-10
7.14764e-13
-3.93938e-10
3.08105e-13
-3.93842e-10
-9.60735e-14
-3.93349e-10
-4.96481e-13
-3.92462e-10
-8.87609e-13
-3.9119e-10
-1.27198e-12
-3.89542e-10
-1.64942e-12
-3.87524e-10
-2.01844e-12
-3.85143e-10
-2.38049e-12
-3.82405e-10
-2.7376e-12
-3.79319e-10
-3.08924e-12
-3.75885e-10
-3.43505e-12
-3.72108e-10
-3.77686e-12
-3.67995e-10
-4.11436e-12
-3.63553e-10
-4.44401e-12
-3.58788e-10
-4.76501e-12
-3.53705e-10
-5.08016e-12
-3.48318e-10
-5.3889e-12
-3.42634e-10
-5.6867e-12
-3.36662e-10
-5.97189e-12
-3.30412e-10
-6.24756e-12
-3.23895e-10
-6.51614e-12
-3.17119e-10
-6.77708e-12
-3.10088e-10
-7.02981e-12
-3.02812e-10
-7.27522e-12
-2.95296e-10
-7.51457e-12
-2.87545e-10
-7.74896e-12
-2.79565e-10
-7.97823e-12
-2.71366e-10
-8.199e-12
-2.6296e-10
-8.40621e-12
-2.5436e-10
-8.59788e-12
-2.4558e-10
-8.7766e-12
-2.36632e-10
-8.94722e-12
-2.27519e-10
-9.11399e-12
-2.18237e-10
-9.27946e-12
-2.08792e-10
-9.44338e-12
-1.99188e-10
-9.60227e-12
-1.89435e-10
-9.75223e-12
-1.79542e-10
-9.89075e-12
-1.69525e-10
-1.00155e-11
-1.594e-10
-1.01253e-11
-1.49176e-10
-1.02235e-11
-1.38859e-10
-1.03163e-11
-1.28452e-10
-1.04082e-11
-1.17952e-10
-1.05002e-11
-1.07364e-10
-1.059e-11
-9.66932e-11
-1.06728e-11
-8.59537e-11
-1.07417e-11
-7.5158e-11
-1.07958e-11
-6.43177e-11
-1.08408e-11
-5.34406e-11
-1.08805e-11
-4.25306e-11
-1.09137e-11
-3.15956e-11
-1.0936e-11
-2.06567e-11
-1.09363e-11
-9.78894e-12
-1.08666e-11
-9.79146e-12
2.27772e-11
-3.48207e-11
3.53537e-11
-1.11107e-11
4.39744e-11
-1.78798e-11
5.35898e-11
-2.07912e-11
6.35771e-11
-2.25698e-11
7.43389e-11
-2.32669e-11
8.56176e-11
-2.35449e-11
9.71696e-11
-2.35442e-11
1.08882e-10
-2.34044e-11
1.20647e-10
-2.32145e-11
1.32404e-10
-2.30023e-11
1.44122e-10
-2.27757e-11
1.55774e-10
-2.25403e-11
1.6734e-10
-2.22968e-11
1.78803e-10
-2.20444e-11
1.90152e-10
-2.17814e-11
2.01376e-10
-2.15061e-11
2.12463e-10
-2.12181e-11
2.23405e-10
-2.09166e-11
2.3419e-10
-2.06006e-11
2.4481e-10
-2.02693e-11
2.55256e-10
-1.99222e-11
2.65518e-10
-1.95588e-11
2.75587e-10
-1.91787e-11
2.85455e-10
-1.87821e-11
2.95111e-10
-1.83689e-11
3.04547e-10
-1.79394e-11
3.13752e-10
-1.74939e-11
3.22718e-10
-1.70324e-11
3.31434e-10
-1.65549e-11
3.39892e-10
-1.60611e-11
3.48082e-10
-1.55508e-11
3.55994e-10
-1.50237e-11
3.63619e-10
-1.44797e-11
3.70948e-10
-1.39187e-11
3.77972e-10
-1.33407e-11
3.84682e-10
-1.27458e-11
3.91069e-10
-1.21339e-11
3.97123e-10
-1.15051e-11
4.02837e-10
-1.08592e-11
4.08201e-10
-1.01964e-11
4.13206e-10
-9.51684e-12
4.17845e-10
-8.82072e-12
4.22109e-10
-8.10841e-12
4.2599e-10
-7.38041e-12
4.2948e-10
-6.63728e-12
4.32571e-10
-5.87962e-12
4.35255e-10
-5.10797e-12
4.37527e-10
-4.32299e-12
4.39378e-10
-3.5254e-12
4.40802e-10
-2.71587e-12
4.41794e-10
-1.8951e-12
4.42347e-10
-1.06385e-12
4.42458e-10
-2.23033e-13
4.42119e-10
6.27418e-13
4.41326e-10
1.48365e-12
4.40076e-10
2.3478e-12
4.38363e-10
3.21791e-12
4.36185e-10
4.0935e-12
4.3354e-10
4.97373e-12
4.30427e-10
5.85764e-12
4.26844e-10
6.74425e-12
4.2279e-10
7.63259e-12
4.18266e-10
8.52151e-12
4.13272e-10
9.40972e-12
4.0781e-10
1.02958e-11
4.01881e-10
1.11783e-11
3.95489e-10
1.20557e-11
3.88635e-10
1.29266e-11
3.81325e-10
1.37895e-11
3.73562e-10
1.46429e-11
3.65353e-10
1.54857e-11
3.56703e-10
1.63164e-11
3.4762e-10
1.71339e-11
3.38112e-10
1.79369e-11
3.28187e-10
1.87241e-11
3.17856e-10
1.94942e-11
3.07128e-10
2.02458e-11
2.96015e-10
2.09774e-11
2.84528e-10
2.16874e-11
2.7268e-10
2.23742e-11
2.60484e-10
2.30362e-11
2.47954e-10
2.36717e-11
2.35104e-10
2.42791e-11
2.21949e-10
2.48572e-11
2.08505e-10
2.54047e-11
1.94787e-10
2.59207e-11
1.80814e-10
2.64041e-11
1.66601e-10
2.6854e-11
1.52168e-10
2.72698e-11
1.37532e-10
2.76507e-11
1.22712e-10
2.79962e-11
1.07729e-10
2.83055e-11
9.26017e-11
2.85778e-11
7.73502e-11
2.88124e-11
6.19946e-11
2.90088e-11
4.65557e-11
2.91666e-11
3.10541e-11
2.92855e-11
1.55104e-11
2.9365e-11
-5.43146e-14
2.94046e-11
-1.56193e-11
2.94042e-11
-3.11636e-11
2.9364e-11
-4.66662e-11
2.92843e-11
-6.21059e-11
2.91656e-11
-7.74621e-11
2.90082e-11
-9.27139e-11
2.88124e-11
-1.07841e-10
2.85787e-11
-1.22824e-10
2.83075e-11
-1.37644e-10
2.79993e-11
-1.5228e-10
2.76547e-11
-1.66715e-10
2.72743e-11
-1.80928e-10
2.68587e-11
-1.94903e-10
2.64088e-11
-2.08622e-10
2.59255e-11
-2.22068e-10
2.54096e-11
-2.35223e-10
2.48623e-11
-2.48074e-10
2.42846e-11
-2.60605e-10
2.36777e-11
-2.72802e-10
2.3043e-11
-2.84651e-10
2.23819e-11
-2.96139e-10
2.1696e-11
-3.07253e-10
2.09868e-11
-3.17981e-10
2.02561e-11
-3.28312e-10
1.95054e-11
-3.38237e-10
1.87362e-11
-3.47745e-10
1.795e-11
-3.56829e-10
1.71479e-11
-3.6548e-10
1.63314e-11
-3.73691e-10
1.55017e-11
-3.81457e-10
1.46603e-11
-3.8877e-10
1.38085e-11
-3.95627e-10
1.29476e-11
-4.02023e-10
1.20792e-11
-4.07955e-10
1.12047e-11
-4.13419e-10
1.03255e-11
-4.18415e-10
9.44262e-12
-4.22941e-10
8.55742e-12
-4.26996e-10
7.67144e-12
-4.3058e-10
6.78533e-12
-4.33694e-10
5.89923e-12
-4.3634e-10
5.01435e-12
-4.38519e-10
4.13251e-12
-4.40232e-10
3.25413e-12
-4.41485e-10
2.37933e-12
-4.42283e-10
1.51048e-12
-4.42627e-10
6.5041e-13
-4.42522e-10
-2.01102e-13
-4.41976e-10
-1.04383e-12
-4.40992e-10
-1.87453e-12
-4.39573e-10
-2.69106e-12
-4.37727e-10
-3.49451e-12
-4.3546e-10
-4.28552e-12
-4.3278e-10
-5.0626e-12
-4.29691e-10
-5.82576e-12
-4.26205e-10
-6.57697e-12
-4.22329e-10
-7.3159e-12
-4.18067e-10
-8.04037e-12
-4.13428e-10
-8.75033e-12
-4.08425e-10
-9.44664e-12
-4.03066e-10
-1.01275e-11
-3.97358e-10
-1.07907e-11
-3.91308e-10
-1.14369e-11
-3.84927e-10
-1.20664e-11
-3.78223e-10
-1.26768e-11
-3.71205e-10
-1.32666e-11
-3.6388e-10
-1.38382e-11
-3.5626e-10
-1.43948e-11
-3.48353e-10
-1.49356e-11
-3.40168e-10
-1.54586e-11
-3.31716e-10
-1.59644e-11
-3.23007e-10
-1.64559e-11
-3.14049e-10
-1.69332e-11
-3.04854e-10
-1.73925e-11
-2.9543e-10
-1.78297e-11
-2.85782e-10
-1.82438e-11
-2.75918e-10
-1.86376e-11
-2.65849e-10
-1.90143e-11
-2.55587e-10
-1.9376e-11
-2.45139e-10
-1.97247e-11
-2.34517e-10
-2.0062e-11
-2.23732e-10
-2.03861e-11
-2.12794e-10
-2.06927e-11
-2.01705e-10
-2.09787e-11
-1.90472e-10
-2.12444e-11
-1.79108e-10
-2.14904e-11
-1.67618e-10
-2.17168e-11
-1.56011e-10
-2.19262e-11
-1.44296e-10
-2.21243e-11
-1.32485e-10
-2.23143e-11
-1.20586e-10
-2.24926e-11
-1.08607e-10
-2.26532e-11
-9.65588e-11
-2.27928e-11
-8.44498e-11
-2.2911e-11
-7.22833e-11
-2.30096e-11
-6.00657e-11
-2.30952e-11
-4.78078e-11
-2.31732e-11
-3.55151e-11
-2.32334e-11
-2.3193e-11
-2.32594e-11
-1.08882e-11
-2.31743e-11
-2.06807e-11
1.26392e-11
-4.7463e-11
2.89126e-11
-2.73796e-11
4.10398e-11
-2.99997e-11
5.26825e-11
-3.2434e-11
6.40949e-11
-3.39873e-11
7.55601e-11
-3.47356e-11
8.71557e-11
-3.51406e-11
9.88464e-11
-3.52334e-11
1.10598e-10
-3.51554e-11
1.22371e-10
-3.49879e-11
1.34132e-10
-3.47634e-11
1.45855e-10
-3.44982e-11
1.57517e-10
-3.42015e-11
1.69099e-10
-3.38782e-11
1.80586e-10
-3.35302e-11
1.91964e-10
-3.31581e-11
2.0322e-10
-3.27618e-11
2.14343e-10
-3.23414e-11
2.25324e-10
-3.18967e-11
2.36151e-10
-3.14272e-11
2.46814e-10
-3.09325e-11
2.57305e-10
-3.04123e-11
2.67613e-10
-2.98662e-11
2.7773e-10
-2.92941e-11
2.87646e-10
-2.86959e-11
2.9735e-10
-2.80719e-11
3.06835e-10
-2.74221e-11
3.16089e-10
-2.67468e-11
3.25103e-10
-2.6046e-11
3.33868e-10
-2.53195e-11
3.42374e-10
-2.45671e-11
3.50611e-10
-2.37886e-11
3.58569e-10
-2.29837e-11
3.66241e-10
-2.21522e-11
3.73615e-10
-2.12943e-11
3.80682e-10
-2.041e-11
3.87434e-10
-1.94993e-11
3.93861e-10
-1.85625e-11
3.99954e-10
-1.75996e-11
4.05705e-10
-1.66109e-11
4.11104e-10
-1.55965e-11
4.16143e-10
-1.45568e-11
4.20813e-10
-1.34921e-11
4.25107e-10
-1.2403e-11
4.29016e-10
-1.129e-11
4.32532e-10
-1.01539e-11
4.35646e-10
-8.99545e-12
4.38353e-10
-7.81542e-12
4.40644e-10
-6.61476e-12
4.42513e-10
-5.39446e-12
4.43952e-10
-4.15552e-12
4.44956e-10
-2.89907e-12
4.45519e-10
-1.62634e-12
4.45635e-10
-3.38699e-13
4.453e-10
9.63292e-13
4.44507e-10
2.27754e-12
4.43252e-10
3.60284e-12
4.41532e-10
4.93783e-12
4.39344e-10
6.28122e-12
4.36686e-10
7.63162e-12
4.33555e-10
8.98755e-12
4.29952e-10
1.03475e-11
4.25874e-10
1.17098e-11
4.21322e-10
1.30728e-11
4.16297e-10
1.44345e-11
4.108e-10
1.57929e-11
4.04832e-10
1.71459e-11
3.98397e-10
1.84912e-11
3.91497e-10
1.98268e-11
3.84137e-10
2.11502e-11
3.7632e-10
2.24594e-11
3.68053e-10
2.37522e-11
3.59343e-10
2.50266e-11
3.50196e-10
2.62804e-11
3.4062e-10
2.75117e-11
3.30625e-10
2.87185e-11
3.20221e-10
2.98986e-11
3.09417e-10
3.10499e-11
2.98224e-10
3.217e-11
2.86656e-10
3.32567e-11
2.74723e-10
3.43076e-11
2.6244e-10
3.53204e-11
2.49819e-10
3.62928e-11
2.36876e-10
3.72225e-11
2.23626e-10
3.81076e-11
2.10084e-10
3.89464e-11
1.96267e-10
3.97374e-11
1.82191e-10
4.04788e-11
1.67875e-10
4.11694e-11
1.53336e-10
4.18078e-11
1.38593e-10
4.23929e-11
1.23665e-10
4.29236e-11
1.08572e-10
4.33988e-11
9.33327e-11
4.38171e-11
7.79682e-11
4.41774e-11
6.24986e-11
4.44789e-11
4.69448e-11
4.47209e-11
3.13277e-11
4.49028e-11
1.56681e-11
4.50242e-11
-1.27758e-14
4.50846e-11
-1.56937e-11
4.50839e-11
-3.13536e-11
4.50224e-11
-4.69712e-11
4.49005e-11
-6.25253e-11
4.47186e-11
-7.79948e-11
4.44773e-11
-9.33591e-11
4.41768e-11
-1.08598e-10
4.38179e-11
-1.23691e-10
4.34012e-11
-1.38619e-10
4.29276e-11
-1.53362e-10
4.2398e-11
-1.67902e-10
4.18136e-11
-1.82218e-10
4.11753e-11
-1.96294e-10
4.04846e-11
-2.10112e-10
3.9743e-11
-2.23654e-10
3.89518e-11
-2.36904e-10
3.81128e-11
-2.49847e-10
3.72277e-11
-2.62468e-10
3.62983e-11
-2.74752e-10
3.53265e-11
-2.86685e-10
3.43146e-11
-2.98255e-10
3.32646e-11
-3.09447e-10
3.21789e-11
-3.20251e-10
3.10599e-11
-3.30655e-10
2.99098e-11
-3.40648e-10
2.87308e-11
-3.50223e-10
2.75251e-11
-3.59368e-10
2.62948e-11
-3.68078e-10
2.5042e-11
-3.76344e-10
2.37688e-11
-3.84161e-10
2.24773e-11
-3.91523e-10
2.11699e-11
-3.98423e-10
1.98486e-11
-4.04859e-10
1.85154e-11
-4.10827e-10
1.71727e-11
-4.16324e-10
1.58226e-11
-4.21348e-10
1.44669e-11
-4.25898e-10
1.31076e-11
-4.29974e-10
1.17465e-11
-4.33576e-10
1.03853e-11
-4.36703e-10
9.02573e-12
-4.39358e-10
7.66898e-12
-4.41544e-10
6.31646e-12
-4.43261e-10
4.97062e-12
-4.44514e-10
3.63333e-12
-4.45308e-10
2.30529e-12
-4.45647e-10
9.88202e-13
-4.45534e-10
-3.15503e-13
-4.44975e-10
-1.60201e-12
-4.43975e-10
-2.87371e-12
-4.42538e-10
-4.12751e-12
-4.40671e-10
-5.3609e-12
-4.38379e-10
-6.5746e-12
-4.35671e-10
-7.76972e-12
-4.32554e-10
-8.9443e-12
-4.29035e-10
-1.00968e-11
-4.25123e-10
-1.12287e-11
-4.20823e-10
-1.23401e-11
-4.16147e-10
-1.3428e-11
-4.11103e-10
-1.44904e-11
-4.057e-10
-1.55294e-11
-3.99947e-10
-1.65453e-11
-3.93853e-10
-1.75348e-11
-3.87424e-10
-1.84953e-11
-3.80669e-10
-1.94285e-11
-3.73598e-10
-2.03358e-11
-3.66223e-10
-2.12164e-11
-3.58549e-10
-2.20696e-11
-3.50585e-10
-2.28966e-11
-3.42341e-10
-2.36984e-11
-3.33831e-10
-2.44746e-11
-3.25064e-10
-2.52247e-11
-3.16047e-10
-2.59492e-11
-3.06788e-10
-2.66479e-11
-2.973e-10
-2.73182e-11
-2.87587e-10
-2.79575e-11
-2.77658e-10
-2.85662e-11
-2.67522e-10
-2.91482e-11
-2.57193e-10
-2.97065e-11
-2.46678e-10
-3.0242e-11
-2.35986e-10
-3.0754e-11
-2.25129e-10
-3.12422e-11
-2.14118e-10
-3.17058e-11
-2.02957e-10
-3.21425e-11
-1.91654e-10
-3.25506e-11
-1.80215e-10
-3.29306e-11
-1.68649e-10
-3.32834e-11
-1.56968e-10
-3.36104e-11
-1.45182e-10
-3.39147e-11
-1.33299e-10
-3.41999e-11
-1.21328e-10
-3.44649e-11
-1.0928e-10
-3.47039e-11
-9.71618e-11
-3.49133e-11
-8.49779e-11
-3.5095e-11
-7.2732e-11
-3.52542e-11
-6.04354e-11
-3.53956e-11
-4.80975e-11
-3.55157e-11
-3.57249e-11
-3.56035e-11
-2.33264e-11
-3.56591e-11
-1.09659e-11
-3.55314e-11
-3.16477e-11
1.01676e-11
-5.76336e-11
2.55341e-11
-4.27517e-11
3.89001e-11
-4.3362e-11
5.12611e-11
-4.47908e-11
6.32302e-11
-4.59565e-11
7.51469e-11
-4.66549e-11
8.703e-11
-4.70255e-11
9.88985e-11
-4.71021e-11
1.10766e-10
-4.70221e-11
1.22617e-10
-4.68384e-11
1.34434e-10
-4.65798e-11
1.46198e-10
-4.62625e-11
1.57894e-10
-4.58972e-11
1.69506e-10
-4.54898e-11
1.8102e-10
-4.50439e-11
1.92425e-10
-4.45615e-11
2.03707e-10
-4.40435e-11
2.14856e-10
-4.34904e-11
2.25863e-10
-4.29024e-11
2.36716e-10
-4.22795e-11
2.47407e-10
-4.16216e-11
2.57924e-10
-4.09284e-11
2.6826e-10
-4.01999e-11
2.78403e-10
-3.94359e-11
2.88345e-10
-3.86366e-11
2.98076e-10
-3.7802e-11
3.07587e-10
-3.69321e-11
3.16868e-10
-3.60271e-11
3.25909e-10
-3.50868e-11
3.347e-10
-3.41113e-11
3.43233e-10
-3.31001e-11
3.51497e-10
-3.20532e-11
3.59483e-10
-3.09702e-11
3.67181e-10
-2.98512e-11
3.74582e-10
-2.86963e-11
3.81677e-10
-2.75055e-11
3.88456e-10
-2.62791e-11
3.94909e-10
-2.50173e-11
4.01029e-10
-2.37204e-11
4.06806e-10
-2.23887e-11
4.12231e-10
-2.10225e-11
4.17295e-10
-1.96222e-11
4.21991e-10
-1.81884e-11
4.26308e-10
-1.67217e-11
4.30241e-10
-1.5223e-11
4.33779e-10
-1.36929e-11
4.36915e-10
-1.21327e-11
4.39643e-10
-1.05434e-11
4.41953e-10
-8.92604e-12
4.43841e-10
-7.28202e-12
4.45297e-10
-5.61264e-12
4.46318e-10
-3.91938e-12
4.46895e-10
-2.20392e-12
4.47026e-10
-4.68912e-13
4.46702e-10
1.28687e-12
4.4592e-10
3.06021e-12
4.44675e-10
4.84812e-12
4.42963e-10
6.64938e-12
4.40782e-10
8.46217e-12
4.38129e-10
1.02845e-11
4.35002e-10
1.21144e-11
4.31399e-10
1.39496e-11
4.27321e-10
1.5788e-11
4.22766e-10
1.76271e-11
4.17736e-10
1.94645e-11
4.12232e-10
2.12973e-11
4.06255e-10
2.31229e-11
3.99808e-10
2.49383e-11
3.92894e-10
2.67405e-11
3.85517e-10
2.85266e-11
3.77682e-10
3.02937e-11
3.69395e-10
3.20387e-11
3.60662e-10
3.3759e-11
3.5149e-10
3.54516e-11
3.41888e-10
3.71135e-11
3.31865e-10
3.87421e-11
3.2143e-10
4.03344e-11
3.10594e-10
4.18874e-11
2.99366e-10
4.33981e-11
2.8776e-10
4.48633e-11
2.75788e-10
4.62801e-11
2.63462e-10
4.76456e-11
2.50797e-10
4.89569e-11
2.37807e-10
5.02111e-11
2.24508e-10
5.14057e-11
2.10915e-10
5.25381e-11
1.97045e-10
5.36062e-11
1.82916e-10
5.4608e-11
1.68544e-10
5.55412e-11
1.53949e-10
5.64041e-11
1.39148e-10
5.71947e-11
1.24162e-10
5.79115e-11
1.09008e-10
5.85529e-11
9.3709e-11
5.91173e-11
7.82834e-11
5.96034e-11
6.2752e-11
6.00101e-11
4.71358e-11
6.03363e-11
3.14558e-11
6.05815e-11
1.57331e-11
6.07451e-11
-1.10064e-14
6.08267e-11
-1.57552e-11
6.08261e-11
-3.1478e-11
6.07438e-11
-4.71583e-11
6.05798e-11
-6.27745e-11
6.03348e-11
-7.83057e-11
6.00091e-11
-9.37309e-11
5.96034e-11
-1.0903e-10
5.91185e-11
-1.24183e-10
5.85554e-11
-1.39169e-10
5.79153e-11
-1.53969e-10
5.71994e-11
-1.68565e-10
5.64094e-11
-1.82937e-10
5.55468e-11
-1.97066e-10
5.46137e-11
-2.10935e-10
5.36118e-11
-2.24527e-10
5.25435e-11
-2.37826e-10
5.1411e-11
-2.50816e-10
5.02165e-11
-2.63481e-10
4.89626e-11
-2.75808e-10
4.76519e-11
-2.87781e-10
4.62871e-11
-2.99389e-10
4.48711e-11
-3.10617e-10
4.3407e-11
-3.21454e-10
4.18976e-11
-3.31889e-10
4.0346e-11
-3.41911e-10
3.87551e-11
-3.51512e-10
3.71276e-11
-3.60683e-10
3.54667e-11
-3.69414e-10
3.37751e-11
-3.77701e-10
3.20557e-11
-3.85535e-10
3.03118e-11
-3.92912e-10
2.85462e-11
-3.99826e-10
2.67618e-11
-4.06273e-10
2.49616e-11
-4.12249e-10
2.31486e-11
-4.17753e-10
2.13253e-11
-4.22781e-10
1.94946e-11
-4.27334e-10
1.76594e-11
-4.31411e-10
1.58221e-11
-4.35011e-10
1.39844e-11
-4.38136e-10
1.2149e-11
-4.40788e-10
1.0319e-11
-4.42967e-10
8.4957e-12
-4.44676e-10
6.68059e-12
-4.4592e-10
4.87721e-12
-4.46703e-10
3.08856e-12
-4.47028e-10
1.3149e-12
-4.46899e-10
-4.43024e-13
-4.46325e-10
-2.17787e-12
-4.45307e-10
-3.89097e-12
-4.43849e-10
-5.58127e-12
-4.41961e-10
-7.24716e-12
-4.39651e-10
-8.88593e-12
-4.36921e-10
-1.04976e-11
-4.33781e-10
-1.20831e-11
-4.30241e-10
-1.36401e-11
-4.26306e-10
-1.51661e-11
-4.21983e-10
-1.66617e-11
-4.17281e-10
-1.81279e-11
-4.12213e-10
-1.95618e-11
-4.06786e-10
-2.09602e-11
-4.01006e-10
-2.23245e-11
-3.94884e-10
-2.36563e-11
-3.88428e-10
-2.49535e-11
-3.81647e-10
-2.62122e-11
-3.74548e-10
-2.74329e-11
-3.67143e-10
-2.86191e-11
-3.59442e-10
-2.9772e-11
-3.51451e-10
-3.08887e-11
-3.43181e-10
-3.19676e-11
-3.34642e-10
-3.30107e-11
-3.25845e-10
-3.40206e-11
-3.16798e-10
-3.49968e-11
-3.07511e-10
-3.59357e-11
-2.97993e-10
-3.68355e-11
-2.88251e-10
-3.7697e-11
-2.78295e-10
-3.85218e-11
-2.68133e-10
-3.931e-11
-2.57778e-10
-4.00628e-11
-2.47236e-10
-4.07831e-11
-2.36516e-10
-4.14724e-11
-2.25629e-10
-4.21288e-11
-2.14585e-10
-4.275e-11
-2.03393e-10
-4.33355e-11
-1.9206e-10
-4.38846e-11
-1.80596e-10
-4.43965e-11
-1.69006e-10
-4.48725e-11
-1.57302e-10
-4.53158e-11
-1.45493e-10
-4.57281e-11
-1.33587e-10
-4.61093e-11
-1.2159e-10
-4.64604e-11
-1.09515e-10
-4.67805e-11
-9.73708e-11
-4.70653e-11
-8.51588e-11
-4.73121e-11
-7.28815e-11
-4.75287e-11
-6.05532e-11
-4.77217e-11
-4.81882e-11
-4.78806e-11
-3.57974e-11
-4.79977e-11
-2.33783e-11
-4.80759e-11
-1.10071e-11
-4.79013e-11
-4.26538e-11
9.49796e-12
-6.71281e-11
2.38804e-11
-5.71414e-11
3.73178e-11
-5.68021e-11
5.0124e-11
-5.7595e-11
6.25442e-11
-5.83747e-11
7.47683e-11
-5.88788e-11
8.68525e-11
-5.91105e-11
9.88848e-11
-5.9135e-11
1.10875e-10
-5.90125e-11
1.22821e-10
-5.8783e-11
1.34711e-10
-5.84695e-11
1.46535e-10
-5.80866e-11
1.58281e-10
-5.76435e-11
1.69938e-10
-5.71463e-11
1.81493e-10
-5.6599e-11
1.92936e-10
-5.60038e-11
2.04255e-10
-5.53624e-11
2.15441e-10
-5.46755e-11
2.26484e-10
-5.39436e-11
2.37373e-10
-5.3167e-11
2.481e-10
-5.23458e-11
2.58653e-10
-5.14798e-11
2.69024e-10
-5.0569e-11
2.79204e-10
-4.96134e-11
2.89181e-10
-4.86131e-11
2.98948e-10
-4.7568e-11
3.08494e-10
-4.64781e-11
3.1781e-10
-4.53434e-11
3.26886e-10
-4.41637e-11
3.35713e-10
-4.29389e-11
3.44282e-10
-4.16688e-11
3.52582e-10
-4.03532e-11
3.60604e-10
-3.89921e-11
3.68338e-10
-3.75854e-11
3.75775e-10
-3.61333e-11
3.82906e-10
-3.46361e-11
3.8972e-10
-3.30939e-11
3.96209e-10
-3.15072e-11
4.02364e-10
-2.98761e-11
4.08175e-10
-2.82012e-11
4.13634e-10
-2.64827e-11
4.18732e-10
-2.47213e-11
4.2346e-10
-2.29176e-11
4.2781e-10
-2.10725e-11
4.31773e-10
-1.91869e-11
4.35342e-10
-1.72619e-11
4.38507e-10
-1.52988e-11
4.41263e-10
-1.3299e-11
4.436e-10
-1.12638e-11
4.45512e-10
-9.19488e-12
4.46993e-10
-7.09377e-12
4.48036e-10
-4.96232e-12
4.48634e-10
-2.8026e-12
4.48784e-10
-6.18625e-13
4.48478e-10
1.59324e-12
4.47711e-10
3.82705e-12
4.46479e-10
6.07939e-12
4.44779e-10
8.34889e-12
4.42608e-10
1.06332e-11
4.39963e-10
1.29298e-11
4.36841e-10
1.5236e-11
4.33241e-10
1.7549e-11
4.29163e-10
1.98661e-11
4.24607e-10
2.21841e-11
4.19571e-10
2.44998e-11
4.14059e-10
2.68098e-11
4.08071e-10
2.91107e-11
4.01611e-10
3.13988e-11
3.9468e-10
3.36705e-11
3.87283e-10
3.5922e-11
3.79426e-10
3.81497e-11
3.71114e-10
4.03499e-11
3.62354e-10
4.25189e-11
3.53152e-10
4.46531e-11
3.43517e-10
4.67487e-11
3.33458e-10
4.8802e-11
3.22985e-10
5.08093e-11
3.12106e-10
5.27668e-11
3.00834e-10
5.46707e-11
2.8918e-10
5.65173e-11
2.77156e-10
5.83029e-11
2.64776e-10
6.0024e-11
2.52054e-10
6.16771e-11
2.39004e-10
6.32587e-11
2.25642e-10
6.47656e-11
2.11985e-10
6.61945e-11
1.98048e-10
6.75427e-11
1.83849e-10
6.88072e-11
1.69407e-10
6.99852e-11
1.54738e-10
7.10741e-11
1.39864e-10
7.20716e-11
1.24801e-10
7.29756e-11
1.09571e-10
7.37842e-11
9.41935e-11
7.44955e-11
7.86886e-11
7.5108e-11
6.30773e-11
7.56203e-11
4.73806e-11
7.60315e-11
3.16194e-11
7.63406e-11
1.58152e-11
7.65472e-11
-1.0653e-14
7.66506e-11
-1.58368e-11
7.66507e-11
-3.16413e-11
7.65475e-11
-4.74028e-11
7.63412e-11
-6.30996e-11
7.60324e-11
-7.87107e-11
7.56216e-11
-9.42152e-11
7.51097e-11
-1.09592e-10
7.44977e-11
-1.24822e-10
7.37869e-11
-1.39884e-10
7.29787e-11
-1.54759e-10
7.20749e-11
-1.69427e-10
7.10775e-11
-1.83869e-10
6.99888e-11
-1.98067e-10
6.88112e-11
-2.12003e-10
6.75473e-11
-2.2566e-10
6.61997e-11
-2.39021e-10
6.47713e-11
-2.5207e-10
6.3265e-11
-2.64793e-10
6.1684e-11
-2.77173e-10
6.00316e-11
-2.89198e-10
5.83112e-11
-3.00854e-10
5.65263e-11
-3.12128e-10
5.46807e-11
-3.23007e-10
5.27779e-11
-3.33482e-10
5.08216e-11
-3.43541e-10
4.88154e-11
-3.53175e-10
4.67631e-11
-3.62376e-10
4.46684e-11
-3.71136e-10
4.25349e-11
-3.79447e-10
4.03666e-11
-3.87303e-10
3.81673e-11
-3.94698e-10
3.59408e-11
-4.01628e-10
3.36907e-11
-4.08087e-10
3.14207e-11
-4.14074e-10
2.91347e-11
-4.19585e-10
2.68362e-11
-4.24618e-10
2.45282e-11
-4.29173e-10
2.22141e-11
-4.33251e-10
1.98981e-11
-4.36849e-10
1.75824e-11
-4.39968e-10
1.52691e-11
-4.42613e-10
1.29621e-11
-4.44783e-10
1.06655e-11
-4.4648e-10
8.38036e-12
-4.4771e-10
6.10855e-12
-4.48477e-10
3.85468e-12
-4.48785e-10
1.62215e-12
-4.48637e-10
-5.88716e-13
-4.4804e-10
-2.7754e-12
-4.46999e-10
-4.93416e-12
-4.45517e-10
-7.06201e-12
-4.43602e-10
-9.1591e-12
-4.41264e-10
-1.12247e-11
-4.38508e-10
-1.32562e-11
-4.3534e-10
-1.5252e-11
-4.31769e-10
-1.72118e-11
-4.27803e-10
-1.91343e-11
-4.2345e-10
-2.10172e-11
-4.18717e-10
-2.28599e-11
-4.13616e-10
-2.46629e-11
-4.08155e-10
-2.64245e-11
-4.02342e-10
-2.81418e-11
-3.96185e-10
-2.98142e-11
-3.89692e-10
-3.14437e-11
-3.82874e-10
-3.30299e-11
-3.7574e-10
-3.45698e-11
-3.683e-10
-3.60619e-11
-3.60562e-10
-3.75086e-11
-3.52533e-10
-3.89129e-11
-3.44226e-10
-4.02739e-11
-3.35652e-10
-4.1588e-11
-3.2682e-10
-4.28547e-11
-3.17734e-10
-4.40771e-11
-3.08408e-10
-4.52567e-11
-2.98853e-10
-4.63905e-11
-2.89077e-10
-4.74751e-11
-2.79086e-10
-4.8511e-11
-2.68889e-10
-4.95016e-11
-2.58499e-10
-5.04499e-11
-2.47923e-10
-5.13579e-11
-2.37168e-10
-5.22256e-11
-2.26245e-10
-5.30499e-11
-2.15167e-10
-5.38276e-11
-2.03941e-10
-5.45595e-11
-1.92576e-10
-5.5248e-11
-1.8108e-10
-5.58932e-11
-1.6946e-10
-5.6494e-11
-1.57724e-10
-5.70523e-11
-1.45882e-10
-5.75713e-11
-1.33941e-10
-5.80518e-11
-1.21911e-10
-5.84922e-11
-1.098e-10
-5.88906e-11
-9.76178e-11
-5.9246e-11
-8.53686e-11
-5.95607e-11
-7.30608e-11
-5.98393e-11
-6.07027e-11
-6.00787e-11
-4.83116e-11
-6.02706e-11
-3.5897e-11
-6.04156e-11
-2.34532e-11
-6.05173e-11
-1.10561e-11
-6.03009e-11
-5.37069e-11
9.52712e-12
-7.66504e-11
2.32269e-11
-7.08425e-11
3.65584e-11
-7.01377e-11
4.94999e-11
-7.05378e-11
6.21141e-11
-7.09878e-11
7.45056e-11
-7.12689e-11
8.67645e-11
-7.13689e-11
9.89385e-11
-7.13087e-11
1.11045e-10
-7.11186e-11
1.23086e-10
-7.08232e-11
1.35056e-10
-7.04397e-11
1.46949e-10
-6.99798e-11
1.58756e-10
-6.94509e-11
1.70468e-10
-6.88584e-11
1.82075e-10
-6.82057e-11
1.93567e-10
-6.74953e-11
2.04934e-10
-6.67286e-11
2.16167e-10
-6.59067e-11
2.27255e-10
-6.50303e-11
2.3819e-10
-6.40996e-11
2.48962e-10
-6.31149e-11
2.59561e-10
-6.20761e-11
2.69977e-10
-6.09833e-11
2.80201e-10
-5.98363e-11
2.90224e-10
-5.86351e-11
3.00035e-10
-5.73796e-11
3.09626e-10
-5.60697e-11
3.18987e-10
-5.47052e-11
3.28109e-10
-5.3286e-11
3.36982e-10
-5.18119e-11
3.45596e-10
-5.02827e-11
3.53941e-10
-4.86984e-11
3.62009e-10
-4.70589e-11
3.69789e-10
-4.53645e-11
3.77271e-10
-4.36153e-11
3.84447e-10
-4.18115e-11
3.91306e-10
-3.99535e-11
3.9784e-10
-3.80416e-11
4.04039e-10
-3.6076e-11
4.09894e-10
-3.40573e-11
4.15396e-10
-3.19859e-11
4.20536e-10
-2.98625e-11
4.25306e-10
-2.7688e-11
4.29696e-10
-2.54634e-11
4.33699e-10
-2.31898e-11
4.37305e-10
-2.08687e-11
4.40507e-10
-1.85016e-11
4.43298e-10
-1.60899e-11
4.45669e-10
-1.36355e-11
4.47613e-10
-1.114e-11
4.49125e-10
-8.60554e-12
4.50196e-10
-6.03413e-12
4.50821e-10
-3.4282e-12
4.50994e-10
-7.91844e-13
4.5071e-10
1.87759e-12
4.49963e-10
4.57353e-12
4.48749e-10
7.29277e-12
4.47065e-10
1.00332e-11
4.44906e-10
1.27918e-11
4.4227e-10
1.55655e-11
4.39155e-10
1.83511e-11
4.35559e-10
2.11451e-11
4.31481e-10
2.39441e-11
4.26921e-10
2.67442e-11
4.2188e-10
2.95416e-11
4.16358e-10
3.23322e-11
4.10357e-10
3.51117e-11
4.0388e-10
3.7876e-11
3.96929e-10
4.06205e-11
3.89509e-10
4.3341e-11
3.81624e-10
4.60329e-11
3.73281e-10
4.86918e-11
3.64486e-10
5.13132e-11
3.55247e-10
5.38927e-11
3.4557e-10
5.64256e-11
3.35466e-10
5.89072e-11
3.24943e-10
6.13332e-11
3.14011e-10
6.3699e-11
3.02682e-10
6.60001e-11
2.90967e-10
6.82318e-11
2.78878e-10
7.03901e-11
2.6643e-10
7.24705e-11
2.53635e-10
7.44691e-11
2.4051e-10
7.63817e-11
2.2707e-10
7.82042e-11
2.13331e-10
7.99327e-11
1.9931e-10
8.15635e-11
1.85025e-10
8.30931e-11
1.70494e-10
8.45179e-11
1.55734e-10
8.58349e-11
1.40766e-10
8.70412e-11
1.25609e-10
8.81342e-11
1.10282e-10
8.91117e-11
9.4806e-11
8.99716e-11
7.92013e-11
9.07121e-11
6.34889e-11
9.13316e-11
4.76901e-11
9.1829e-11
3.18263e-11
9.22031e-11
1.59191e-11
9.24532e-11
-9.80938e-15
9.25786e-11
-1.59389e-11
9.25793e-11
-3.18462e-11
9.24548e-11
-4.77101e-11
9.22056e-11
-6.3509e-11
9.18322e-11
-7.92215e-11
9.13352e-11
-9.48263e-11
9.07158e-11
-1.10303e-10
8.9975e-11
-1.2563e-10
8.91147e-11
-1.40788e-10
8.81366e-11
-1.55756e-10
8.70431e-11
-1.70515e-10
8.58366e-11
-1.85047e-10
8.45198e-11
-1.99331e-10
8.30956e-11
-2.13351e-10
8.15671e-11
-2.27089e-10
7.99375e-11
-2.40527e-10
7.82103e-11
-2.53651e-10
7.6389e-11
-2.66445e-10
7.44775e-11
-2.78894e-10
7.24798e-11
-2.90983e-10
7.04e-11
-3.027e-10
6.82423e-11
-3.1403e-10
6.60111e-11
-3.24963e-10
6.37108e-11
-3.35488e-10
6.13458e-11
-3.45593e-10
5.89205e-11
-3.55269e-10
5.64395e-11
-3.64509e-10
5.39073e-11
-3.73303e-10
5.13286e-11
-3.81645e-10
4.87079e-11
-3.89528e-10
4.60498e-11
-3.96947e-10
4.33592e-11
-4.03897e-10
4.06403e-11
-4.10372e-10
3.78973e-11
-4.16372e-10
3.51348e-11
-4.21892e-10
3.23577e-11
-4.26931e-10
2.95694e-11
-4.31489e-10
2.67735e-11
-4.35566e-10
2.39747e-11
-4.39161e-10
2.11774e-11
-4.42274e-10
1.83839e-11
-4.44908e-10
1.55973e-11
-4.47067e-10
1.28227e-11
-4.48751e-10
1.00639e-11
-4.49962e-10
7.32261e-12
-4.50709e-10
4.60132e-12
-4.50995e-10
1.90493e-12
-4.50823e-10
-7.6246e-13
-4.50198e-10
-3.40029e-12
-4.49127e-10
-6.00588e-12
-4.47615e-10
-8.57576e-12
-4.45668e-10
-1.11063e-11
-4.43296e-10
-1.35973e-11
-4.40505e-10
-1.6049e-11
-4.37302e-10
-1.84586e-11
-4.33694e-10
-2.08226e-11
-4.29688e-10
-2.31397e-11
-4.25295e-10
-2.54105e-11
-4.20522e-10
-2.76339e-11
-4.1538e-10
-2.98075e-11
-4.09875e-10
-3.19296e-11
-4.04017e-10
-3.4e-11
-3.97815e-10
-3.60181e-11
-3.91279e-10
-3.79824e-11
-3.84415e-10
-3.98924e-11
-3.77234e-10
-4.17483e-11
-3.69747e-10
-4.35497e-11
-3.61964e-10
-4.52956e-11
-3.53891e-10
-4.69863e-11
-3.45538e-10
-4.86231e-11
-3.36917e-10
-5.02066e-11
-3.28038e-10
-5.17355e-11
-3.18908e-10
-5.32087e-11
-3.09536e-10
-5.46265e-11
-2.99935e-10
-5.59887e-11