/*--------------------------------*- C++ -*----------------------------------*\
| =========                 |                                                 |
| \\      /  F ield         | OpenFOAM: The Open Source CFD Toolbox           |
|  \\    /   O peration     | Version:  2412                                  |
|   \\  /    A nd           | Website:  www.openfoam.com                      |
|    \\/     M anipulation  |                                                 |
\*---------------------------------------------------------------------------*/
FoamFile
{
    version     2.0;
    format      ascii;
    arch        "LSB;label=32;scalar=64";
    class       volVectorField;
    location    "1.03";
    object      U;
}
// * * * * * * * * * * * * * * * * * * * * * * * * * * * * * * * * * * * * * //

dimensions      [0 1 -1 0 0 0 0];

internalField   nonuniform List<vector> 
40000
(
(1.43419e-05 4.51341e-06 0)
(1.60241e-06 9.40158e-06 0)
(1.26024e-05 -2.62433e-06 0)
(1.96802e-05 -4.68333e-06 0)
(3.36561e-05 -5.59334e-06 0)
(4.58697e-05 -5.64609e-06 0)
(5.83273e-05 -5.52973e-06 0)
(7.03908e-05 -5.40119e-06 0)
(8.21973e-05 -5.25444e-06 0)
(9.37958e-05 -5.14875e-06 0)
(0.000105153 -5.06812e-06 0)
(0.00011631 -4.99382e-06 0)
(0.000127297 -4.92739e-06 0)
(0.00013812 -4.86548e-06 0)
(0.000148787 -4.80627e-06 0)
(0.0001593 -4.74733e-06 0)
(0.000169661 -4.68608e-06 0)
(0.000179872 -4.62297e-06 0)
(0.000189928 -4.55745e-06 0)
(0.000199825 -4.48903e-06 0)
(0.000209558 -4.41731e-06 0)
(0.000219121 -4.34218e-06 0)
(0.000228509 -4.26337e-06 0)
(0.000237713 -4.18048e-06 0)
(0.000246727 -4.09348e-06 0)
(0.000255544 -4.00246e-06 0)
(0.000264157 -3.9076e-06 0)
(0.000272558 -3.80929e-06 0)
(0.00028074 -3.70778e-06 0)
(0.000288697 -3.60305e-06 0)
(0.00029642 -3.49497e-06 0)
(0.000303904 -3.3834e-06 0)
(0.00031114 -3.26824e-06 0)
(0.000318121 -3.14946e-06 0)
(0.00032484 -3.02717e-06 0)
(0.00033129 -2.9015e-06 0)
(0.000337462 -2.77237e-06 0)
(0.00034335 -2.63967e-06 0)
(0.000348946 -2.50339e-06 0)
(0.000354241 -2.36343e-06 0)
(0.000359228 -2.21958e-06 0)
(0.000363898 -2.07186e-06 0)
(0.000368243 -1.92039e-06 0)
(0.000372255 -1.76517e-06 0)
(0.000375926 -1.60628e-06 0)
(0.000379249 -1.444e-06 0)
(0.000382216 -1.27853e-06 0)
(0.00038482 -1.10997e-06 0)
(0.000387056 -9.38534e-07 0)
(0.000388918 -7.64531e-07 0)
(0.0003904 -5.88194e-07 0)
(0.000391498 -4.09739e-07 0)
(0.000392206 -2.29527e-07 0)
(0.000392519 -4.78617e-08 0)
(0.000392433 1.36353e-07 0)
(0.000391945 3.23433e-07 0)
(0.000391054 5.12185e-07 0)
(0.000389754 7.02326e-07 0)
(0.000388044 8.93213e-07 0)
(0.000385922 1.08487e-06 0)
(0.000383384 1.2775e-06 0)
(0.00038043 1.47099e-06 0)
(0.000377058 1.66506e-06 0)
(0.000373268 1.85943e-06 0)
(0.000369059 2.05386e-06 0)
(0.000364433 2.24794e-06 0)
(0.000359391 2.44118e-06 0)
(0.000353935 2.63314e-06 0)
(0.000348067 2.82349e-06 0)
(0.000341792 3.0119e-06 0)
(0.000335114 3.198e-06 0)
(0.000328036 3.38145e-06 0)
(0.000320565 3.562e-06 0)
(0.000312706 3.73947e-06 0)
(0.000304464 3.91376e-06 0)
(0.000295848 4.08468e-06 0)
(0.000286864 4.25197e-06 0)
(0.000277521 4.41537e-06 0)
(0.000267828 4.57466e-06 0)
(0.000257794 4.7296e-06 0)
(0.000247431 4.87989e-06 0)
(0.000236748 5.02504e-06 0)
(0.00022576 5.16458e-06 0)
(0.000214478 5.29815e-06 0)
(0.000202916 5.4255e-06 0)
(0.000191087 5.5463e-06 0)
(0.000179007 5.66016e-06 0)
(0.000166691 5.76659e-06 0)
(0.000154153 5.86527e-06 0)
(0.000141412 5.95604e-06 0)
(0.000128482 6.03886e-06 0)
(0.000115381 6.11362e-06 0)
(0.000102126 6.18009e-06 0)
(8.87359e-05 6.23811e-06 0)
(7.52275e-05 6.28776e-06 0)
(6.16191e-05 6.32937e-06 0)
(4.79285e-05 6.3632e-06 0)
(3.41738e-05 6.38914e-06 0)
(2.03727e-05 6.40672e-06 0)
(6.54372e-06 6.41532e-06 0)
(-7.29517e-06 6.41468e-06 0)
(-2.11249e-05 6.40499e-06 0)
(-3.49273e-05 6.38669e-06 0)
(-4.86835e-05 6.36022e-06 0)
(-6.23753e-05 6.32571e-06 0)
(-7.59844e-05 6.28305e-06 0)
(-8.9493e-05 6.23214e-06 0)
(-0.000102883 6.17298e-06 0)
(-0.000116138 6.10576e-06 0)
(-0.00012924 6.0307e-06 0)
(-0.000142171 5.94797e-06 0)
(-0.000154916 5.85764e-06 0)
(-0.000167457 5.75985e-06 0)
(-0.000179779 5.65477e-06 0)
(-0.000191864 5.54266e-06 0)
(-0.000203698 5.42379e-06 0)
(-0.000215267 5.29835e-06 0)
(-0.000226555 5.16645e-06 0)
(-0.00023755 5.02828e-06 0)
(-0.000248238 4.88406e-06 0)
(-0.000258609 4.73415e-06 0)
(-0.00026865 4.57903e-06 0)
(-0.000278352 4.41921e-06 0)
(-0.000287704 4.25516e-06 0)
(-0.000296698 4.08726e-06 0)
(-0.000305326 3.91578e-06 0)
(-0.00031358 3.74094e-06 0)
(-0.000321453 3.56293e-06 0)
(-0.00032894 3.38204e-06 0)
(-0.000336033 3.19854e-06 0)
(-0.000342729 3.01268e-06 0)
(-0.000349022 2.82479e-06 0)
(-0.000354908 2.63526e-06 0)
(-0.000360385 2.44433e-06 0)
(-0.00036545 2.25217e-06 0)
(-0.000370101 2.05923e-06 0)
(-0.000374338 1.86608e-06 0)
(-0.000378159 1.67297e-06 0)
(-0.000381565 1.47981e-06 0)
(-0.000384556 1.28702e-06 0)
(-0.000387132 1.09526e-06 0)
(-0.000389292 9.04135e-07 0)
(-0.000391037 7.13042e-07 0)
(-0.000392368 5.22643e-07 0)
(-0.000393288 3.33397e-07 0)
(-0.000393799 1.44398e-07 0)
(-0.000393905 -4.35664e-08 0)
(-0.000393611 -2.28038e-07 0)
(-0.000392922 -4.09411e-07 0)
(-0.000391844 -5.88512e-07 0)
(-0.000390385 -7.64932e-07 0)
(-0.000388553 -9.37306e-07 0)
(-0.000386353 -1.10568e-06 0)
(-0.000383793 -1.27097e-06 0)
(-0.000380879 -1.43304e-06 0)
(-0.000377617 -1.59187e-06 0)
(-0.00037401 -1.74828e-06 0)
(-0.000370063 -1.90204e-06 0)
(-0.000365785 -2.05184e-06 0)
(-0.000361181 -2.19807e-06 0)
(-0.000356257 -2.34247e-06 0)
(-0.000351022 -2.4847e-06 0)
(-0.000345488 -2.62234e-06 0)
(-0.000339662 -2.75467e-06 0)
(-0.000333552 -2.88349e-06 0)
(-0.000327169 -3.00991e-06 0)
(-0.000320521 -3.13279e-06 0)
(-0.000313616 -3.25071e-06 0)
(-0.00030646 -3.36356e-06 0)
(-0.000299061 -3.47258e-06 0)
(-0.000291424 -3.57958e-06 0)
(-0.000283558 -3.68543e-06 0)
(-0.00027547 -3.78864e-06 0)
(-0.000267172 -3.88641e-06 0)
(-0.000258675 -3.97761e-06 0)
(-0.000249988 -4.06338e-06 0)
(-0.000241123 -4.14507e-06 0)
(-0.000232085 -4.22351e-06 0)
(-0.00022288 -4.29953e-06 0)
(-0.000213511 -4.37366e-06 0)
(-0.000203985 -4.44628e-06 0)
(-0.000194311 -4.51795e-06 0)
(-0.000184494 -4.5878e-06 0)
(-0.000174545 -4.65195e-06 0)
(-0.000164477 -4.70582e-06 0)
(-0.000154301 -4.74849e-06 0)
(-0.000144026 -4.78344e-06 0)
(-0.000133657 -4.81564e-06 0)
(-0.000123199 -4.84952e-06 0)
(-0.000112654 -4.8872e-06 0)
(-0.000102027 -4.92604e-06 0)
(-9.1326e-05 -4.96055e-06 0)
(-8.05601e-05 -4.98789e-06 0)
(-6.97403e-05 -5.01019e-06 0)
(-5.88802e-05 -5.03149e-06 0)
(-4.79903e-05 -5.05353e-06 0)
(-3.70709e-05 -5.0703e-06 0)
(-2.61227e-05 -5.06762e-06 0)
(-1.52679e-05 -5.02572e-06 0)
(-4.69496e-06 -4.69329e-06 0)
(1.99868e-05 -2.86409e-05 0)
(2.94769e-05 -4.80731e-06 0)
(4.05805e-05 -1.50591e-05 0)
(4.80563e-05 -1.72348e-05 0)
(5.8034e-05 -1.87879e-05 0)
(6.84833e-05 -1.88473e-05 0)
(7.96335e-05 -1.86465e-05 0)
(9.11371e-05 -1.83481e-05 0)
(0.000102834 -1.80066e-05 0)
(0.000114623 -1.77088e-05 0)
(0.000126419 -1.74438e-05 0)
(0.000138182 -1.71947e-05 0)
(0.000149886 -1.69611e-05 0)
(0.00016151 -1.67362e-05 0)
(0.000173036 -1.65158e-05 0)
(0.00018445 -1.62953e-05 0)
(0.000195743 -1.60702e-05 0)
(0.000206904 -1.58397e-05 0)
(0.000217923 -1.56023e-05 0)
(0.000228789 -1.53565e-05 0)
(0.000239494 -1.51011e-05 0)
(0.000250028 -1.48353e-05 0)
(0.000260383 -1.45583e-05 0)
(0.00027055 -1.42697e-05 0)
(0.00028052 -1.39693e-05 0)
(0.000290283 -1.36571e-05 0)
(0.000299831 -1.33332e-05 0)
(0.000309154 -1.29979e-05 0)
(0.000318241 -1.26515e-05 0)
(0.000327084 -1.22938e-05 0)
(0.000335673 -1.19246e-05 0)
(0.000343998 -1.15436e-05 0)
(0.00035205 -1.11506e-05 0)
(0.00035982 -1.07453e-05 0)
(0.000367298 -1.0328e-05 0)
(0.000374476 -9.89857e-06 0)
(0.000381345 -9.45701e-06 0)
(0.000387894 -9.00323e-06 0)
(0.000394115 -8.53712e-06 0)
(0.000399999 -8.05851e-06 0)
(0.000405537 -7.56722e-06 0)
(0.000410721 -7.06335e-06 0)
(0.000415543 -6.54709e-06 0)
(0.000419995 -6.01867e-06 0)
(0.000424067 -5.4785e-06 0)
(0.000427753 -4.92716e-06 0)
(0.000431044 -4.36512e-06 0)
(0.000433932 -3.7928e-06 0)
(0.000436411 -3.21073e-06 0)
(0.000438473 -2.61956e-06 0)
(0.000440111 -2.01985e-06 0)
(0.00044132 -1.41224e-06 0)
(0.000442094 -7.97508e-07 0)
(0.000442426 -1.76356e-07 0)
(0.000442313 4.51487e-07 0)
(0.000441749 1.08627e-06 0)
(0.000440728 1.72614e-06 0)
(0.000439247 2.37043e-06 0)
(0.000437302 3.01829e-06 0)
(0.00043489 3.66935e-06 0)
(0.000432011 4.32333e-06 0)
(0.000428662 4.97963e-06 0)
(0.000424843 5.63746e-06 0)
(0.000420554 6.29595e-06 0)
(0.000415795 6.95416e-06 0)
(0.000410567 7.61094e-06 0)
(0.000404871 8.26507e-06 0)
(0.000398711 8.91537e-06 0)
(0.000392088 9.56077e-06 0)
(0.000385006 1.02002e-05 0)
(0.000377469 1.08325e-05 0)
(0.000369482 1.14567e-05 0)
(0.000361052 1.20719e-05 0)
(0.000352184 1.26772e-05 0)
(0.000342888 1.32717e-05 0)
(0.00033317 1.38545e-05 0)
(0.000323041 1.44246e-05 0)
(0.00031251 1.4981e-05 0)
(0.000301589 1.55227e-05 0)
(0.000290288 1.60486e-05 0)
(0.00027862 1.65576e-05 0)
(0.000266598 1.70484e-05 0)
(0.000254234 1.75197e-05 0)
(0.000241544 1.79704e-05 0)
(0.000228541 1.83996e-05 0)
(0.000215241 1.88062e-05 0)
(0.000201659 1.91895e-05 0)
(0.000187813 1.95484e-05 0)
(0.00017372 1.98821e-05 0)
(0.000159396 2.01901e-05 0)
(0.000144861 2.0472e-05 0)
(0.000130132 2.07274e-05 0)
(0.00011523 2.09557e-05 0)
(0.000100173 2.11564e-05 0)
(8.49831e-05 2.13292e-05 0)
(6.96785e-05 2.14738e-05 0)
(5.42798e-05 2.15901e-05 0)
(3.88079e-05 2.16778e-05 0)
(2.32838e-05 2.17365e-05 0)
(7.72859e-06 2.17655e-05 0)
(-7.83753e-06 2.17647e-05 0)
(-2.33931e-05 2.17343e-05 0)
(-3.89178e-05 2.16749e-05 0)
(-5.43904e-05 2.15867e-05 0)
(-6.97897e-05 2.14702e-05 0)
(-8.5095e-05 2.13255e-05 0)
(-0.000100286 2.11527e-05 0)
(-0.000115342 2.09522e-05 0)
(-0.000130245 2.07243e-05 0)
(-0.000144974 2.04695e-05 0)
(-0.00015951 2.01882e-05 0)
(-0.000173835 1.98809e-05 0)
(-0.000187929 1.95481e-05 0)
(-0.000201777 1.91905e-05 0)
(-0.000215359 1.88088e-05 0)
(-0.00022866 1.8404e-05 0)
(-0.000241663 1.79766e-05 0)
(-0.000254355 1.75275e-05 0)
(-0.000266719 1.70576e-05 0)
(-0.000278743 1.65679e-05 0)
(-0.000290412 1.60597e-05 0)
(-0.000301714 1.55343e-05 0)
(-0.000312637 1.4993e-05 0)
(-0.000323168 1.44371e-05 0)
(-0.000333297 1.38677e-05 0)
(-0.000343015 1.32859e-05 0)
(-0.000352311 1.26924e-05 0)
(-0.000361179 1.20881e-05 0)
(-0.000369611 1.14742e-05 0)
(-0.0003776 1.08517e-05 0)
(-0.00038514 1.02215e-05 0)
(-0.000392225 9.58455e-06 0)
(-0.000398852 8.94213e-06 0)
(-0.000405017 8.29527e-06 0)
(-0.000410716 7.6448e-06 0)
(-0.000415946 6.99167e-06 0)
(-0.000420708 6.33716e-06 0)
(-0.000424999 5.68215e-06 0)
(-0.000428818 5.02682e-06 0)
(-0.000432166 4.37158e-06 0)
(-0.000435044 3.71761e-06 0)
(-0.000437454 3.0655e-06 0)
(-0.000439398 2.41491e-06 0)
(-0.00044088 1.7667e-06 0)
(-0.000441904 1.12274e-06 0)
(-0.000442475 4.83741e-07 0)
(-0.000442595 -1.49384e-07 0)
(-0.000442271 -7.73908e-07 0)
(-0.000441508 -1.38869e-06 0)
(-0.00044031 -1.99347e-06 0)
(-0.000438679 -2.58849e-06 0)
(-0.000436623 -3.1729e-06 0)
(-0.000434149 -3.74621e-06 0)
(-0.000431263 -4.30955e-06 0)
(-0.000427973 -4.86381e-06 0)
(-0.000424288 -5.40867e-06 0)
(-0.000420216 -5.94384e-06 0)
(-0.000415763 -6.46907e-06 0)
(-0.000410941 -6.98332e-06 0)
(-0.00040576 -7.4857e-06 0)
(-0.000400226 -7.97651e-06 0)
(-0.000394348 -8.45566e-06 0)
(-0.000388135 -8.92115e-06 0)
(-0.000381596 -9.37117e-06 0)
(-0.000374737 -9.80658e-06 0)
(-0.000367566 -1.02298e-05 0)
(-0.000360091 -1.06418e-05 0)
(-0.000352324 -1.10416e-05 0)
(-0.000344274 -1.14281e-05 0)
(-0.000335951 -1.18028e-05 0)
(-0.000327366 -1.21679e-05 0)
(-0.00031853 -1.25237e-05 0)
(-0.000309457 -1.28667e-05 0)
(-0.000300156 -1.31926e-05 0)
(-0.00029063 -1.35e-05 0)
(-0.000280879 -1.37914e-05 0)
(-0.000270909 -1.40699e-05 0)
(-0.000260732 -1.43377e-05 0)
(-0.000250364 -1.45974e-05 0)
(-0.00023982 -1.48503e-05 0)
(-0.000229117 -1.50948e-05 0)
(-0.000218263 -1.53274e-05 0)
(-0.00020726 -1.55445e-05 0)
(-0.000196107 -1.57432e-05 0)
(-0.00018481 -1.59212e-05 0)
(-0.000173378 -1.60798e-05 0)
(-0.000161822 -1.62245e-05 0)
(-0.000150153 -1.63622e-05 0)
(-0.000138386 -1.6497e-05 0)
(-0.000126531 -1.66282e-05 0)
(-0.000114597 -1.67506e-05 0)
(-0.000102588 -1.6859e-05 0)
(-9.05093e-05 -1.6951e-05 0)
(-7.83684e-05 -1.70287e-05 0)
(-6.61782e-05 -1.70967e-05 0)
(-5.39497e-05 -1.71566e-05 0)
(-4.16745e-05 -1.71976e-05 0)
(-2.93437e-05 -1.72012e-05 0)
(-1.71329e-05 -1.71115e-05 0)
(-5.02906e-06 -1.52795e-05 0)
(7.66391e-06 -3.86622e-05 0)
(1.90701e-05 -1.80131e-05 0)
(3.68525e-05 -2.18656e-05 0)
(4.70666e-05 -2.53621e-05 0)
(5.83934e-05 -2.75403e-05 0)
(6.96682e-05 -2.85844e-05 0)
(8.11757e-05 -2.90408e-05 0)
(9.28368e-05 -2.91791e-05 0)
(0.000104585 -2.91374e-05 0)
(0.000116374 -2.90035e-05 0)
(0.000128163 -2.88146e-05 0)
(0.000139924 -2.85884e-05 0)
(0.000151631 -2.83361e-05 0)
(0.000163266 -2.80625e-05 0)
(0.00017481 -2.77696e-05 0)
(0.00018625 -2.74575e-05 0)
(0.000197572 -2.71257e-05 0)
(0.000208767 -2.67745e-05 0)
(0.000219823 -2.64033e-05 0)
(0.00023073 -2.60118e-05 0)
(0.000241477 -2.55994e-05 0)
(0.000252056 -2.51657e-05 0)
(0.000262456 -2.47105e-05 0)
(0.00027267 -2.42338e-05 0)
(0.000282687 -2.37354e-05 0)
(0.000292499 -2.32158e-05 0)
(0.000302095 -2.26751e-05 0)
(0.000311467 -2.21135e-05 0)
(0.000320603 -2.15313e-05 0)
(0.000329494 -2.09284e-05 0)
(0.000338131 -2.03047e-05 0)
(0.000346503 -1.96598e-05 0)
(0.000354602 -1.89937e-05 0)
(0.000362419 -1.83059e-05 0)
(0.000369943 -1.75965e-05 0)
(0.000377165 -1.68654e-05 0)
(0.000384076 -1.61127e-05 0)
(0.000390666 -1.53385e-05 0)
(0.000396926 -1.45427e-05 0)
(0.000402848 -1.37255e-05 0)
(0.000408423 -1.2887e-05 0)
(0.000413641 -1.20274e-05 0)
(0.000418496 -1.11471e-05 0)
(0.000422978 -1.02463e-05 0)
(0.00042708 -9.32575e-06 0)
(0.000430792 -8.38612e-06 0)
(0.000434108 -7.42811e-06 0)
(0.000437019 -6.4525e-06 0)
(0.000439519 -5.46009e-06 0)
(0.000441599 -4.45175e-06 0)
(0.000443254 -3.42834e-06 0)
(0.000444476 -2.39073e-06 0)
(0.000445261 -1.33987e-06 0)
(0.000445601 -2.76768e-07 0)
(0.000445493 7.97598e-07 0)
(0.00044493 1.88233e-06 0)
(0.000443907 2.97622e-06 0)
(0.00044242 4.07822e-06 0)
(0.000440467 5.18753e-06 0)
(0.000438044 6.30315e-06 0)
(0.000435149 7.42385e-06 0)
(0.000431781 8.54828e-06 0)
(0.00042794 9.67502e-06 0)
(0.000423625 1.08025e-05 0)
(0.000418836 1.1929e-05 0)
(0.000413575 1.30527e-05 0)
(0.000407842 1.41715e-05 0)
(0.000401641 1.52836e-05 0)
(0.000394973 1.63869e-05 0)
(0.000387843 1.74796e-05 0)
(0.000380254 1.85599e-05 0)
(0.000372212 1.96262e-05 0)
(0.000363722 2.06769e-05 0)
(0.000354792 2.17106e-05 0)
(0.00034543 2.27258e-05 0)
(0.000335644 2.3721e-05 0)
(0.000325443 2.46948e-05 0)
(0.000314838 2.56454e-05 0)
(0.000303839 2.6571e-05 0)
(0.000292458 2.74698e-05 0)
(0.000280707 2.83397e-05 0)
(0.000268598 2.91786e-05 0)
(0.000256146 2.99844e-05 0)
(0.000243363 3.07551e-05 0)
(0.000230266 3.14887e-05 0)
(0.00021687 3.21838e-05 0)
(0.000203189 3.28387e-05 0)
(0.000189242 3.3452e-05 0)
(0.000175045 3.40224e-05 0)
(0.000160617 3.45488e-05 0)
(0.000145975 3.50306e-05 0)
(0.000131139 3.54669e-05 0)
(0.000116127 3.58569e-05 0)
(0.00010096 3.61998e-05 0)
(8.56573e-05 3.64948e-05 0)
(7.02394e-05 3.67415e-05 0)
(5.47266e-05 3.69396e-05 0)
(3.91398e-05 3.70886e-05 0)
(2.34999e-05 3.71881e-05 0)
(7.82842e-06 3.72375e-05 0)
(-7.854e-06 3.72364e-05 0)
(-2.35255e-05 3.71851e-05 0)
(-3.91655e-05 3.7084e-05 0)
(-5.47527e-05 3.69334e-05 0)
(-7.02659e-05 3.67338e-05 0)
(-8.56842e-05 3.64857e-05 0)
(-0.000100987 3.61895e-05 0)
(-0.000116154 3.58458e-05 0)
(-0.000131166 3.54552e-05 0)
(-0.000146002 3.50185e-05 0)
(-0.000160645 3.45366e-05 0)
(-0.000175073 3.40103e-05 0)
(-0.00018927 3.34408e-05 0)
(-0.000203217 3.28292e-05 0)
(-0.000216897 3.21769e-05 0)
(-0.000230294 3.14849e-05 0)
(-0.000243391 3.07546e-05 0)
(-0.000256173 2.99874e-05 0)
(-0.000268626 2.91849e-05 0)
(-0.000280736 2.83489e-05 0)
(-0.000292488 2.74814e-05 0)
(-0.00030387 2.65845e-05 0)
(-0.000314869 2.566e-05 0)
(-0.000325475 2.47099e-05 0)
(-0.000335674 2.3736e-05 0)
(-0.000345459 2.274e-05 0)
(-0.00035482 2.17237e-05 0)
(-0.000363749 2.06887e-05 0)
(-0.000372237 1.96369e-05 0)
(-0.000380279 1.857e-05 0)
(-0.000387869 1.74899e-05 0)
(-0.000395 1.63981e-05 0)
(-0.000401669 1.52966e-05 0)
(-0.000407872 1.41872e-05 0)
(-0.000413605 1.30717e-05 0)
(-0.000418866 1.19517e-05 0)
(-0.000423654 1.08289e-05 0)
(-0.000427967 9.70508e-06 0)
(-0.000431805 8.58148e-06 0)
(-0.000435168 7.45905e-06 0)
(-0.000438058 6.33886e-06 0)
(-0.000440476 5.22242e-06 0)
(-0.000442425 4.11111e-06 0)
(-0.000443909 3.00579e-06 0)
(-0.000444932 1.90792e-06 0)
(-0.000445498 8.19725e-07 0)
(-0.000445612 -2.5732e-07 0)
(-0.000445277 -1.32253e-06 0)
(-0.0004445 -2.37391e-06 0)
(-0.000443284 -3.4091e-06 0)
(-0.000441634 -4.42722e-06 0)
(-0.000439555 -5.42873e-06 0)
(-0.000437054 -6.41326e-06 0)
(-0.00043414 -7.37987e-06 0)
(-0.00043082 -8.32894e-06 0)
(-0.000427101 -9.26121e-06 0)
(-0.000422991 -1.01758e-05 0)
(-0.0004185 -1.10711e-05 0)
(-0.000413639 -1.19473e-05 0)
(-0.000408416 -1.28047e-05 0)
(-0.000402838 -1.36426e-05 0)
(-0.000396916 -1.44595e-05 0)
(-0.000390656 -1.52546e-05 0)
(-0.000384068 -1.60276e-05 0)
(-0.000377158 -1.67785e-05 0)
(-0.000369936 -1.75077e-05 0)
(-0.000362409 -1.82156e-05 0)
(-0.000354585 -1.89017e-05 0)
(-0.000346475 -1.95652e-05 0)
(-0.000338094 -2.02065e-05 0)
(-0.000329451 -2.08273e-05 0)
(-0.000320558 -2.14281e-05 0)
(-0.000311424 -2.20072e-05 0)
(-0.000302058 -2.25617e-05 0)
(-0.000292468 -2.30903e-05 0)
(-0.000282652 -2.35948e-05 0)
(-0.000272616 -2.40782e-05 0)
(-0.000262372 -2.45423e-05 0)
(-0.000251935 -2.49882e-05 0)
(-0.000241324 -2.54163e-05 0)
(-0.000230553 -2.58256e-05 0)
(-0.000219628 -2.62126e-05 0)
(-0.000208552 -2.65731e-05 0)
(-0.000197325 -2.6905e-05 0)
(-0.00018595 -2.72085e-05 0)
(-0.00017444 -2.74861e-05 0)
(-0.00016281 -2.77431e-05 0)
(-0.000151073 -2.79872e-05 0)
(-0.00013924 -2.82234e-05 0)
(-0.000127318 -2.84494e-05 0)
(-0.000115312 -2.86576e-05 0)
(-0.000103227 -2.88413e-05 0)
(-9.10708e-05 -2.89977e-05 0)
(-7.88525e-05 -2.91286e-05 0)
(-6.65893e-05 -2.92404e-05 0)
(-5.42843e-05 -2.93356e-05 0)
(-4.19195e-05 -2.9403e-05 0)
(-2.95118e-05 -2.94377e-05 0)
(-1.72398e-05 -2.93325e-05 0)
(-5.05779e-06 -2.61453e-05 0)
(4.89888e-06 -5.47149e-05 0)
(1.6357e-05 -3.59487e-05 0)
(3.35033e-05 -3.69333e-05 0)
(4.55012e-05 -3.86477e-05 0)
(5.75002e-05 -3.9901e-05 0)
(6.9269e-05 -4.05709e-05 0)
(8.10681e-05 -4.08784e-05 0)
(9.2902e-05 -4.09779e-05 0)
(0.000104761 -4.09363e-05 0)
(0.000116624 -4.07955e-05 0)
(0.000128466 -4.05817e-05 0)
(0.000140266 -4.03116e-05 0)
(0.000152005 -3.99966e-05 0)
(0.000163666 -3.96437e-05 0)
(0.000175236 -3.92562e-05 0)
(0.000186701 -3.88363e-05 0)
(0.000198049 -3.83848e-05 0)
(0.00020927 -3.79022e-05 0)
(0.000220351 -3.73888e-05 0)
(0.000231284 -3.68447e-05 0)
(0.000242057 -3.62696e-05 0)
(0.000252663 -3.56635e-05 0)
(0.00026309 -3.50263e-05 0)
(0.000273331 -3.4358e-05 0)
(0.000283375 -3.36588e-05 0)
(0.000293213 -3.29291e-05 0)
(0.000302836 -3.21689e-05 0)
(0.000312233 -3.13785e-05 0)
(0.000321395 -3.05579e-05 0)
(0.000330313 -2.97071e-05 0)
(0.000338976 -2.88256e-05 0)
(0.000347376 -2.79135e-05 0)
(0.000355502 -2.69704e-05 0)
(0.000363345 -2.59961e-05 0)
(0.000370897 -2.49905e-05 0)
(0.000378146 -2.39538e-05 0)
(0.000385084 -2.28859e-05 0)
(0.000391701 -2.17871e-05 0)
(0.000397988 -2.06576e-05 0)
(0.000403936 -1.94975e-05 0)
(0.000409537 -1.83072e-05 0)
(0.000414781 -1.7087e-05 0)
(0.000419661 -1.58375e-05 0)
(0.000424168 -1.45591e-05 0)
(0.000428293 -1.32528e-05 0)
(0.000432029 -1.19194e-05 0)
(0.000435367 -1.05598e-05 0)
(0.000438299 -9.17507e-06 0)
(0.000440818 -7.76635e-06 0)
(0.000442918 -6.33472e-06 0)
(0.00044459 -4.88134e-06 0)
(0.00044583 -3.4074e-06 0)
(0.00044663 -1.91425e-06 0)
(0.000446985 -4.03241e-07 0)
(0.000446889 1.12456e-06 0)
(0.000446338 2.66708e-06 0)
(0.000445325 4.22309e-06 0)
(0.000443847 5.79112e-06 0)
(0.000441901 7.36969e-06 0)
(0.000439484 8.95713e-06 0)
(0.000436594 1.05515e-05 0)
(0.000433229 1.21508e-05 0)
(0.000429388 1.3753e-05 0)
(0.000425071 1.53557e-05 0)
(0.000420279 1.69566e-05 0)
(0.000415011 1.85529e-05 0)
(0.00040927 2.01422e-05 0)
(0.000403058 2.17218e-05 0)
(0.000396377 2.32892e-05 0)
(0.000389231 2.48417e-05 0)
(0.000381625 2.63769e-05 0)
(0.000373563 2.78926e-05 0)
(0.000365052 2.93866e-05 0)
(0.000356098 3.08567e-05 0)
(0.000346711 3.23007e-05 0)
(0.000336898 3.37163e-05 0)
(0.000326668 3.51014e-05 0)
(0.000316031 3.64534e-05 0)
(0.000304999 3.77695e-05 0)
(0.000293582 3.90469e-05 0)
(0.000281792 4.02829e-05 0)
(0.000269643 4.14747e-05 0)
(0.000257146 4.26192e-05 0)
(0.000244318 4.37137e-05 0)
(0.000231173 4.47557e-05 0)
(0.000217726 4.57429e-05 0)
(0.000203994 4.66734e-05 0)
(0.000189994 4.75452e-05 0)
(0.000175742 4.83565e-05 0)
(0.000161258 4.91057e-05 0)
(0.000146559 4.97914e-05 0)
(0.000131664 5.04125e-05 0)
(0.000116593 5.09678e-05 0)
(0.000101366 5.14562e-05 0)
(8.60026e-05 5.18765e-05 0)
(7.05235e-05 5.2228e-05 0)
(5.49489e-05 5.25103e-05 0)
(3.92997e-05 5.27227e-05 0)
(2.35969e-05 5.28648e-05 0)
(7.86211e-06 5.2936e-05 0)
(-7.8837e-06 5.29357e-05 0)
(-2.36184e-05 5.28643e-05 0)
(-3.93214e-05 5.27217e-05 0)
(-5.4971e-05 5.25085e-05 0)
(-7.05461e-05 5.22252e-05 0)
(-8.60257e-05 5.18725e-05 0)
(-0.000101389 5.14511e-05 0)
(-0.000116616 5.09619e-05 0)
(-0.000131687 5.04058e-05 0)
(-0.000146581 4.9784e-05 0)
(-0.00016128 4.90977e-05 0)
(-0.000175764 4.83485e-05 0)
(-0.000190015 4.75377e-05 0)
(-0.000204014 4.66672e-05 0)
(-0.000217745 4.57386e-05 0)
(-0.000231191 4.47537e-05 0)
(-0.000244336 4.37145e-05 0)
(-0.000257164 4.26232e-05 0)
(-0.000269661 4.14822e-05 0)
(-0.000281812 4.0294e-05 0)
(-0.000293603 3.90612e-05 0)
(-0.000305022 3.77864e-05 0)
(-0.000316056 3.64723e-05 0)
(-0.000326693 3.51214e-05 0)
(-0.000336923 3.37364e-05 0)
(-0.000346736 3.23197e-05 0)
(-0.000356122 3.08739e-05 0)
(-0.000365074 2.94014e-05 0)
(-0.000373584 2.79049e-05 0)
(-0.000381645 2.63869e-05 0)
(-0.000389251 2.485e-05 0)
(-0.000396397 2.32967e-05 0)
(-0.000403078 2.17295e-05 0)
(-0.00040929 2.0151e-05 0)
(-0.000415031 1.85639e-05 0)
(-0.000420298 1.69705e-05 0)
(-0.000425089 1.53733e-05 0)
(-0.000429403 1.37745e-05 0)
(-0.000433241 1.21758e-05 0)
(-0.000436602 1.05792e-05 0)
(-0.000439489 8.9868e-06 0)
(-0.000441902 7.39991e-06 0)
(-0.000443844 5.82034e-06 0)
(-0.000445319 4.25081e-06 0)
(-0.000446332 2.69318e-06 0)
(-0.000446886 1.14866e-06 0)
(-0.000446986 -3.80556e-07 0)
(-0.000446636 -1.89234e-06 0)
(-0.000445842 -3.38441e-06 0)
(-0.000444606 -4.85569e-06 0)
(-0.000442935 -6.30414e-06 0)
(-0.000440836 -7.72863e-06 0)
(-0.000438315 -9.12978e-06 0)
(-0.000435378 -1.05072e-05 0)
(-0.000432035 -1.18594e-05 0)
(-0.000428295 -1.31858e-05 0)
(-0.000424162 -1.44872e-05 0)
(-0.000419647 -1.57625e-05 0)
(-0.000414761 -1.70096e-05 0)
(-0.000409514 -1.82282e-05 0)
(-0.000403912 -1.94192e-05 0)
(-0.000397962 -2.05818e-05 0)
(-0.000391674 -2.17132e-05 0)
(-0.000385059 -2.28121e-05 0)
(-0.000378123 -2.38795e-05 0)
(-0.000370873 -2.49165e-05 0)
(-0.000363316 -2.59226e-05 0)
(-0.000355464 -2.68965e-05 0)
(-0.000347327 -2.78376e-05 0)
(-0.000338918 -2.8747e-05 0)
(-0.000330247 -2.96262e-05 0)
(-0.000321325 -3.04754e-05 0)
(-0.000312162 -3.12927e-05 0)
(-0.000302766 -3.2076e-05 0)
(-0.000293145 -3.28247e-05 0)
(-0.000283301 -3.35404e-05 0)
(-0.000273239 -3.42255e-05 0)
(-0.000262969 -3.48822e-05 0)
(-0.000252508 -3.55121e-05 0)
(-0.000241871 -3.6115e-05 0)
(-0.000231071 -3.66887e-05 0)
(-0.000220116 -3.72303e-05 0)
(-0.000209005 -3.77376e-05 0)
(-0.000197742 -3.82094e-05 0)
(-0.000186336 -3.86472e-05 0)
(-0.0001748 -3.90551e-05 0)
(-0.000163149 -3.94384e-05 0)
(-0.000151397 -3.98008e-05 0)
(-0.000139548 -4.01439e-05 0)
(-0.000127604 -4.04645e-05 0)
(-0.000115568 -4.0755e-05 0)
(-0.000103448 -4.10063e-05 0)
(-9.12568e-05 -4.12157e-05 0)
(-7.90109e-05 -4.13923e-05 0)
(-6.67236e-05 -4.1548e-05 0)
(-5.43895e-05 -4.168e-05 0)
(-4.19972e-05 -4.17803e-05 0)
(-2.95726e-05 -4.18533e-05 0)
(-1.72934e-05 -4.17122e-05 0)
(-5.09582e-06 -3.71538e-05 0)
(4.35126e-06 -6.3023e-05 0)
(1.53846e-05 -5.02852e-05 0)
(3.14654e-05 -5.01088e-05 0)
(4.41159e-05 -5.12061e-05 0)
(5.6627e-05 -5.21079e-05 0)
(6.88278e-05 -5.26275e-05 0)
(8.0888e-05 -5.28816e-05 0)
(9.28856e-05 -5.29486e-05 0)
(0.000104865 -5.28754e-05 0)
(0.00011682 -5.26964e-05 0)
(0.000128734 -5.24336e-05 0)
(0.000140592 -5.21022e-05 0)
(0.00015238 -5.17128e-05 0)
(0.000164085 -5.1272e-05 0)
(0.000175695 -5.07845e-05 0)
(0.000187198 -5.0253e-05 0)
(0.000198583 -4.96789e-05 0)
(0.000209839 -4.90633e-05 0)
(0.000220957 -4.84068e-05 0)
(0.000231925 -4.77096e-05 0)
(0.000242734 -4.69719e-05 0)
(0.000253375 -4.61939e-05 0)
(0.000263839 -4.53753e-05 0)
(0.000274115 -4.45164e-05 0)
(0.000284194 -4.36172e-05 0)
(0.000294068 -4.2678e-05 0)
(0.000303726 -4.16988e-05 0)
(0.000313158 -4.06798e-05 0)
(0.000322355 -3.9621e-05 0)
(0.000331308 -3.8522e-05 0)
(0.000340007 -3.73828e-05 0)
(0.000348442 -3.62029e-05 0)
(0.000356604 -3.49823e-05 0)
(0.000364484 -3.37209e-05 0)
(0.000372071 -3.24186e-05 0)
(0.000379356 -3.10757e-05 0)
(0.00038633 -2.96923e-05 0)
(0.000392983 -2.82686e-05 0)
(0.000399305 -2.68049e-05 0)
(0.000405288 -2.53016e-05 0)
(0.000410923 -2.3759e-05 0)
(0.000416202 -2.21778e-05 0)
(0.000421115 -2.05584e-05 0)
(0.000425654 -1.89019e-05 0)
(0.000429811 -1.7209e-05 0)
(0.000433577 -1.5481e-05 0)
(0.000436945 -1.3719e-05 0)
(0.000439905 -1.19242e-05 0)
(0.000442452 -1.0098e-05 0)
(0.000444577 -8.24177e-06 0)
(0.000446274 -6.3569e-06 0)
(0.000447536 -4.44491e-06 0)
(0.000448358 -2.50742e-06 0)
(0.000448733 -5.46101e-07 0)
(0.000448656 1.43657e-06 0)
(0.00044812 3.43866e-06 0)
(0.000447122 5.45868e-06 0)
(0.000445658 7.49458e-06 0)
(0.000443723 9.54415e-06 0)
(0.000441315 1.1605e-05 0)
(0.000438431 1.36745e-05 0)
(0.00043507 1.57501e-05 0)
(0.000431231 1.78291e-05 0)
(0.000426913 1.99085e-05 0)
(0.000422117 2.19852e-05 0)
(0.000416843 2.40561e-05 0)
(0.000411092 2.6118e-05 0)
(0.000404867 2.81678e-05 0)
(0.000398171 3.02021e-05 0)
(0.000391007 3.22178e-05 0)
(0.000383379 3.42118e-05 0)
(0.000375294 3.61812e-05 0)
(0.000366757 3.81229e-05 0)
(0.000357775 4.00339e-05 0)
(0.000348356 4.19109e-05 0)
(0.000338509 4.3751e-05 0)
(0.000328242 4.55508e-05 0)
(0.000317566 4.73071e-05 0)
(0.00030649 4.90159e-05 0)
(0.000295027 5.06738e-05 0)
(0.000283188 5.22771e-05 0)
(0.000270985 5.38226e-05 0)
(0.000258433 5.53065e-05 0)
(0.000245546 5.67255e-05 0)
(0.000232339 5.80764e-05 0)
(0.000218829 5.93567e-05 0)
(0.00020503 6.05639e-05 0)
(0.000190961 6.16956e-05 0)
(0.00017664 6.27494e-05 0)
(0.000162083 6.37231e-05 0)
(0.000147311 6.46151e-05 0)
(0.000132341 6.54236e-05 0)
(0.000117194 6.6147e-05 0)
(0.000101889 6.67836e-05 0)
(8.64473e-05 6.73319e-05 0)
(7.08886e-05 6.77906e-05 0)
(5.52339e-05 6.81588e-05 0)
(3.95041e-05 6.84358e-05 0)
(2.37203e-05 6.86211e-05 0)
(7.90363e-06 6.87142e-05 0)
(-7.92422e-06 6.87148e-05 0)
(-2.37408e-05 6.8623e-05 0)
(-3.95253e-05 6.8439e-05 0)
(-5.5256e-05 6.8163e-05 0)
(-7.09114e-05 6.77956e-05 0)
(-8.64706e-05 6.73376e-05 0)
(-0.000101913 6.67898e-05 0)
(-0.000117217 6.61535e-05 0)
(-0.000132364 6.54301e-05 0)
(-0.000147333 6.46212e-05 0)
(-0.000162106 6.37285e-05 0)
(-0.000176661 6.2754e-05 0)
(-0.000190982 6.16995e-05 0)
(-0.000205049 6.05673e-05 0)
(-0.000218846 5.93597e-05 0)
(-0.000232355 5.80791e-05 0)
(-0.000245561 5.67285e-05 0)
(-0.000258448 5.53108e-05 0)
(-0.000271 5.38288e-05 0)
(-0.000283204 5.22859e-05 0)
(-0.000295045 5.06852e-05 0)
(-0.00030651 4.903e-05 0)
(-0.000317588 4.73237e-05 0)
(-0.000328266 4.55696e-05 0)
(-0.000338534 4.3771e-05 0)
(-0.000348382 4.19313e-05 0)
(-0.0003578 4.00538e-05 0)
(-0.000366781 3.81416e-05 0)
(-0.000375317 3.61983e-05 0)
(-0.000383401 3.42271e-05 0)
(-0.000391028 3.22313e-05 0)
(-0.000398191 3.02143e-05 0)
(-0.000404887 2.81794e-05 0)
(-0.000411111 2.61301e-05 0)
(-0.00041686 2.40696e-05 0)
(-0.000422133 2.20007e-05 0)
(-0.000426927 1.99268e-05 0)
(-0.000431242 1.7851e-05 0)
(-0.000435079 1.57753e-05 0)
(-0.000438436 1.37021e-05 0)
(-0.000441317 1.16348e-05 0)
(-0.000443723 9.57593e-06 0)
(-0.000445655 7.52677e-06 0)
(-0.000447117 5.49003e-06 0)
(-0.000448115 3.46954e-06 0)
(-0.000448653 1.46722e-06 0)
(-0.000448734 -5.16001e-07 0)
(-0.000448363 -2.47741e-06 0)
(-0.000447545 -4.413e-06 0)
(-0.000446286 -6.32145e-06 0)
(-0.000444588 -8.20225e-06 0)
(-0.000442462 -1.00537e-05 0)
(-0.000439914 -1.18745e-05 0)
(-0.000436949 -1.36643e-05 0)
(-0.000433578 -1.54222e-05 0)
(-0.000429807 -1.71465e-05 0)
(-0.000425645 -1.88368e-05 0)
(-0.000421099 -2.04927e-05 0)
(-0.00041618 -2.21129e-05 0)
(-0.0004109 -2.36954e-05 0)
(-0.000405265 -2.52393e-05 0)
(-0.000399282 -2.67452e-05 0)
(-0.000392958 -2.82119e-05 0)
(-0.000386304 -2.9637e-05 0)
(-0.000379332 -3.10191e-05 0)
(-0.000372047 -3.23596e-05 0)
(-0.000364456 -3.36603e-05 0)
(-0.000356565 -3.49209e-05 0)
(-0.000348389 -3.61396e-05 0)
(-0.000339944 -3.73159e-05 0)
(-0.00033124 -3.84517e-05 0)
(-0.000322283 -3.9549e-05 0)
(-0.000313081 -4.06065e-05 0)
(-0.000303646 -4.16209e-05 0)
(-0.000293986 -4.25906e-05 0)
(-0.000284105 -4.35166e-05 0)
(-0.000274008 -4.44016e-05 0)
(-0.000263706 -4.52485e-05 0)
(-0.000253214 -4.60601e-05 0)
(-0.000242545 -4.68368e-05 0)
(-0.00023171 -4.75756e-05 0)
(-0.000220717 -4.82738e-05 0)
(-0.000209569 -4.89317e-05 0)
(-0.00019827 -4.95511e-05 0)
(-0.00018683 -5.01321e-05 0)
(-0.000175263 -5.06752e-05 0)
(-0.000163585 -5.11832e-05 0)
(-0.000151806 -5.16585e-05 0)
(-0.000139929 -5.21002e-05 0)
(-0.000127952 -5.25044e-05 0)
(-0.000115874 -5.28655e-05 0)
(-0.000103707 -5.31777e-05 0)
(-9.14734e-05 -5.3443e-05 0)
(-7.91993e-05 -5.36749e-05 0)
(-6.68893e-05 -5.38829e-05 0)
(-5.45269e-05 -5.40597e-05 0)
(-4.21082e-05 -5.41998e-05 0)
(-2.96633e-05 -5.43024e-05 0)
(-1.73644e-05 -5.41167e-05 0)
(-5.13238e-06 -4.81929e-05 0)
(4.31191e-06 -7.23326e-05 0)
(1.53973e-05 -6.42644e-05 0)
(3.04416e-05 -6.35846e-05 0)
(4.33676e-05 -6.40705e-05 0)
(5.608e-05 -6.45802e-05 0)
(6.85013e-05 -6.49168e-05 0)
(8.07524e-05 -6.5079e-05 0)
(9.29129e-05 -6.50753e-05 0)
(0.000105017 -6.49387e-05 0)
(0.000117069 -6.46961e-05 0)