/*--------------------------------*- C++ -*----------------------------------*\
| =========                 |                                                 |
| \\      /  F ield         | OpenFOAM: The Open Source CFD Toolbox           |
|  \\    /   O peration     | Version:  2412                                  |
|   \\  /    A nd           | Website:  www.openfoam.com                      |
|    \\/     M anipulation  |                                                 |
\*---------------------------------------------------------------------------*/
FoamFile
{
    version     2.0;
    format      ascii;
    arch        "LSB;label=32;scalar=64";
    class       volScalarField;
    location    "1.01";
    object      alpha.water;
}
// * * * * * * * * * * * * * * * * * * * * * * * * * * * * * * * * * * * * * //

dimensions      [0 0 0 0 0 0 0];

internalField   nonuniform List<scalar> 
40000
(
0
0
0
0
0
0
0
0
0
0
0
0
0
0
0
0
0
0
0
0
0
0
0
0
0
0
0
0
0
0
0
0
0
0
0
0
0
0
0
0
0
0
0
0
0
0
0
0
0
0
0
0
0
0
0
0
0
0
0
0
0
0
0
0
0
0
0
0
0
0
0
0
0
0
0
0
0
0
0
0
0
0
0
0
0
0
0
0
0
0
0
0
0
0
0
0
0
0
0
0
0
0
0
0
0
0
0
0
0
0
0
0
0
0
0
0
0
0
0
0
0
0
0
0
0
0
0
0
0
0
0
0
0
0
0
0
0
0
0
0
0
0
0
0
0
0
0
0
0
0
0
0
0
0
0
0
0
0
0
0
0
0
0
0
0
0
0
0
0
0
0
0
0
0
0
0
0
0
0
0
0
0
0
0
0
0
0
0
0
0
0
0
0
0
0
0
0
0
0
0
1.80112e-317
0
0
0
0
0
0
0
0
0
0
0
0
0
0
0
0
0
0
0
0
0
0
0
0
0
0
0
0
0
0
0
0
0
0
0
0
0
0
0
0
0
0
0
0
0
0
0
0
0
0
0
0
0
0
0
0
0
0
0
0
0
0
0
0
0
0
0
0
0
0
0
0
0
0
0
0
0
0
0
0
0
0
0
0
0
0
0
0
0
0
0
0
0
0
0
0
0
0
0
0
0
0
0
0
0
0
0
0
0
0
0
0
0
0
0
0
0
0
0
0
0
0
0
0
0
0
0
0
0
0
0
0
0
0
0
0
0
0
0
0
0
0
0
0
0
0
0
0
0
0
0
0
0
0
0
0
0
0
0
0
0
0
0
0
0
0
0
0
0
0
0
0
0
0
0
0
0
0
0
0
0
0
0
0
0
0
0
0
0
0
0
0
0
0
0
0
0
0
0
1.09218e-313
0
2.88187e-316
7.74487e-316
1.24276e-315
1.56694e-315
1.76504e-315
1.78303e-315
1.67495e-315
1.49484e-315
1.2787e-315
1.06257e-315
8.46447e-316
6.66345e-316
5.04255e-316
3.60179e-316
2.52122e-316
1.80085e-316
1.0805e-316
7.20327e-317
3.6016e-317
1.80078e-317
1.80076e-317
0
0
0
0
0
0
0
0
0
0
0
0
0
0
0
0
0
0
0
0
0
0
0
0
0
0
0
0
0
0
0
0
0
0
0
0
0
0
0
0
0
0
0
0
0
0
0
0
0
0
0
0
0
0
0
0
0
0
0
0
0
0
0
0
0
0
0
0
0
0
0
0
0
0
0
0
0
0
0
0
0
0
0
0
0
0
0
0
0
0
0
0
0
0
0
0
0
0
0
0
0
0
0
0
0
0
0
0
0
0
0
0
0
0
0
0
0
0
0
0
0
0
0
0
0
0
0
0
0
0
0
0
0
0
0
0
0
0
0
0
0
0
0
0
0
0
0
0
0
0
0
0
0
0
1.80077e-317
1.80078e-317
3.60161e-317
7.20329e-317
1.0805e-316
1.80086e-316
2.70132e-316
3.78189e-316
5.22266e-316
7.02366e-316
9.18489e-316
1.15263e-315
1.4408e-315
1.74699e-315
2.08921e-315
2.43144e-315
2.75566e-315
3.07989e-315
3.36811e-315
3.62031e-315
3.81849e-315
3.80052e-315
1.08073e-316
1.02708e-309
1.60833e-311
2.35482e-311
3.28746e-311
4.19339e-311
4.80243e-311
5.06028e-311
4.95237e-311
4.60644e-311
4.114e-311
3.54705e-311
2.96067e-311
2.39605e-311
1.88066e-311
1.43145e-311
1.05574e-311
7.53506e-312
5.19764e-312
3.45777e-312
2.21417e-312
1.3611e-312
8.01015e-313
4.49916e-313
2.40361e-313
1.21674e-313
5.81265e-314
2.60919e-314
1.0948e-314
4.26754e-315
1.53054e-315
5.04174e-316
1.44049e-316
3.60119e-317
1.80058e-317
0
0
0
0
0
0
0
0
0
0
0
0
0
0
0
0
0
0
0
0
0
0
0
0
0
0
0
0
0
0
0
0
0
0
0
0
0
0
0
0
0
0
0
0
0
0
0
0
0
0
0
0
0
0
0
0
0
0
0
0
0
0
0
0
0
0
0
0
0
0
0
0
0
0
0
0
0
0
0
0
0
0
0
0
0
0
0
0
0
0
0
0
0
0
0
0
0
0
0
0
0
0
0
0
0
0
0
0
0
0
0
0
0
0
0
0
0
0
0
0
0
0
0
0
0
0
0
0
0
0
0
0
1.80059e-317
3.6012e-317
1.62055e-316
5.22181e-316
1.58456e-315
4.37558e-315
1.12362e-314
2.67581e-314
5.95491e-314
1.24465e-313
2.45512e-313
4.59515e-313
8.1969e-313
1.39816e-312
2.28574e-312
3.58864e-312
5.42384e-312
7.91156e-312
1.11713e-311
1.53059e-311
2.0391e-311
2.64499e-311
3.34411e-311
4.12715e-311
4.97834e-311
5.87733e-311
6.79987e-311
7.71509e-311
8.58243e-311
9.35273e-311
1.00004e-310
1.05235e-310
1.04609e-310
2.99299e-312
9.00995e-306
8.33843e-307
8.23076e-307
9.359e-307
1.04435e-306
1.10504e-306
1.10849e-306
1.06158e-306
9.77861e-307
8.70791e-307
7.51834e-307
6.3029e-307
5.13406e-307
4.06256e-307
3.12165e-307
2.32699e-307
1.68048e-307
1.17414e-307
7.91993e-308
5.14758e-308
3.21524e-308
1.92481e-308
1.10107e-308
5.99831e-309
3.10049e-309
1.51446e-309
6.95905e-310
2.99321e-310
1.19841e-310
4.43891e-311
1.51065e-311
4.68739e-312
1.31471e-312
3.30098e-313
7.33727e-314
1.42603e-314
2.39472e-315
3.421e-316
3.60104e-317
0
0
0
0
0
0
0
0
0
0
0
0
0
0
0
0
0
0
0
0
0
0
0
0
0
0
0
0
0
0
0
0
0
0
0
0
0
0
0
0
0
0
0
0
0
0
0
0
0
0
0
0
0
0
0
0
0
0
0
0
0
0
0
0
0
0
0
0
0
0
0
0
0
0
0
0
0
0
0
0
0
0
0
0
0
0
0
0
0
0
0
0
0
0
0
0
0
0
0
0
0
0
0
0
0
0
0
0
0
0
0
0
0
0
0
0
0
0
0
0
0
0
3.60104e-317
3.60106e-316
2.53876e-315
1.51066e-314
7.7226e-314
3.45818e-313
1.3724e-312
4.88148e-312
1.57085e-311
4.6105e-311
1.24349e-310
3.1031e-310
7.20878e-310
1.56751e-309
3.20647e-309
6.2007e-309
1.139e-308
1.99579e-308
3.34679e-308
5.38374e-308
8.32564e-308
1.24091e-307
1.78728e-307
2.49496e-307
3.38301e-307
4.46398e-307
5.73885e-307
7.19497e-307
8.81002e-307
1.05513e-306
1.238e-306
1.42482e-306
1.60884e-306
1.78156e-306
1.93457e-306
2.06465e-306
2.1692e-306
2.15407e-306
6.39883e-308
7.57282e-302
2.03339e-302
1.84409e-302
1.91809e-302
1.98771e-302
2.00028e-302
1.9468e-302
1.83378e-302
1.67541e-302
1.4877e-302
1.28551e-302
1.08145e-302
8.85808e-303
7.06038e-303
5.47244e-303
4.12015e-303
3.00876e-303
2.12814e-303
1.45481e-303
9.59321e-304
6.0861e-304
3.70498e-304
2.15782e-304
1.19834e-304
6.32293e-305
3.15712e-305
1.48515e-305
6.54965e-306
2.69317e-306
1.0263e-306
3.60018e-307
1.15381e-307
3.34993e-308
8.72746e-309
2.01841e-309
4.0933e-310
7.17745e-311
1.0707e-311
1.33347e-312
1.35632e-313
1.0983e-314
6.84185e-316
3.60096e-317
0
0
0
0
0
0
0
0
0
0
0
0
0
0
0
0
0
0
0
0
0
0
0
0
0
0
0
0
0
0
0
0
0
0
0
0
0
0
0
0
0
0
0
0
0
0
0
0
0
0
0
0
0
0
0
0
0
0
0
0
0
0
0
0
0
0
0
0
0
0
0
0
0
0
0
0
0
0
0
0
0
0
0
0
0
0
0
0
0
0
0
0
0
0
0
0
0
0
0
0
0
0
0
0
0
0
0
0
0
0
0
0
0
0
3.60096e-317
7.74209e-316
1.22073e-314
1.48901e-313
1.44827e-312
1.15301e-311
7.67702e-311
4.3539e-310
2.13648e-309
9.1976e-309
3.51801e-308
1.20892e-307
3.76708e-307
1.07284e-306
2.81262e-306
6.8337e-306
1.54835e-305
3.28988e-305
6.58773e-305
1.24886e-304
2.25118e-304
3.87414e-304
6.3862e-304
1.01091e-303
1.54025e-303
2.26466e-303
3.2214e-303
4.44573e-303
5.96482e-303
7.79436e-303
9.93039e-303
1.23461e-302
1.50004e-302
1.78391e-302
2.08027e-302
2.3813e-302
2.6755e-302
2.94962e-302
3.19297e-302
3.40148e-302
3.56772e-302
3.53882e-302
1.09058e-303
6.1056e-298
3.41969e-298
3.05285e-298
3.04485e-298
3.03244e-298
2.96404e-298
2.8299e-298
2.63565e-298
2.3944e-298
2.12258e-298
1.83642e-298
1.5504e-298
1.27682e-298
1.02483e-298
8.01016e-299
6.0892e-299
4.4951e-299
3.21774e-299
2.22864e-299
1.49063e-299
9.6031e-300
5.94344e-300
3.52353e-300
1.99441e-300
1.074e-300
5.48078e-301
2.63892e-301
1.19304e-301
5.03738e-302
1.97465e-302
7.13902e-303
2.36287e-303
7.1006e-304
1.91934e-304
4.61769e-305
9.77005e-306
1.79306e-306
2.80961e-307
3.69031e-308
3.97639e-309
3.4266e-310
2.29067e-311
1.1449e-312
4.08886e-314
9.90254e-316
1.80046e-317
0
0
0
0
0
0
0
0
0
0
0
0
0
0
0
0
0
0
0
0
0
0
0
0
0
0
0
0
0
0
0
0
0
0
0
0
0
0
0
0
0
0
0
0
0
0
0
0
0
0
0
0
0
0
0
0
0
0
0
0
0
0
0
0
0
0
0
0
0
0
0
0
0
0
0
0
0
0
0
0
0
0
0
0
0
0
0
0
0
0
0
0
0
0
0
0
0
0
0
0
0
0
0
0
0
0
0
0
1.80046e-317
1.26032e-315
4.94408e-314
1.33357e-312
2.60073e-311
3.8214e-310
4.3764e-309
4.01986e-308
3.03519e-307
1.92405e-306
1.04271e-305
4.90586e-305
2.03095e-304
7.48874e-304
2.48638e-303
7.50184e-303
2.07302e-302
5.28362e-302
1.25026e-301
2.76355e-301
5.73791e-301
1.12458e-300
2.08962e-300
3.69627e-300
6.24798e-300
1.01256e-299
1.57747e-299
2.36833e-299
3.43557e-299
4.82707e-299
6.58614e-299
8.74299e-299
1.13115e-298
1.42788e-298
1.76025e-298
2.12233e-298
2.5068e-298
2.90578e-298
3.30832e-298
3.69858e-298
4.06053e-298
4.38291e-298
4.65977e-298
4.87831e-298
4.83272e-298
1.54414e-299
4.69349e-294
4.49551e-294
4.04805e-294
3.95465e-294
3.8519e-294
3.70149e-294
3.49294e-294
3.23055e-294
2.92544e-294
2.59264e-294
2.24773e-294
1.9052e-294
1.57781e-294
1.27534e-294
1.00515e-294
7.71429e-295
5.75603e-295
4.16937e-295
2.92535e-295
1.98433e-295
1.29796e-295
8.16597e-296
4.92719e-296
2.84213e-296
1.5618e-296
8.1445e-297
4.01319e-297
1.85969e-297
8.06178e-298
3.25036e-298
1.21094e-298
4.13867e-299
1.28713e-299
3.60944e-300
9.03279e-301
1.99372e-301
3.82936e-302
6.30225e-303
8.72919e-304
9.96393e-305
9.14296e-306
6.54725e-307
3.52984e-308
1.37095e-309
3.62986e-311
6.10514e-313
5.94148e-315
3.60089e-317
0
0
0
0
0
0
0
0
0
0
0
0
0
0
0
0
0
0
0
0
0
0
0
0
0
0
0
0
0
0
0
0
0
0
0
0
0
0
0
0
0
0
0
0
0
0
0
0
0
0
0
0
0
0
0
0
0
0
0
0
0
0
0
0
0
0
0
0
0
0
0
0
0
0
0
0
0
0
0
0
0
0
0
0
0
0
0
0
0
0
0
0
0
0
0
0
0
0
0
0
0
0
0
0
5.40134e-317
9.45235e-315
8.41458e-313
4.60229e-311
1.6498e-309
4.10275e-308
7.4294e-307
1.02004e-305
1.09779e-304
9.52333e-304
6.82063e-303
4.11724e-302
2.13242e-301
9.62028e-301
3.83002e-300
1.36155e-299
4.36808e-299
1.27623e-298
3.42229e-298
8.48093e-298
1.95467e-297
4.21519e-297
8.55246e-297
1.64064e-296
2.9882e-296
5.18727e-296
8.61315e-296
1.37242e-295
2.10442e-295
3.11349e-295
4.45639e-295
6.18479e-295
8.34264e-295
1.09563e-294
1.40327e-294
1.75496e-294
2.14528e-294
2.56726e-294
3.0124e-294
3.47117e-294
3.93032e-294
4.37221e-294
4.78134e-294
5.14648e-294
5.45903e-294
5.70286e-294
5.64212e-294
1.87004e-295
3.42047e-290
4.93704e-290
4.49628e-290
4.35019e-290
4.1885e-290
3.98659e-290
3.7371e-290
3.44346e-290
3.11461e-290
2.7631e-290
2.40241e-290
2.04544e-290
1.70396e-290
1.38724e-290
1.10256e-290
8.54306e-291
6.44275e-291
4.722e-291
3.35599e-291
2.30849e-291
1.533e-291
9.80311e-292
6.01957e-292
3.53812e-292
1.98379e-292
1.05702e-292
5.32961e-293
2.53111e-293
1.12639e-293
4.67036e-294
1.7928e-294
6.32643e-295
2.03601e-295
5.92253e-296
1.54152e-296
3.54906e-297
7.13336e-298
1.23292e-298
1.80062e-299
2.17698e-300
2.12682e-301
1.63118e-302
9.48415e-304
4.00501e-305
1.16425e-306
2.17567e-308
2.38943e-310
1.36594e-312
3.42083e-315
0
0
0
0
0
0
0
0
0
0
0
0
0
0
0
0
0
0
0
0
0
0
0
0
0
0
0
0
0
0
0
0
0
0
0
0
0
0
0
0
0
0
0
0
0
0
0
0
0
0
0
0
0
0
0
0
0
0
0
0
0
0
0
0
0
0
0
0
0
0
0
0
0
0
0
0
0
0
0
0
0
0
0
0
0
0
0
0
0
0
0
0
0
0
0
0
0
0
0
0
0
1.80044e-317
1.05866e-314
2.65809e-312
3.67594e-310
2.94426e-308
1.46118e-306
4.79305e-305
1.09921e-303
1.84838e-302
2.37149e-301
2.39872e-300
1.96566e-299
1.33566e-298
7.67881e-298
3.80114e-297
1.64448e-296
6.29702e-296
2.15853e-295
6.69203e-295
1.89338e-294
4.92688e-294
1.18721e-293
2.66561e-293
5.60918e-293
1.11225e-292
2.08832e-292
3.728e-292
6.35072e-292
1.0359e-291
1.62309e-291
2.44988e-291
3.57211e-291
5.0448e-291
6.91566e-291
9.22221e-291
1.19818e-290
1.5192e-290
1.88233e-290
2.28184e-290
2.71074e-290
3.16029e-290
3.62005e-290
4.0761e-290
4.51213e-290
4.91555e-290
5.27553e-290
5.58171e-290
5.81757e-290
5.74903e-290
1.97839e-291
2.35466e-286
4.68663e-286
4.3166e-286
4.15893e-286
3.98177e-286
3.77118e-286
3.52358e-286
3.24216e-286
2.93375e-286
2.6081e-286
2.27581e-286
1.94726e-286
1.63227e-286
1.33872e-286
1.07309e-286
8.39497e-287
6.39901e-287
4.74536e-287
3.41613e-287
2.38281e-287
1.60636e-287
1.04403e-287
6.52364e-288
3.90682e-288
2.23483e-288
1.21656e-288
6.27608e-289
3.05437e-289
1.3952e-289
5.9485e-290
2.3525e-290
8.57023e-291
2.85376e-291
8.60999e-292
2.33051e-292
5.59608e-293
1.17686e-293
2.13588e-294
3.2886e-295
4.21069e-296
4.37894e-297
3.59625e-298
2.25445e-299
1.0348e-300
3.30159e-302
6.85227e-304
8.48258e-306
5.57112e-308
1.64628e-310
1.71347e-313
3.60087e-317
0
0
0
0
0
0
0
0
0
0
0
0
0
0
0
0
0
0
0
0
0
0
0
0
0
0
0
0
0
0
0
0
0
0
0
0
0
0
0
0
0
0
0
0
0
0
0
0
0
0
0
0
0
0
0
0
0
0
0
0
0
0
0
0
0
0
0
0
0
0
0
0
0
0
0
0
0
0
0
0
0
0
0
0
0
0
0
0
0
0
0
0
0
0
0
0
0
0
1.56638e-315
1.10069e-312
4.54621e-310
1.02339e-307
1.26556e-305
9.11482e-304
4.10245e-302
1.2313e-300
2.60452e-299
4.06788e-298
4.87775e-297
4.63729e-296
3.59009e-295
2.31494e-294
1.2678e-293
5.99909e-293
2.48898e-292
9.16728e-292
3.03037e-291
9.08016e-291
2.4881e-290
6.28337e-290
1.47239e-289
3.22093e-289
6.61431e-289
1.28181e-288
2.35541e-288
4.12091e-288
6.88892e-288
1.10397e-287
1.70115e-287
2.52796e-287
3.63299e-287
5.06274e-287
6.8552e-287
9.03723e-287
1.16158e-286
1.45807e-286
1.78999e-286
2.15213e-286
2.53831e-286
2.94031e-286
3.34789e-286
3.74839e-286
4.12914e-286
4.48114e-286
4.79473e-286
5.05975e-286
5.26141e-286
5.19531e-286
1.85662e-287
1.52803e-282
3.93288e-282
3.65932e-282
3.52094e-282
3.36313e-282
3.17882e-282
2.96706e-282
2.73079e-282
2.47503e-282
2.20676e-282
1.93367e-282
1.66342e-282
1.40343e-282
1.15979e-282
9.37729e-283
7.40728e-283
5.70693e-283
4.28217e-283
3.12243e-283
2.20843e-283
1.51133e-283
9.98279e-284
6.34711e-284
3.87258e-284
2.25987e-284
1.25671e-284
6.63264e-285
3.30742e-285
1.55058e-285
6.79711e-286
2.76908e-286
1.04131e-286
3.58719e-287
1.12238e-287
3.15888e-288
7.90992e-289
1.74024e-289
3.3159e-290
5.38157e-291
7.29586e-292
8.075e-293
7.09948e-294
4.79722e-295
2.39263e-296
8.37512e-298
1.92957e-299
2.69087e-301
2.02889e-303
7.05939e-306
8.96621e-309
2.85994e-312
1.2603e-316
0
0
0
0
0
0
0
0
0
0
0
0
0
0
0
0
0
0
0
0
0
0
0
0
0
0
0
0
0
0
0
0
0
0
0
0
0
0
0
0
0
0
0
0
0
0
0
0
0
0
0
0
0
0
0
0
0
0
0
0
0
0
0
0
0
0
0
0
0
0
0
0
0
0
0
0
0
0
0
0
0
0
0
0
0
0
0
0
0
0
0
0
0
0
0
5.40131e-317
6.96406e-314
7.18552e-311
4.7102e-308
1.76096e-305
3.53804e-303
3.90411e-301
2.52625e-299
1.03084e-297
2.8307e-296
5.52353e-295
8.01477e-294
8.98366e-293
8.02862e-292
5.87281e-291
3.59418e-290
1.87545e-289
8.48437e-289
3.37607e-288
1.19612e-287
3.81343e-287
1.10455e-286
2.93166e-286
7.18555e-286
1.63751e-285
3.49026e-285
6.99526e-285
1.32499e-284
2.38292e-284
4.08575e-284
6.7026e-284
1.05536e-283
1.59967e-283
2.34081e-283
3.31614e-283
4.56015e-283
6.09885e-283
7.94803e-283
1.01066e-282
1.25605e-282
1.52805e-282
1.82238e-282
2.13402e-282
2.45587e-282
2.77913e-282
3.09404e-282
3.39207e-282
3.66731e-282
3.91193e-282
4.11742e-282
4.27235e-282
4.21646e-282
1.56379e-283
9.34801e-279
2.96196e-278
2.78136e-278
2.67685e-278
2.55591e-278
2.41541e-278
2.25562e-278
2.07901e-278
1.88902e-278
1.69033e-278
1.48807e-278
1.28744e-278
1.09356e-278
9.10749e-279
7.42838e-279
5.92526e-279
4.61445e-279
3.5034e-279
2.58749e-279
1.85564e-279
1.28906e-279
8.65307e-280
5.59775e-280
3.47935e-280
2.07113e-280
1.17647e-280
6.35163e-281
3.24498e-281
1.5612e-281
7.03554e-282
2.95218e-282
1.14581e-282
4.08298e-283
1.32464e-283
3.8759e-284
1.01192e-284
2.32866e-285
4.65756e-286
7.96622e-287
1.14328e-287
1.34636e-288
1.26686e-289
9.22412e-291
4.99709e-292
1.91821e-293
4.9034e-295
7.69815e-297
6.65809e-299
2.72479e-301
4.21661e-304
1.72864e-307
9.99108e-312
1.80042e-317
0
0
0
0
0
0
0
0
0
0
0
0
0
0
0
0
0
0
0
0
0
0
0
0
0
0
0
0
0
0
0
0
0
0
0
0
0
0
0
0
0
0
0
0
0
0
0
0
0
0
0
0
0
0
0
0
0
0
0
0
0
0
0
0
0
0
0
0
0
0
0
0
0
0
0
0
0
0
0
0
0
0
0
0
0
0
0
0
0
0
0
0
0
1.15228e-315
2.20592e-312
3.13415e-309
3.05655e-306
1.84667e-303
6.20517e-301
1.10799e-298
1.08899e-296
6.32683e-295
2.34005e-293
5.87892e-292
1.05839e-290
1.42715e-289
1.49575e-288
1.25679e-287
8.68732e-287
5.04704e-286
2.5098e-285
1.08572e-284
4.14394e-284
1.41235e-283
4.34314e-283
1.21619e-282
3.12716e-282
7.43991e-282
1.64899e-281
3.42488e-281
6.70019e-281
1.24058e-280
2.1838e-280
3.66971e-280
5.90795e-280
9.14093e-280
1.3631e-279
1.96445e-279
2.74362e-279
3.72312e-279
4.91815e-279
6.33585e-279
7.97067e-279
9.80876e-279
1.18266e-278
1.39916e-278
1.62657e-278
1.85941e-278
2.09117e-278
2.31535e-278
2.52675e-278
2.72156e-278
2.89414e-278
3.03813e-278
3.14637e-278
3.10362e-278
1.19376e-279
5.39356e-275
2.02543e-274
1.91753e-274
1.84757e-274
1.76548e-274
1.67008e-274
1.562e-274
1.443e-274
1.31528e-274
1.18177e-274
1.04563e-274
9.10093e-275
7.78432e-275
6.53442e-275
5.37707e-275
4.3313e-275
3.40967e-275
2.61937e-275
1.95949e-275
1.42486e-275
1.00471e-275
6.85354e-276
4.51076e-276
2.85601e-276
1.73404e-276
1.00604e-276
5.55555e-277
2.90758e-277
1.43539e-277
6.64911e-278
2.87334e-278
1.15086e-278
4.24142e-279
1.42659e-279
4.33893e-280
1.1809e-280
2.84191e-281
5.96536e-282
1.07503e-282
1.63285e-283
2.04541e-284
2.05919e-285
1.61501e-286
9.49946e-288
3.99701e-289
1.13297e-290
2.00108e-292
1.98353e-294
9.53643e-297
1.79505e-299
9.43367e-303
7.6392e-307
2.71646e-312
0
0
0
0
0
0
0
0
0
0
0
0
0
0
0
0
0
0
0
0
0
0
0
0
0
0
0
0
0
0
0
0
0
0
0
0
0
0
0
0
0
0
0
0
0
0
0
0
0
0
0
0
0
0
0
0
0
0
0
0
0
0
0
0
0
0
0
0
0
0
0
0
0
0
0
0
0
0
0
0
0
0
0
0
0
0
0
0
0
0
0
1.80041e-317
2.45938e-314
5.18659e-311
9.67083e-308
1.31793e-304
1.20794e-301
6.67533e-299
2.00202e-296
3.16471e-294
2.76619e-292
1.44234e-290
4.83509e-289
1.11138e-287
1.84629e-286
2.31422e-285
2.26864e-284
1.79268e-283
1.17119e-282
6.46034e-282
3.06233e-281
1.26703e-280
4.63921e-280
1.52113e-279
4.51211e-279
1.22171e-278
3.04385e-278
7.03057e-278
1.51572e-277
3.06794e-277
5.85919e-277
1.06065e-276
1.82778e-276
3.01053e-276
4.75674e-276
7.23244e-276
1.06112e-275
1.50622e-275
2.07402e-275
2.77742e-275
3.62384e-275
4.615e-275
5.74422e-275
7.00014e-275
8.36564e-275
9.81785e-275
1.13302e-274
1.28651e-274
1.43809e-274
1.5839e-274
1.72088e-274
1.84661e-274
1.95744e-274
2.04925e-274
2.11843e-274
2.08826e-274
8.32986e-276
2.93744e-271
1.26897e-270
1.21005e-270
1.16776e-270
1.11753e-270
1.05899e-270
9.92666e-271
9.19694e-271
8.41364e-271
7.59356e-271
6.75482e-271
5.91598e-271
5.09627e-271
4.31241e-271
3.58045e-271
2.91267e-271
2.31781e-271
1.80167e-271
1.36512e-271
1.00647e-271
7.2034e-272
4.99305e-272
3.34319e-272
2.15607e-272
1.33509e-272
7.91051e-273
4.46767e-273
2.39504e-273
1.21308e-273
5.77544e-274
2.56997e-274
1.0621e-274
4.04771e-275
1.41121e-275
4.4607e-276
1.26534e-276
3.18385e-277
7.0122e-278
1.33113e-278
2.13921e-279
2.84959e-280
3.06834e-281
2.59119e-282
1.65411e-283
7.6249e-285
2.39517e-286
4.75565e-288
5.39735e-290
3.04462e-292
6.95808e-295
4.67435e-298
5.27636e-302
3.12515e-307
2.75463e-315
0
0
0
0
0
0
0
0
0
0
0
0
0
0
0
0
0
0
0
0
0
0
0
0
0
0
0
0
0
0
0
0
0
0
0
0
0
0
0
0
0
0
0
0
0
0
0
0
0
0
0
0
0
0
0
0
0
0
0
0
0
0
0
0
0
0
0
0
0
0
0
0
0
0
0
0
0
0
0
0
0
0
0
0
0
0
0
0
0
2.52055e-316
5.09945e-313
1.06202e-309
2.21201e-306
3.99956e-303
5.20582e-300
4.45714e-297
2.23514e-294
5.94395e-292
8.28974e-290
6.43585e-288
3.0111e-286
9.1499e-285
1.92455e-283
2.95082e-282
3.43926e-281
3.15479e-280
2.34525e-279
1.44849e-278
7.58748e-278
3.42909e-277
1.35728e-276
4.76834e-276
1.50428e-275
4.30464e-275
1.12715e-274
2.72168e-274
6.10452e-274
1.28037e-273
2.52588e-273
4.70983e-273
8.33688e-273
1.40664e-272
2.27117e-272
3.52204e-272
5.2626e-272
7.59698e-272
1.06218e-271
1.44206e-271
1.90581e-271
2.45618e-271
3.09233e-271
3.80845e-271
4.59644e-271
5.44497e-271
6.33911e-271
7.26183e-271
8.19043e-271
9.10132e-271
9.9733e-271
1.07887e-270
1.1533e-270
1.21845e-270
1.2721e-270
1.31268e-270
1.29297e-270
5.35086e-272
1.51186e-267
7.33664e-267
7.04067e-267
6.80697e-267
6.52655e-267
6.1984e-267
5.82594e-267
5.4156e-267
4.97431e-267
4.51098e-267
4.03518e-267
3.55677e-267
3.08624e-267
2.63282e-267
2.20568e-267
1.81214e-267
1.45772e-267
1.14652e-267
8.79867e-268
6.57703e-268
4.77759e-268
3.36481e-268
2.29183e-268
1.50535e-268
9.50591e-269
5.75149e-269
3.32179e-269
1.82382e-269
9.4764e-270
4.6364e-270
2.12412e-270
9.05627e-271
3.56844e-271
1.28937e-271
4.2348e-272
1.25175e-272
3.29241e-273
7.60649e-274
1.52061e-274
2.58483e-275
3.66027e-276
4.21386e-277
3.83012e-278
2.65225e-279
1.33869e-280
4.65706e-282
1.03863e-283
1.34827e-285
8.9111e-288
2.4677e-290
2.11261e-293
3.30602e-297
3.2205e-302
8.01834e-310
1.65637e-315
0
0
0
0
0
0
0
0
0
0
0
0
0
0
0
0
0
0
0
0
0
0
0
0
0
0
0
0
0
0
0
0
0
0
0
0
0
0
0
0
0
0
0
0
0
0
0
0
0
0
0
0
0
0
0
0
0
0
0
0
0
0
0
0
0
0
0
0
0
0
0
0
0
0
0
0
0
0
0
0
0
0
0
0
0
0
0
5.00502e-315
1.03295e-311
2.12415e-308
4.36474e-305
8.97112e-302
1.56768e-298
1.93983e-295
1.54128e-292
6.95674e-290
1.63057e-287
2.00061e-285
1.37825e-283
5.78593e-282
1.59425e-280
3.06945e-279
4.34469e-278
4.71013e-277
4.04441e-276
2.8296e-275
1.65262e-274
8.22223e-274
3.54354e-273
1.3421e-272
4.52501e-272
1.37371e-271
3.7927e-271
9.6055e-271
2.24839e-270
4.89821e-270
9.99685e-270
1.92238e-269
3.49997e-269
6.05844e-269
1.00096e-268
1.58443e-268
2.41169e-268
3.5414e-268
5.03038e-268
6.92831e-268
9.27501e-268
1.20979e-267
1.54018e-267
1.91716e-267
2.33652e-267
2.79308e-267
3.27995e-267
3.78809e-267
4.30758e-267
4.82611e-267
5.33163e-267
5.81327e-267
6.26125e-267
6.66746e-267
7.02024e-267
7.30979e-267
7.52894e-267
7.41054e-267
3.18212e-268
7.36354e-264
3.93753e-263
3.8e-263
3.68092e-263
3.53681e-263
3.36747e-263
3.17471e-263
2.9618e-263
2.73214e-263
2.49006e-263
2.24027e-263
1.98762e-263
1.73739e-263
1.4943e-263
1.26323e-263
1.04817e-263
8.52334e-264
6.78298e-264
5.27204e-264
3.99533e-264
2.94542e-264
2.10762e-264
1.46017e-264
9.76722e-265
6.28913e-265
3.88529e-265
2.29446e-265
1.29007e-265
6.87547e-266
3.45636e-266
1.63007e-266
7.16867e-267
2.91994e-267
1.09321e-267
3.73004e-268
1.14864e-268
3.15736e-269
7.64975e-270
1.60999e-270
2.89386e-271
4.35473e-272
5.35802e-273
5.23941e-274
3.9337e-275
2.17271e-276
8.3648e-278
2.09362e-279
3.10508e-281
2.40091e-283
8.03927e-286
8.74197e-289
1.88562e-292
2.9815e-297
2.00641e-304
9.17833e-311
4.53154e-314
1.80036e-317
0
0
0
0
0
0
0
0
0
0
0
0
0
0
0
0
0
0
0
0
0
0
0
0
0
0
0
0
0
0
0
0
0
0
0
0
0
0
0
0
0
0
0
0
0
0
0
0
0
0
0
0
0
0
0
0
0
0
0
0
0
0
0
0
0
0
0
0
0
0
0
0
0
0
0
0
0
0
0
0
0
0
0
5.40099e-317
1.01035e-313
2.05706e-310
4.17659e-307
8.46589e-304
1.71498e-300
3.47558e-297
5.84847e-294
6.84407e-291
5.00957e-288
2.0183e-285
4.14729e-283
4.46626e-281
2.72837e-279
1.02783e-277
2.56914e-276
4.52974e-275
5.92104e-274
5.97246e-273
4.80237e-272
3.16336e-271
1.74765e-270
8.26033e-270
3.39537e-269
1.2308e-268
3.98355e-268
1.16401e-267
3.10125e-267
7.59812e-267
1.7244e-266
3.64964e-266
7.24923e-266
1.35898e-265
2.41593e-265
4.08976e-265
6.6171e-265
1.027e-264
1.53452e-264
2.21471e-264
3.09579e-264
4.20067e-264
5.54568e-264
7.13985e-264
8.97985e-264
1.10525e-263
1.3331e-263
1.57854e-263
1.83766e-263
2.10542e-263
2.3766e-263
2.64509e-263
2.90526e-263
3.15193e-263
3.38009e-263
3.58554e-263
3.76259e-263
3.90776e-263
4.0174e-263
3.95209e-263
1.75994e-264
3.3988e-260
1.97144e-259
1.91202e-259
1.8557e-259
1.78709e-259
1.70616e-259
1.61371e-259
1.51126e-259
1.40031e-259
1.28284e-259
1.16095e-259
1.03688e-259
9.13083e-260
7.91811e-260
6.75451e-260
5.66042e-260
4.65282e-260
3.74641e-260
2.94902e-260
2.26562e-260
1.69499e-260
1.23217e-260
8.68223e-261
5.91383e-261
3.88244e-261
2.4487e-261
1.47844e-261
8.51143e-262
4.65217e-262
2.40263e-262
1.16625e-262
5.28942e-263
2.22672e-263
8.63652e-264
3.06057e-264
9.81644e-265
2.81918e-265
7.16107e-266
1.58621e-266
3.01378e-267
4.81762e-268
6.33243e-269
6.65869e-270
5.41735e-271
3.27225e-272
1.39312e-273
3.90944e-275
6.61642e-277
5.97557e-279
2.41387e-281
3.3225e-284
9.81832e-288
2.48624e-292
4.28416e-299
4.90222e-306
2.45676e-309
1.23064e-312
6.12114e-316
0
0
0
0
0
0
0
0
0
0
0
0
0
0
0
0
0
0
0
0
0
0
0
0
0
0
0
0
0
0
0
0
0
0
0
0
0
0
0
0
0
0
0
0
0
0
0
0
0
0
0
0
0
0
0
0
0
0
0
0
0
0
0
0
0
0
0
0
0
0
0
0
0
0
0
0
0
0
0
0
0
9.90166e-316
2.01448e-312
4.05265e-309
8.12349e-306
1.6242e-302
3.24254e-299
6.47045e-296
1.29192e-292
2.08497e-289
2.29383e-286
1.53396e-283
5.47012e-281
9.80832e-279
9.25468e-277
5.01086e-275
1.69424e-273
3.84365e-272
6.20932e-271
7.49844e-270
7.03951e-269
5.30242e-268
3.28979e-267
1.71985e-266
7.72446e-266
3.0289e-265
1.05107e-264
3.26652e-264
9.18972e-264
2.36323e-263
5.60207e-263
1.23291e-262
2.53549e-262
4.90217e-262
8.95982e-262
1.55542e-261
2.57515e-261
4.08073e-261
6.21093e-261
9.11154e-261
1.29267e-260
1.77836e-260
2.3776e-260
3.09577e-260
3.93438e-260
4.88883e-260
5.95022e-260
7.10345e-260
8.33239e-260
9.61656e-260
1.09302e-259
1.22481e-259
1.35425e-259
1.4789e-259
1.59648e-259
1.70462e-259
1.80132e-259
1.88409e-259
1.95196e-259
2.00313e-259
1.96969e-259
9.09024e-261
1.48919e-256
9.24601e-256
9.00706e-256
8.75871e-256
8.45474e-256
8.09479e-256
7.68208e-256
7.2229e-256
6.72343e-256
6.19186e-256
5.63706e-256
5.06844e-256
4.49672e-256
3.93175e-256
3.38448e-256
2.86448e-256
2.38008e-256
1.93893e-256
1.54563e-256
1.20371e-256
9.13812e-257
6.74804e-257
4.83557e-257
3.35357e-257
2.24445e-257
1.44505e-257
8.91877e-258
5.25664e-258
2.94618e-258
1.5629e-258
7.80689e-259
3.65086e-259
1.58813e-259
6.37977e-260
2.34759e-260
7.84046e-261
2.35191e-261
6.26147e-262
1.45923e-262
2.92964e-263
4.97282e-264
6.97978e-265
7.88823e-266
6.95031e-267
4.58802e-268
2.15824e-269
6.78373e-271
1.30844e-272
1.37792e-274
6.69914e-277
1.16293e-279
4.67879e-283
1.87175e-287
7.82724e-294
2.52297e-301
1.2846e-304
6.53892e-308
3.32406e-311
1.68509e-314
0
0
0
0
0
0
0
0
0
0
0
0
0
0
0
0
0
0
0
0
0
0
0
0
0
0
0
0
0
0
0
0
0
0
0
0
0
0
0
0
0
0
0
0
0
0
0
0
0
0
0
0
0
0
0
0
0
0
0
0
0
0
0
0
0
0
0
0
0
0
0
0
0
0
0
0
0
0
1.80026e-317
1.9983e-314
3.99658e-311
7.94448e-308
1.57202e-304
3.09996e-301
6.09854e-298
1.19817e-294
2.35336e-291
4.62579e-288
7.12711e-285
7.32198e-282
4.43194e-279
1.38719e-276
2.1618e-274
1.78492e-272
8.56366e-271
2.59936e-269
5.35504e-268
7.93132e-267
8.85309e-266
7.73826e-265
5.46208e-264
3.19323e-263
1.58033e-262
6.74682e-262
2.5243e-261
8.38757e-261
2.50365e-260
6.7834e-260
1.68416e-259
3.86354e-259
8.24687e-259
1.64819e-258
3.10235e-258
5.52915e-258
9.37416e-258
1.51801e-257
2.3563e-257
3.51761e-257
5.06755e-257
7.06824e-257
9.57132e-257
1.26095e-256
1.61941e-256
2.03172e-256
2.4944e-256
3.00238e-256
3.54791e-256
4.12299e-256
4.71763e-256
5.31977e-256
5.91821e-256
6.50123e-256
7.05911e-256
7.58262e-256
8.06117e-256
8.48604e-256
8.84773e-256
9.14414e-256
9.36796e-256
9.20659e-256
4.4026e-257
6.20402e-253
4.07643e-252
3.9869e-252
3.88451e-252
3.75869e-252
3.60916e-252
3.43702e-252
3.24468e-252
3.03445e-252
2.80947e-252
2.57318e-252
2.32925e-252
2.08202e-252
1.83552e-252
1.59439e-252
1.36282e-252
1.14458e-252
9.43343e-253
7.61496e-253
6.01119e-253
4.63031e-253
3.47303e-253
2.53069e-253
1.78679e-253
1.21896e-253
8.01022e-254
5.05309e-254
3.04858e-254
1.75176e-254
9.5436e-255
4.90474e-255
2.36453e-255
1.06261e-255
4.42015e-256
1.68849e-256
5.87043e-257
1.8388e-257
5.12923e-258
1.25724e-258
2.66614e-259
4.80347e-260
7.19597e-261
8.73603e-262
8.33096e-263
6.00568e-264
3.11881e-265
1.09682e-266
2.4077e-268
2.95129e-270
1.72261e-272
3.75724e-275
2.04487e-278
1.27479e-282
1.22932e-288
1.25487e-296
6.49638e-300
3.36281e-303
1.73876e-306
8.97065e-310
4.61302e-313
2.34034e-316
0
0
0
0
0
0
0
0
0
0
0
0
0
0
0
0
0
0
0
0
0
0
0
0
0
0
0
0
0
0
0
0
0
0
0
0
0
0
0
0
0
0
0
0
0
0
0
0
0
0
0
0
0
0
0
0
0
0
0
0
0
0
0
0
0
0
0
0
0
0
0
0
0
0
0
1.98025e-316
4.00913e-313
7.92705e-310
1.55695e-306
3.04116e-303
5.91426e-300
1.14642e-296
2.21737e-293
4.28392e-290
8.2756e-287
1.60017e-283
2.34193e-280
2.22981e-277
1.20919e-274
3.29516e-272
4.44836e-270
3.21147e-268
1.36539e-266
3.72173e-265
6.96629e-264
9.46584e-263
9.77239e-262
7.95659e-261
5.26486e-260
2.90142e-259
1.35991e-258
5.52075e-258
1.97144e-257
6.27364e-257
1.79908e-256
4.69576e-256
1.12588e-255
2.50009e-255
5.17686e-255
1.00566e-254
1.84319e-254
3.20386e-254
5.30572e-254
8.40485e-254
1.2781e-253
1.87178e-253
2.64853e-253
3.63251e-253
4.84213e-253
6.28633e-253
7.96353e-253
9.86368e-253
1.19659e-252
1.42448e-252
1.66639e-252
1.91862e-252
2.17665e-252
2.43525e-252
2.68988e-252
2.93595e-252
3.16995e-252
3.3883e-252
3.5865e-252
3.76122e-252
3.90929e-252
4.03044e-252
4.12217e-252
4.04831e-252
2.00674e-253
2.46136e-249
1.69476e-248
1.66354e-248
1.62397e-248
1.57517e-248
1.51697e-248
1.4497e-248
1.37419e-248
1.29124e-248
1.20194e-248
1.10753e-248
1.00933e-248
9.08975e-249
8.0799e-249
7.08213e-249
6.11341e-249
5.18962e-249
4.32696e-249
3.53675e-249
2.82968e-249
2.21137e-249
1.68458e-249
1.24806e-249
8.96989e-250
6.23672e-250
4.18247e-250
2.69631e-250
1.66485e-250
9.80621e-251
5.48556e-251
2.89997e-251
1.44093e-251
6.68817e-252
2.88011e-252
1.14183e-252
4.13144e-253
1.35088e-253
3.94691e-254
1.01714e-254
2.27746e-255
4.35325e-256
6.95708e-257
9.06755e-258
9.35277e-259
7.35728e-260
4.21401e-261
1.65625e-262
4.13199e-264
5.88428e-266
4.11268e-268
1.12271e-270
8.21148e-274
7.86837e-278
1.66765e-283
6.04869e-292
3.1861e-295
1.67843e-298
8.83369e-302
4.63994e-305
2.42965e-308
1.26693e-311
6.57083e-315
0
0
0
0
0
0
0
0
0
0
0
0
0
0
0
0
0
0
0
0
0
0
0
0
0
0
0
0
0
0
0
0
0
0
0
0
0
0
0
0
0
0
0
0
0
0
0
0
0
0
0
0
0
0
0
0
0
0
0
0
0
0
0
0
0
0
0
0
0
0
0
0
0
4.08644e-315
8.06735e-312
1.57759e-308
3.0614e-305
5.90254e-302
1.132e-298
2.16188e-295
4.11605e-292
7.82111e-289
1.48474e-285
2.81889e-282
5.35792e-279
7.40879e-276
6.48419e-273
3.11617e-270
7.33827e-268
8.55871e-266
5.40105e-264
2.03564e-262
4.98508e-261
8.48265e-260
1.05818e-258
1.0111e-257
7.67247e-257
4.7612e-256
2.47434e-255
1.0988e-254
4.24341e-254
1.4467e-253
4.41027e-253
1.21535e-252
3.05674e-252
7.07983e-252
1.52215e-251
3.05824e-251
5.77573e-251
1.03097e-250
1.74812e-250
2.82825e-250
4.38343e-250
6.53114e-250
9.3846e-250
1.30449e-249
1.75953e-249
2.30907e-249
2.95429e-249
3.69178e-249
4.51478e-249
5.41259e-249
6.37355e-249
7.38171e-249
8.42113e-249
9.47283e-249
1.05158e-248
1.15332e-248
1.25087e-248
1.34307e-248
1.42857e-248
1.50558e-248
1.573e-248
1.6299e-248
1.67635e-248
1.71151e-248
1.67957e-248
8.63384e-250
9.31291e-246
6.66253e-245
6.56135e-245
6.4177e-245
6.23998e-245
6.0273e-245
5.7804e-245
5.50201e-245
5.19445e-245
4.86134e-245
4.5067e-245
4.13494e-245
3.75177e-245
3.36249e-245
2.97389e-245
2.59239e-245
2.22418e-245
1.87591e-245
1.55247e-245
1.25879e-245
9.97952e-246
7.72008e-246
5.81466e-246
4.2534e-246
3.01368e-246
2.06219e-246
1.35836e-246
8.58241e-247
5.18088e-247
2.97521e-247
1.61759e-247
8.282e-248
3.96948e-248
1.76914e-248
7.2772e-249
2.73947e-249
9.34755e-250
2.85962e-250
7.74512e-251
1.83028e-251
3.70993e-252
6.3216e-253
8.84027e-254
9.85559e-255
8.45306e-256
5.33486e-257
2.3406e-258
6.62637e-260
1.09418e-261
9.13288e-264
3.10794e-266
3.03434e-269
4.40773e-273
1.96202e-278
2.83283e-287
1.51933e-290
8.15123e-294
4.36998e-297
2.33861e-300
1.24793e-303
6.63267e-307
3.50724e-310
1.84303e-313
9.00089e-317
0
0
0
0
0
0
0
0
0
0
0
0
0
0
0
0
0
0
0
0
0
0
0
0
0
0
0
0
0
0
0
0
0
0
0
0
0
0
0
0
0
0
0
0
0
0
0
0
0
0
0
0
0
0
0
0
0
0
0
0
0
0
0
0
0
0
0
0
0
3.6003e-317
8.35994e-314
1.63317e-310
3.15884e-307
6.05669e-304
1.15263e-300
2.17984e-297
4.10146e-294
7.68633e-291
1.43632e-287
2.67923e-284
4.9941e-281
9.31192e-278
1.73862e-274
2.25847e-271
1.80078e-268
7.58453e-266
1.53324e-263
1.54184e-261
8.50562e-260
2.84364e-258
6.26044e-257