/*--------------------------------*- C++ -*----------------------------------*\
| =========                 |                                                 |
| \\      /  F ield         | OpenFOAM: The Open Source CFD Toolbox           |
|  \\    /   O peration     | Version:  2412                                  |
|   \\  /    A nd           | Website:  www.openfoam.com                      |
|    \\/     M anipulation  |                                                 |
\*---------------------------------------------------------------------------*/
FoamFile
{
    version     2.0;
    format      ascii;
    arch        "LSB;label=32;scalar=64";
    class       surfaceScalarField;
    location    "1.01";
    object      alphaPhi0.water;
}
// * * * * * * * * * * * * * * * * * * * * * * * * * * * * * * * * * * * * * //

dimensions      [0 3 -1 0 0 0 0];

oriented        oriented;

internalField   nonuniform List<scalar> 
79600
(
0
0
0
0
0
0
0
0
0
0
0
0
0
0
0
0
0
0
0
0
0
0
0
0
0
0
0
0
0
0
0
0
0
0
0
0
0
0
0
0
0
0
0
0
0
0
0
0
0
0
0
0
0
0
0
0
0
0
0
0
0
0
0
0
0
0
0
0
0
0
0
0
0
0
0
0
0
0
0
0
0
0
0
0
0
0
0
0
0
0
0
0
0
0
0
0
0
0
0
0
0
0
0
0
0
0
0
0
0
0
0
0
0
0
0
0
0
0
0
0
0
0
0
0
0
0
0
0
0
0
0
0
0
0
0
0
0
0
0
0
0
0
0
0
0
0
0
0
0
0
0
0
0
0
0
0
0
0
0
0
0
0
0
0
0
0
0
0
0
0
0
0
0
0
0
0
0
0
0
0
0
0
0
0
0
0
0
0
0
0
0
0
0
0
0
0
0
0
0
0
0
0
0
0
0
0
0
0
0
0
0
0
0
0
0
0
0
0
0
0
0
0
0
0
0
0
0
0
0
0
0
0
0
0
0
0
0
0
0
0
0
0
0
0
0
0
0
0
0
0
0
0
0
0
0
0
0
0
0
0
0
0
0
0
0
0
0
0
0
0
0
0
0
0
0
0
0
0
0
0
0
0
0
0
0
0
0
0
0
0
0
0
0
0
0
0
0
0
0
0
0
0
0
0
0
0
0
0
0
0
0
0
0
0
0
0
0
0
0
0
0
0
0
0
0
0
0
0
0
0
0
0
0
0
0
0
0
0
0
0
0
0
0
0
0
0
0
0
0
0
0
0
0
0
0
0
0
0
0
0
0
0
0
0
0
0
0
0
0
0
0
0
0
0
0
0
0
0
0
0
0
0
0
0
0
0
0
0
0
0
0
0
0
0
0
0
0
0
0
0
-4.94066e-324
0
0
0
0
0
0
0
0
0
0
0
0
0
0
0
0
0
0
0
0
0
0
0
0
0
0
0
0
0
0
0
0
0
0
0
0
0
0
0
0
0
0
0
0
0
0
0
0
0
0
0
0
0
0
0
0
0
0
0
0
0
0
0
0
0
0
0
0
0
0
0
0
0
0
0
0
0
0
0
0
0
0
0
0
0
0
0
0
0
0
0
0
0
0
0
0
0
0
0
0
0
0
0
0
0
0
0
0
0
0
0
0
0
0
0
0
0
0
0
0
0
0
0
0
0
0
0
0
0
0
0
0
0
0
0
0
0
0
0
0
0
0
0
0
0
0
0
0
0
0
0
0
0
0
0
0
0
0
0
0
0
0
0
0
0
0
0
0
0
0
0
0
0
0
0
0
0
0
0
0
0
0
0
0
0
0
0
0
0
0
0
0
0
0
0
0
0
0
0
0
0
0
0
0
0
0
0
0
0
0
0
0
0
0
0
0
0
0
0
0
0
0
0
0
0
0
0
0
0
0
0
0
0
0
0
0
0
0
0
0
0
0
0
0
0
0
0
0
0
0
0
0
0
0
0
0
0
0
0
0
0
0
0
0
0
0
0
0
0
0
0
0
0
0
0
0
0
0
0
0
0
0
0
0
0
0
0
0
0
0
0
0
0
0
0
0
0
0
0
0
0
0
0
0
0
0
0
0
0
0
0
0
0
0
0
0
0
0
0
0
0
0
0
0
0
0
0
0
0
0
0
0
0
0
0
0
0
0
0
0
0
0
0
0
0
0
0
0
0
0
0
0
0
0
0
0
0
0
0
0
0
0
0
0
0
0
0
0
0
0
0
0
0
0
0
0
0
0
0
0
0
0
0
0
0
0
0
0
0
0
0
0
0
0
0
0
0
0
-2.99601e-320
0
0
0
-7.90505e-323
0
-2.12448e-322
0
-3.40905e-322
0
-4.29837e-322
0
-4.84184e-322
0
-4.89125e-322
0
-4.59481e-322
0
-4.10074e-322
0
-3.50787e-322
0
-2.91499e-322
0
-2.32211e-322
0
-1.82804e-322
0
-1.38338e-322
0
-9.88131e-323
0
-6.91692e-323
0
-4.94066e-323
0
-2.96439e-323
0
-1.97626e-323
0
-9.88131e-324
0
-4.94066e-324
0
-4.94066e-324
0
0
0
0
0
0
0
0
0
0
0
0
0
0
0
0
0
0
0
0
0
0
0
0
0
0
0
0
0
0
0
0
0
0
0
0
0
0
0
0
0
0
0
0
0
0
0
0
0
0
0
0
0
0
0
0
0
0
0
0
0
0
0
0
0
0
0
0
0
0
0
0
0
0
0
0
0
0
0
0
0
0
0
0
0
0
0
0
0
0
0
0
0
0
0
0
0
0
0
0
0
0
0
0
0
0
0
0
0
0
0
0
0
0
0
0
0
0
0
0
0
0
0
0
0
0
0
0
0
0
0
0
0
0
0
0
0
0
0
0
0
0
0
0
0
0
0
0
0
0
0
0
0
0
0
0
0
0
0
0
0
0
0
0
0
0
0
0
0
0
0
0
0
0
0
0
0
0
0
0
0
0
0
0
0
0
0
0
0
0
0
0
0
0
0
0
0
0
0
0
0
0
0
0
0
0
0
0
0
0
0
0
0
0
0
0
0
0
0
0
0
0
0
0
0
0
0
0
0
0
0
0
0
0
0
0
0
0
0
0
0
0
0
0
0
0
0
0
0
0
0
0
0
0
0
0
0
0
0
0
0
0
0
0
0
0
0
0
0
0
0
0
0
0
0
0
0
0
0
0
0
0
0
0
0
0
0
0
0
0
0
0
0
0
0
0
0
0
0
0
0
0
0
0
0
0
0
0
0
-4.94066e-324
0
-4.94066e-324
0
-9.88131e-324
0
-1.97626e-323
0
-2.96439e-323
0
-4.94066e-323
0
-7.41098e-323
0
-1.03754e-322
0
-1.43279e-322
0
-1.92686e-322
0
-2.51973e-322
0
-3.16202e-322
0
-3.95253e-322
0
-4.79244e-322
0
-5.73116e-322
0
-6.66989e-322
0
-7.5592e-322
0
-8.44852e-322
0
-9.23903e-322
0
-9.93072e-322
0
-1.04742e-321
0
-1.04248e-321
-2.96439e-323
2.14919e-321
-2.81745e-316
1.4822e-322
-4.41157e-318
3.21143e-322
-6.45935e-318
5.53354e-322
-9.0178e-318
8.3003e-322
-1.1503e-317
1.09189e-321
-1.31739e-317
1.29445e-321
-1.38814e-317
1.41303e-321
-1.35855e-317
1.45255e-321
-1.26367e-317
1.41797e-321
-1.1286e-317
1.33398e-321
-9.73075e-318
1.20058e-321
-8.12219e-318
1.04742e-321
-6.57331e-318
8.79437e-322
-5.15943e-318
7.11455e-322
-3.92711e-318
5.58294e-322
-2.8964e-318
4.19956e-322
-2.06725e-318
3.06321e-322
-1.42599e-318
2.12448e-322
-9.4866e-319
1.43279e-322
-6.07478e-319
9.38725e-323
-3.73435e-319
5.43472e-323
-2.1977e-319
3.45846e-323
-1.23442e-319
1.97626e-323
-6.59479e-320
9.88131e-324
-3.3384e-320
4.94066e-324
-1.59484e-320
0
-7.15901e-321
0
-3.00392e-321
0
-1.17094e-321
0
-4.19956e-322
0
-1.38338e-322
0
-3.95253e-323
0
-9.88131e-324
0
-4.94066e-324
0
0
0
0
0
0
0
0
0
0
0
0
0
0
0
0
0
0
0
0
0
0
0
0
0
0
0
0
0
0
0
0
0
0
0
0
0
0
0
0
0
0
0
0
0
0
0
0
0
0
0
0
0
0
0
0
0
0
0
0
0
0
0
0
0
0
0
0
0
0
0
0
0
0
0
0
0
0
0
0
0
0
0
0
0
0
0
0
0
0
0
0
0
0
0
0
0
0
0
0
0
0
0
0
0
0
0
0
0
0
0
0
0
0
0
0
0
0
0
0
0
0
0
0
0
0
0
0
0
0
0
0
0
0
0
0
0
0
0
0
0
0
0
0
0
0
0
0
0
0
0
0
0
0
0
0
0
0
0
0
0
0
0
0
0
0
0
0
0
0
0
0
0
0
0
0
0
0
0
0
0
0
0
0
0
0
0
0
0
0
0
0
0
0
0
0
0
0
0
0
0
0
0
0
0
0
0
0
0
0
0
0
0
0
0
0
0
0
0
0
0
0
0
0
0
0
0
0
0
0
0
0
0
0
0
0
0
0
0
0
0
0
0
0
0
0
0
0
0
0
0
0
0
0
0
0
0
0
0
0
0
0
0
0
0
-4.94066e-324
0
-9.88131e-324
0
-4.44659e-323
0
-1.43279e-322
0
-4.34778e-322
0
-1.20058e-321
0
-3.08297e-321
-4.94066e-324
-7.33687e-321
-9.88131e-324
-1.63289e-320
-1.97626e-323
-3.41301e-320
-3.45846e-323
-6.73263e-320
-5.92879e-323
-1.26016e-319
-9.38725e-323
-2.248e-319
-1.4822e-322
-3.83454e-319
-2.2233e-322
-6.2689e-319
-3.16202e-322
-9.84248e-319
-4.39718e-322
-1.48761e-318
-5.82997e-322
-2.16996e-318
-7.5592e-322
-3.06407e-318
-9.38725e-322
-4.19815e-318
-1.13635e-321
-5.59295e-318
-1.32904e-321
-7.25489e-318
-1.5069e-321
-9.17257e-318
-1.65512e-321
-1.13204e-317
-1.76381e-321
-1.36552e-317
-1.81322e-321
-1.61212e-317
-1.80334e-321
-1.86518e-317
-1.71935e-321
-2.11622e-317
-1.56125e-321
-2.35414e-317
-1.33398e-321
-2.56544e-317
-1.05236e-321
-2.7431e-317
-6.91692e-322
-2.88659e-317
-9.88131e-324
-2.86944e-317
-8.20974e-319
1.23008e-317
-2.4716e-312
6.10166e-318
-2.28722e-313
9.64321e-318
-2.25774e-313
1.44768e-317
-2.56727e-313
1.97038e-317
-2.86481e-313
2.442e-317
-3.03135e-313
2.79274e-317
-3.04085e-313
3.00182e-317
-2.9122e-313
3.06711e-317
-2.68256e-313
3.00096e-317
-2.38887e-313
2.82421e-317
-2.06255e-313
2.56317e-317
-1.72913e-313
2.24686e-317
-1.40849e-313
1.90331e-317
-1.11455e-313
1.55832e-317
-8.5642e-314
1.23256e-317
-6.38413e-314
9.40899e-318
-4.61045e-314
6.9253e-318
-3.22132e-314
4.90563e-318
-2.17291e-314
3.33877e-318
-1.4123e-314
2.17803e-318
-8.8215e-315
1.35847e-318
-5.28104e-315
8.07812e-319
-3.02101e-315
4.56502e-319
-1.64577e-315
2.44291e-319
-8.50698e-316
1.23309e-319
-4.15533e-316
5.84529e-320
-1.90942e-316
2.5894e-320
-8.21283e-317
1.06619e-320
-3.28825e-317
4.05628e-321
-1.21798e-317
1.41303e-321
-4.14506e-318
4.496e-322
-1.28618e-318
1.28457e-322
-3.60747e-319
3.45846e-323
-9.05771e-320
9.88131e-324
-2.01332e-320
0
-3.913e-321
0
-6.57107e-322
0
-9.38725e-323
0
-9.88131e-324
0
0
0
0
0
0
0
0
0
0
0
0
0
0
0
0
0
0
0
0
0
0
0
0
0
0
0
0
0
0
0
0
0
0
0
0
0
0
0
0
0
0
0
0
0
0
0
0
0
0
0
0
0
0
0
0
0
0
0
0
0
0
0
0
0
0
0
0
0
0
0
0
0
0
0
0
0
0
0
0
0
0
0
0
0
0
0
0
0
0
0
0
0
0
0
0
0
0
0
0
0
0
0
0
0
0
0
0
0
0
0
0
0
0
0
0
0
0
0
0
0
0
0
0
0
0
0
0
0
0
0
0
0
0
0
0
0
0
0
0
0
0
0
0
0
0
0
0
0
0
0
0
0
0
0
0
0
0
0
0
0
0
0
0
0
0
0
0
0
0
0
0
0
0
0
0
0
0
0
0
0
0
0
0
0
0
0
0
0
0
0
0
0
0
0
0
0
0
0
0
0
0
0
0
0
0
0
0
0
0
0
0
0
0
0
0
0
0
0
0
0
0
0
0
0
0
0
0
0
0
0
0
0
0
0
0
0
0
0
0
0
0
0
0
0
-9.88131e-324
0
-9.88131e-323
0
-6.96633e-322
-9.88131e-324
-4.13533e-321
-3.45846e-323
-2.11559e-320
-1.33398e-322
-9.47569e-320
-4.69362e-322
-3.76107e-319
-1.46737e-321
-1.33796e-318
-4.2045e-321
-4.30601e-318
-1.10473e-320
-1.26395e-317
-2.6808e-320
-3.40926e-317
-6.04588e-320
-8.50829e-317
-1.27415e-319
-1.97667e-316
-2.52151e-319
-4.29836e-316
-4.70845e-319
-8.79305e-316
-8.33439e-319
-1.70047e-315
-1.40421e-318
-3.12366e-315
-2.25884e-318
-5.47353e-315
-3.47664e-318
-9.17894e-315
-5.1298e-318
-1.47658e-314
-7.27302e-318
-2.28349e-314
-9.93148e-318
-3.40352e-314
-1.30956e-317
-4.90216e-314
-1.67035e-317
-6.84328e-314
-2.06362e-317
-9.27913e-314
-2.47054e-317
-1.22442e-313
-2.86639e-317
-1.57412e-313
-3.22441e-317
-1.97353e-313
-3.51745e-317
-2.41655e-313
-3.72085e-317
-2.89419e-313
-3.81196e-317
-3.39581e-313
-3.76938e-317
-3.90827e-313
-3.57818e-317
-4.41305e-313
-3.2364e-317
-4.88684e-313
-2.76085e-317
-5.30657e-313
-2.17244e-317
-5.66336e-313
-1.43026e-317
-5.95017e-313
-2.08837e-319
-5.90875e-313
-1.75521e-314
1.05302e-313
-2.07737e-308
1.31083e-313
-5.57767e-309
1.98621e-313
-5.05849e-309
2.81343e-313
-5.2616e-309
3.62514e-313
-5.45267e-309
4.31974e-313
-5.48723e-309
4.83725e-313
-5.34057e-309
5.14428e-313
-5.0306e-309
5.23354e-313
-4.59621e-309
5.11893e-313
-4.0813e-309
4.82938e-313
-3.52665e-309
4.40312e-313
-2.96687e-309
3.88408e-313
-2.43017e-309
3.31575e-313
-1.937e-309
2.7393e-313
-1.50137e-309
2.18882e-313
-1.13038e-309
1.68987e-313
-8.25474e-310
1.2593e-313
-5.83876e-310
9.04119e-314
-3.99145e-310
6.24347e-314
-2.63205e-310
4.1371e-314
-1.66983e-310
2.62408e-314
-1.01654e-310
1.58876e-314
-5.92048e-311
9.15301e-315
-3.28797e-311
5.00016e-315
-1.73487e-311
2.58011e-315
-8.66254e-312
1.25211e-315
-4.07501e-312
5.68721e-316
-1.79713e-312
2.40478e-316
-7.3897e-313
9.40961e-317
-2.81606e-313
3.38444e-317
-9.87858e-314
1.11064e-317
-3.16598e-314
3.29746e-318
-9.19204e-315
8.77386e-319
-2.39479e-315
2.06984e-319
-5.53849e-316
4.27663e-320
-1.1232e-316
7.63331e-321
-1.9695e-317
1.15611e-321
-2.93802e-318
1.4822e-322
-3.6591e-319
1.4822e-323
-3.7218e-320
0
-3.0138e-321
0
-1.87745e-322
0
-9.88131e-324
0
0
0
0
0
0
0
0
0
0
0
0
0
0
0
0
0
0
0
0
0
0
0
0
0
0
0
0
0
0
0
0
0
0
0
0
0
0
0
0
0
0
0
0
0
0
0
0
0
0
0
0
0
0
0
0
0
0
0
0
0
0
0
0
0
0
0
0
0
0
0
0
0
0
0
0
0
0
0
0
0
0
0
0
0
0
0
0
0
0
0
0
0
0
0
0
0
0
0
0
0
0
0
0
0
0
0
0
0
0
0
0
0
0
0
0
0
0
0
0
0
0
0
0
0
0
0
0
0
0
0
0
0
0
0
0
0
0
0
0
0
0
0
0
0
0
0
0
0
0
0
0
0
0
0
0
0
0
0
0
0
0
0
0
0
0
0
0
0
0
0
0
0
0
0
0
0
0
0
0
0
0
0
0
0
0
0
0
0
0
0
0
0
0
0
0
0
0
0
0
0
0
0
0
0
0
0
0
0
0
0
0
0
0
0
0
0
0
0
0
0
0
0
0
0
0
0
0
0
-9.88131e-324
0
-2.12448e-322
-1.4822e-323
-3.33494e-321
-1.58101e-322
-4.07011e-320
-1.24505e-321
-3.96167e-319
-8.16196e-321
-3.15574e-318
-4.54689e-320
-2.10204e-317
-2.18975e-319
-1.19252e-316
-9.24071e-319
-5.85322e-316
-3.46046e-318
-2.52033e-315
-1.16275e-317
-9.64161e-315
-3.53803e-317
-3.31367e-314
-9.82569e-317
-1.03267e-313
-2.50836e-316
-2.94125e-313
-5.92565e-316
-7.71154e-313
-1.30336e-315
-1.87376e-312
-2.68385e-315
-4.24573e-312
-5.19907e-315
-9.02158e-312
-9.51674e-315
-1.80658e-311
-1.65306e-314
-3.42491e-311
-2.73533e-314
-6.1739e-311
-4.32521e-314
-1.06252e-310
-6.55085e-314
-1.75151e-310
-9.52342e-314
-2.77264e-310
-1.33201e-313
-4.22455e-310
-1.79643e-313
-6.2115e-310
-2.34187e-313
-8.83577e-310
-2.95574e-313
-1.21941e-309
-3.61615e-313
-1.63609e-309
-4.29005e-313
-2.13794e-309
-4.93531e-313
-2.72386e-309
-5.50804e-313
-3.38651e-309
-5.9658e-313
-4.1146e-309
-6.27142e-313
-4.89328e-309
-6.38969e-313
-5.7062e-309
-6.28695e-313
-6.53197e-309
-5.94273e-313
-7.339e-309
-5.36003e-313
-8.09093e-309
-4.56608e-313
-8.75847e-309
-3.58777e-313
-9.33043e-309
-2.36014e-313
-9.78646e-309
-3.5778e-315
-9.70731e-309
-2.99152e-310
1.01718e-309
-1.6749e-304
2.12699e-309
-9.38048e-305
3.1549e-309
-8.37436e-305
4.3156e-309
-8.35255e-305
5.39427e-309
-8.31864e-305
6.29664e-309
-8.13111e-305
6.96084e-309
-7.76324e-305
7.35152e-309
-7.23045e-305
7.45882e-309
-6.56869e-305
7.29822e-309
-5.82307e-305
6.90394e-309
-5.03809e-305
6.32323e-309
-4.25345e-305
5.61202e-309
-3.50294e-305
4.82678e-309
-2.81164e-305
4.02256e-309
-2.19762e-305
3.24617e-309
-1.67062e-305
2.53396e-309
-1.23328e-305
1.91133e-309
-8.82831e-306
1.39048e-309
-6.11463e-306
9.7404e-310
-4.08981e-306
6.55463e-310
-2.63482e-306
4.22707e-310
-1.63072e-306
2.60531e-310
-9.66775e-307
1.52988e-310
-5.47223e-307
8.53013e-311
-2.94685e-307
4.49881e-311
-1.50384e-307
2.23475e-311
-7.24084e-308
1.04061e-311
-3.27357e-308
4.51843e-312
-1.38221e-308
1.81877e-312
-5.41829e-309
6.74237e-313
-1.9589e-309
2.28512e-313
-6.48361e-310
7.02251e-314
-1.94839e-310
1.93878e-314
-5.26665e-311
4.75832e-315
-1.2671e-311
1.02581e-315
-2.68092e-312
1.91605e-316
-4.92023e-313
3.05222e-317
-7.70971e-314
4.07116e-318
-1.01264e-314
4.45005e-319
-1.09115e-315
3.88583e-320
-9.40285e-317
2.62843e-321
-6.28579e-318
1.33398e-322
-3.14171e-319
4.94066e-324
-1.12202e-320
0
-2.71736e-322
0
-4.94066e-324
0
0
0
0
0
0
0
0
0
0
0
0
0
0
0
0
0
0
0
0
0
0
0
0
0
0
0
0
0
0
0
0
0
0
0
0
0
0
0
0
0
0
0
0
0
0
0
0
0
0
0
0
0
0
0
0
0
0
0
0
0
0
0
0
0
0
0
0
0
0
0
0
0
0
0
0
0
0
0
0
0
0
0
0
0
0
0
0
0
0
0
0
0
0
0
0
0
0
0
0
0
0
0
0
0
0
0
0
0
0
0
0
0
0
0
0
0
0
0
0
0
0
0
0
0
0
0
0
0
0
0
0
0
0
0
0
0
0
0
0
0
0
0
0
0
0
0
0
0
0
0
0
0
0
0
0
0
0
0
0
0
0
0
0
0
0
0
0
0
0
0
0
0
0
0
0
0
0
0
0
0
0
0
0
0
0
0
0
0
0
0
0
0
0
0
0
0
0
0
0
0
0
0
0
0
0
0
0
0
0
0
0
0
0
0
0
0
-4.94066e-324
-4.94066e-324
-3.40905e-322
-1.5316e-322
-1.34139e-320
-2.98416e-321
-3.6296e-319
-4.33296e-320
-7.09331e-318
-4.89629e-319
-1.04372e-316
-4.43316e-318
-1.19648e-315
-3.29597e-317
-1.09978e-314
-2.05512e-316
-8.30815e-314
-1.09425e-315
-5.26872e-313
-5.05238e-315
-2.85617e-312
-2.05018e-314
-1.34412e-311
-7.4009e-314
-5.56549e-311
-2.40257e-313
-2.05249e-310
-7.07834e-313
-6.81545e-310
-1.90731e-312
-2.05655e-309
-4.73343e-312
-5.68347e-309
-1.08898e-311
-1.44868e-308
-2.33657e-311
-3.42822e-308
-4.70149e-311
-7.57808e-308
-8.91385e-311
-1.5735e-307
-1.59922e-310
-3.08403e-307
-2.72576e-310
-5.73074e-307
-4.42999e-310
-1.01373e-306
-6.88665e-310
-1.71359e-306
-1.02654e-309
-2.77713e-306
-1.47055e-309
-4.32662e-306
-2.02927e-309
-6.49585e-306
-2.70316e-309
-9.42322e-306
-3.48382e-309
-1.32401e-305
-4.35025e-309
-1.80652e-305
-5.26918e-309
-2.39815e-305
-6.19309e-309
-3.1027e-305
-7.0637e-309
-3.91666e-305
-7.82259e-309
-4.82837e-305
-8.415e-309
-5.82159e-305
-8.7935e-309
-6.87625e-305
-8.91158e-309
-7.97069e-305
-8.72605e-309
-9.07492e-305
-8.2157e-309
-1.01455e-304
-7.3897e-309
-1.11384e-304
-6.28155e-309
-1.20227e-304
-4.92225e-309
-1.27821e-304
-3.231e-309
-1.33817e-304
-5.06333e-311
-1.32567e-304
-4.23571e-306
9.18175e-306
-1.28753e-300
2.72837e-305
-1.23317e-300
4.07911e-305
-1.11045e-300
5.4936e-305
-1.08484e-300
6.74949e-305
-1.05667e-300
7.78305e-305
-1.01543e-300
8.53782e-305
-9.58228e-301
8.9809e-305
-8.86255e-301
9.1025e-305
-8.02563e-301
8.91811e-305
-7.11272e-301
8.46337e-305
-6.16656e-301
7.78887e-305
-5.2269e-301
6.95583e-305
-4.32876e-301
6.02746e-305
-3.49897e-301
5.06691e-305
-2.75772e-301
4.12923e-305
-2.1165e-301
3.25861e-305
-1.57925e-301
2.48754e-305
-1.14393e-301
1.83348e-305
-8.02625e-302
1.30269e-305
-5.44444e-302
8.90144e-306
-3.56128e-302
5.83587e-306
-2.24055e-302
3.66109e-306
-1.35192e-302
2.19103e-306
-7.7983e-303
1.24671e-306
-4.28534e-303
6.71943e-307
-2.23474e-303
3.4161e-307
-1.10118e-303
1.63055e-307
-5.10281e-304
7.26946e-308
-2.2121e-304
3.00975e-308
-8.91881e-305
1.14983e-308
-3.32277e-305
4.02431e-309
-1.13564e-305
1.27999e-309
-3.5319e-306
3.66632e-310
-9.90438e-307
9.36031e-311
-2.47863e-307
2.10523e-311
-5.47085e-308
4.1156e-312
-1.0508e-308
6.88635e-313
-1.72938e-309
9.68681e-314
-2.39536e-310
1.12173e-314
-2.7342e-311
1.04313e-315
-2.50892e-312
7.56241e-317
-1.79664e-313
4.12348e-318
-9.68629e-315
1.61806e-319
-3.76206e-316
4.32307e-321
-9.96079e-318
7.41098e-323
-1.67533e-319
0
-1.63042e-321
0
-9.88131e-324
0
0
0
0
0
0
0
0
0
0
0
0
0
0
0
0
0
0
0
0
0
0
0
0
0
0
0
0
0
0
0
0
0
0
0
0
0
0
0
0
0
0
0
0
0
0
0
0
0
0
0
0
0
0
0
0
0
0
0
0
0
0
0
0
0
0
0
0
0
0
0
0
0
0
0
0
0
0
0
0
0
0
0
0
0
0
0
0
0
0
0
0
0
0
0
0
0
0
0
0
0
0
0
0
0
0
0
0
0
0
0
0
0
0
0
0
0
0
0
0
0
0
0
0
0
0
0
0
0
0
0
0
0
0
0
0
0
0
0
0
0
0
0
0
0
0
0
0
0
0
0
0
0
0
0
0
0
0
0
0
0
0
0
0
0
0
0
0
0
0
0
0
0
0
0
0
0
0
0
0
0
0
0
0
0
0
0
0
0
0
0
0
0
0
0
0
0
0
0
0
0
0
0
0
0
0
0
0
0
-1.4822e-323
-9.88131e-323
-2.49503e-321
-5.48413e-321
-2.25422e-319
-1.94692e-319
-1.24345e-317
-4.79178e-318
-4.47934e-316
-8.5794e-317
-1.11726e-314
-1.16348e-315
-2.02707e-313
-1.2355e-314
-2.78673e-312
-1.05642e-313
-3.00187e-311
-7.4496e-313
-2.60583e-310
-4.42291e-312
-1.86721e-309
-2.25052e-311
-1.12754e-308
-9.96327e-311
-5.8415e-308
-3.8878e-310
-2.63595e-307
-1.35299e-309
-1.04961e-306
-4.24385e-309
-3.73184e-306
-1.21069e-308
-1.19738e-305
-3.16559e-308
-3.49877e-305
-7.63815e-308
-9.38294e-305
-1.71148e-307
-2.32539e-304
-3.5825e-307
-5.35985e-304
-7.04384e-307
-1.1559e-303
-1.3071e-306
-2.34537e-303
-2.29856e-306
-4.49936e-303
-3.84455e-306
-8.19522e-303
-6.13738e-306
-1.42267e-302
-9.38017e-306
-2.36231e-302
-1.37614e-305
-3.76418e-302
-1.94259e-305
-5.772e-302
-2.64482e-305
-8.53981e-302
-3.47985e-305
-1.22233e-301
-4.43356e-305
-1.69644e-301
-5.47666e-305
-2.28834e-301
-6.56649e-305
-3.00528e-301
-7.64576e-305
-3.84918e-301
-8.64726e-305
-4.81389e-301
-9.50565e-305
-5.8846e-301
-1.01596e-304
-7.04216e-301
-1.05547e-304
-8.26322e-301
-1.06382e-304
-9.5217e-301
-1.03653e-304
-1.07812e-300
-9.72047e-305
-1.19934e-300
-8.71783e-305
-1.31158e-300
-7.39135e-305
-1.41174e-300
-5.77464e-305
-1.49748e-300
-3.7823e-305
-1.56437e-300
-6.1328e-307
-1.54772e-300
-5.12974e-302
7.54068e-302
-9.38321e-297
3.02331e-301
-1.35431e-296
4.49613e-301
-1.23342e-296
5.98343e-301
-1.19336e-296
7.2808e-301
-1.14903e-296
8.33681e-301
-1.09365e-296
9.10656e-301
-1.02522e-296
9.56216e-301
-9.44675e-297
9.69517e-301
-8.54469e-297
9.51963e-301
-7.58045e-297
9.06835e-301
-6.591e-297
8.38876e-301
-5.61171e-297
7.53977e-301
-4.6749e-297
6.58326e-301
-3.806e-297
5.58258e-301
-3.025e-297
4.59427e-301
-2.34391e-297
3.66521e-301
-1.76768e-297
2.83151e-301
-1.29558e-297
2.11432e-301
-9.20791e-298
1.52355e-301
-6.33392e-298
1.05703e-301
-4.20622e-298
7.04447e-302
-2.68978e-298
4.49778e-302
-1.65167e-298
2.74304e-302
-9.70809e-299
1.59265e-302
-5.44328e-299
8.77134e-303
-2.90035e-299
4.56331e-303
-1.4624e-299
2.23243e-303
-6.94522e-300
1.02179e-303
-3.09078e-300
4.35089e-304
-1.28154e-300
1.71277e-304
-4.91945e-301
6.18977e-305
-1.73598e-301
2.0374e-305
-5.58687e-302
6.05397e-306
-1.62517e-302
1.60765e-306
-4.23002e-303
3.77184e-307
-9.73888e-304
7.71679e-308
-1.95746e-304
1.35611e-308
-3.38324e-305
2.01154e-309
-4.94109e-306
2.46743e-310
-5.9739e-307
2.44314e-311
-5.83625e-308
1.89715e-312
-4.47617e-309
1.11568e-313
-2.60258e-310
4.76046e-315
-1.09903e-311
1.3969e-316
-3.19486e-313
2.63245e-318
-5.97035e-315
2.91252e-320
-6.55693e-317
1.67982e-322
-3.74833e-319
0
-9.38725e-322
0
0
0
0
0
0
0
0
0
0
0
0
0
0
0
0
0
0
0
0
0
0
0
0
0
0
0
0
0
0
0
0
0
0
0
0
0
0
0
0
0
0
0
0
0
0
0
0
0
0
0
0
0
0
0
0
0
0
0
0
0
0
0
0
0
0
0
0
0
0
0
0
0
0
0
0
0
0
0
0
0
0
0
0
0
0
0
0
0
0
0
0
0
0
0
0
0
0
0
0
0
0
0
0
0
0
0
0
0
0
0
0
0
0
0
0
0
0
0
0
0
0
0
0
0
0
0
0
0
0
0
0
0
0
0
0
0
0
0
0
0
0
0
0
0
0
0
0
0
0
0
0
0
0
0
0
0
0
0
0
0
0
0
0
0
0
0
0
0
0
0
0
0
0
0
0
0
0
0
0
0
0
0
0
0
0
0
0
0
0
0
0
0
0
0
0
0
0
0
0
0
0
0
-4.94066e-324
-3.26083e-322
-2.57902e-321
-4.48019e-320
-6.84617e-319
-3.56199e-318
-9.73111e-317
-1.75292e-316
-7.90419e-315
-5.69614e-315
-3.95272e-313
-1.29278e-313
-1.30235e-311
-2.14923e-312
-2.99488e-310
-2.72344e-311
-5.04497e-309
-2.71787e-310
-6.48048e-308
-2.19508e-309
-6.5604e-307
-1.46849e-308
-5.3793e-306
-8.30287e-308
-3.65689e-305
-4.03764e-307
-2.10309e-304
-1.71403e-306
-1.04135e-303
-6.43259e-306
-4.50611e-303
-2.15843e-305
-1.72577e-302
-6.54214e-305
-5.91654e-302
-1.80722e-304
-1.8345e-301
-4.58518e-304
-5.19085e-301
-1.07572e-303
-1.35085e-300
-2.34799e-303
-3.25531e-300
-4.79564e-303
-7.30948e-300
-9.21463e-303
-1.53819e-299
-1.67354e-302
-3.05021e-299
-2.8843e-302
-5.7272e-299
-4.73388e-302
-1.02243e-298
-7.42315e-302
-1.74179e-298
-1.11551e-301
-2.8412e-298
-1.61084e-301
-4.45178e-298
-2.24085e-301
-6.71962e-298
-3.01018e-301
-9.79787e-298
-3.91188e-301
-1.38375e-297
-4.92695e-301
-1.89693e-297
-6.02066e-301
-2.52964e-297
-7.14588e-301
-3.28662e-297
-8.24315e-301
-4.16724e-297
-9.246e-301
-5.16335e-297
-1.0091e-300
-6.25926e-297
-1.07169e-300
-7.43582e-297
-1.10677e-300
-8.669e-297
-1.10921e-300
-9.93024e-297
-1.07534e-300
-1.11813e-296
-1.00452e-300
-1.23774e-296
-8.98305e-301
-1.34841e-296
-7.59577e-301
-1.44716e-296
-5.91936e-301
-1.53115e-296
-3.87327e-301
-1.59585e-296
-6.52982e-303
-1.57707e-296
-5.42701e-298
5.70007e-298
-6.45949e-293
2.91056e-297
-1.28564e-292
4.31458e-297
-1.18415e-292
5.6995e-297
-1.14091e-292
6.89885e-297
-1.09233e-292
7.87109e-297
-1.03457e-292
8.58206e-297
-9.66656e-293
9.01048e-297
-8.89462e-293
9.14953e-297
-8.04864e-293
9.01049e-297
-7.15531e-293
8.62018e-297
-6.24374e-293
8.01815e-297
-5.34242e-293
7.25472e-297
-4.47827e-293
6.38359e-297
-3.67294e-293
5.46109e-297
-2.94419e-293
4.53872e-297
-2.30331e-293
3.66047e-297
-1.7557e-293
2.86173e-297
-1.302e-293
2.16478e-297
-9.37304e-294
1.58199e-297
-6.53793e-294
1.11434e-297
-4.40756e-294
7.54861e-298
-2.86465e-294
4.9049e-298
-1.79e-294
3.04807e-298
-1.07199e-294
1.8057e-298
-6.13218e-295
1.01608e-298
-3.33816e-295
5.40894e-299
-1.72213e-295
2.71181e-299
-8.38109e-296
1.27412e-299
-3.82843e-296
5.57916e-300
-1.63228e-296
2.26288e-300
-6.45533e-297
8.44319e-301
-2.35171e-297
2.87573e-301
-7.8309e-298
8.86344e-302
-2.36265e-298
2.4479e-302
-6.39513e-299
5.99046e-303
-1.53562e-299
1.28245e-303
-3.22945e-300
2.3667e-304
-5.86111e-301
3.70135e-305
-9.02435e-302
4.80863e-306
-1.15547e-302
5.06878e-307
-1.20165e-303
4.21505e-308
-9.86866e-305
2.67284e-309
-6.18657e-306
1.23975e-310
-2.83967e-307
3.99312e-312
-9.06009e-309
8.35819e-314
-1.88038e-310
1.04248e-315
-2.32776e-312
6.89166e-318
-1.52881e-314
2.0479e-320
-4.51766e-317
1.97626e-323
-4.70202e-320
0
-9.88131e-324
0
0
0
0
0
0
0
0
0
0
0
0
0
0
0
0
0
0
0
0
0
0
0
0
0
0
0
0
0
0
0
0
0
0
0
0
0
0
0
0
0
0
0
0
0
0
0
0
0
0
0
0
0
0
0
0
0
0
0
0
0
0
0
0
0
0
0
0
0
0
0
0
0
0
0
0
0
0
0
0
0
0
0
0
0
0
0
0
0
0
0
0
0
0
0
0
0
0
0
0
0
0
0
0
0
0
0
0
0
0
0
0
0
0
0
0
0
0
0
0
0
0
0
0
0
0
0
0
0
0
0
0
0
0
0
0
0
0
0
0
0
0
0
0
0
0
0
0
0
0
0
0
0
0
0
0
0
0
0
0
0
0
0
0
0
0
0
0
0
0
0
0
0
0
0
0
0
0
0
0
0
0
0
0
0
0
0
0
0
0
0
0
0
0
0
0
-1.38338e-322
-2.91499e-322
-5.65458e-320
-2.45501e-319
-1.26585e-317
-1.12097e-316
-1.55514e-315
-2.65285e-314
-1.11164e-313
-3.36173e-312
-4.96095e-312
-2.45165e-310
-1.47488e-310
-1.11103e-308
-3.08715e-309
-3.34801e-307
-4.76656e-308
-7.09954e-306
-5.64451e-307
-1.11064e-304
-5.29409e-306
-1.33323e-303
-4.03917e-305
-1.2685e-302
-2.56401e-304
-9.82605e-302
-1.38088e-303
-6.33867e-301
-6.41855e-303
-3.47255e-300
-2.61288e-302
-1.6436e-299
-9.43122e-302
-6.82055e-299
-3.05154e-301
-2.51252e-298
-8.9385e-301
-8.30657e-298
-2.39123e-300
-2.48924e-297
-5.88751e-300
-6.82154e-297
-1.34315e-299
-1.72282e-296
-2.85617e-299
-4.03738e-296
-5.69253e-299
-8.83244e-296
-1.06891e-298
-1.81386e-295
-1.89983e-298
-3.51529e-295
-3.20876e-298
-6.45981e-295
-5.16765e-298
-1.13021e-294
-7.96055e-298
-1.88943e-294
-1.17643e-297
-3.02793e-294
-1.67243e-297
-4.66597e-294
-2.29302e-297
-6.9339e-294
-3.03934e-297
-9.96501e-294
-3.90126e-297
-1.38869e-293
-4.8573e-297
-1.88038e-293
-5.87173e-297
-2.47893e-293
-6.89906e-297
-3.18627e-293
-7.88529e-297
-3.99958e-293
-8.77263e-297
-4.91012e-293
-9.50632e-297
-5.90353e-293
-1.00311e-296
-6.96291e-293
-1.0296e-296
-8.0657e-293
-1.02589e-296
-9.18377e-293
-9.89656e-297
-1.02824e-292
-9.20996e-297
-1.1327e-292
-8.21256e-297
-1.22926e-292
-6.92639e-297
-1.31528e-292
-5.38668e-297
-1.38799e-292
-3.52527e-297
-1.44331e-292
-6.1942e-299
-1.42519e-292
-5.09305e-294
3.92284e-294
-4.19186e-289
2.47746e-293
-1.07889e-288
3.67043e-293
-1.00385e-288
4.82709e-293
-9.65905e-289
5.82756e-293
-9.22627e-289
6.63961e-293
-8.72075e-289
7.23822e-293
-8.13991e-289
7.60814e-293
-7.49183e-289
7.74393e-293
-6.79022e-289
7.65355e-293
-6.05431e-289
7.35661e-293
-5.30515e-289
6.88268e-293
-4.56375e-289
6.27022e-293
-3.85048e-289
5.56095e-293
-3.18207e-289
4.79978e-293
-2.57283e-289
4.02873e-293
-2.03234e-289
3.28475e-293
-1.56583e-289
2.59876e-293
-1.17493e-289
1.99147e-293
-8.56731e-290
1.47587e-293
-6.05954e-290
1.05543e-293
-4.14685e-290
7.26688e-294
-2.73915e-290
4.80504e-294
-1.74158e-290
3.04243e-294
-1.0626e-290
1.83882e-294
-6.20096e-291
1.0571e-294
-3.44837e-291
5.75751e-295
-1.81999e-291
2.95792e-295
-9.07557e-292
1.42647e-295
-4.25483e-292
6.4227e-296
-1.86516e-292
2.68372e-296
-7.59852e-293
1.03372e-296
-2.85743e-293
3.64275e-297
-9.84359e-294
1.16445e-297
-3.07992e-294
3.34425e-298
-8.66835e-295
8.53511e-299
-2.17059e-295
1.91172e-299
-4.77548e-296
3.70432e-300
-9.09933e-297
6.10713e-301
-1.47679e-297
8.40165e-302
-2.00211e-298
9.42621e-303
-2.21592e-299
8.39232e-304
-1.94822e-300
5.73676e-305
-1.31644e-301
2.89161e-306
-6.56581e-303
1.02192e-307
-2.29829e-304
2.37476e-309
-5.2951e-306
3.33702e-311
-7.38423e-308
2.53287e-313
-5.56764e-310
8.86308e-316
-1.93722e-312
1.13101e-318
-2.46048e-315
3.60668e-322
-7.84813e-319
0
-3.45846e-323
0
0
0
0
0
0
0
0
0
0
0
0
0
0
0
0
0
0
0
0
0
0
0
0
0
0
0
0
0
0
0
0
0
0
0
0
0
0
0
0
0
0
0
0
0
0
0
0
0
0
0
0
0
0
0
0
0
0
0
0
0
0
0
0
0
0
0
0
0
0
0
0
0
0
0
0
0
0
0
0
0
0
0
0
0
0
0
0
0
0
0
0
0
0
0
0
0
0
0
0
0
0
0
0
0
0
0
0
0
0
0
0
0
0
0
0
0
0
0
0
0
0
0
0
0
0
0
0
0
0
0
0
0
0
0
0
0
0
0
0
0
0
0
0
0
0
0
0
0
0
0
0
0
0
0
0
0
0
0
0
0
0
0
0
0
0
0
0
0
0
0
0
0
0
0
0
0
0
0
0
0
0
0
0
0
0
0
0
0
0
-9.88131e-324
-4.94066e-324
-9.09575e-321
-1.00147e-320
-5.94089e-318
-1.37774e-317
-2.21067e-315
-1.07149e-314
-4.41638e-313
-4.39076e-312
-4.84094e-311
-9.22492e-310
-3.10862e-309
-1.04027e-307
-1.25761e-307
-6.80674e-306
-3.42042e-306
-2.79461e-304
-6.60384e-305
-7.70192e-303
-9.47177e-304
-1.50628e-301
-1.04838e-302
-2.18891e-300
-9.24244e-302
-2.45603e-299
-6.66214e-301
-2.19653e-298
-4.0135e-300
-1.60758e-297
-2.05927e-299
-9.84239e-297
-9.15026e-299
-5.13736e-296
-3.57221e-298
-2.32465e-295
-1.24021e-297
-9.25194e-295
-3.86987e-297
-3.2784e-294
-1.09566e-296
-1.04534e-293
-2.83889e-296
-3.02812e-293
-6.78339e-296
-8.03788e-293
-1.50486e-295
-1.97024e-292
-3.11773e-295
-4.49024e-292
-6.06404e-295
-9.57122e-292
-1.11282e-294
-1.91838e-291
-1.9356e-294
-3.63379e-291
-3.20369e-294
-6.53539e-291
-5.06297e-294
-1.12059e-290
-7.66295e-294
-1.83836e-290
-1.1139e-293
-2.89466e-290
-1.55928e-293
-4.38768e-290
-2.10738e-293
-6.42065e-290
-2.7563e-293
-9.09605e-290
-3.4944e-293
-1.25085e-289
-4.30073e-293
-1.67293e-289
-5.14303e-293
-2.1802e-289
-5.98258e-293
-2.77232e-289
-6.77579e-293
-3.44547e-289
-7.47749e-293
-4.19165e-289
-8.04476e-293
-4.99907e-289
-8.43268e-293
-5.85397e-289
-8.60083e-293
-6.7369e-289
-8.52056e-293
-7.62368e-289
-8.18017e-293
-8.48758e-289
-7.58493e-293
-9.30516e-289
-6.7439e-293
-1.00602e-288
-5.67323e-293
-1.07313e-288
-4.404e-293
-1.1295e-288
-2.88244e-293
-1.17201e-288
-5.26359e-295
-1.15669e-288
-4.2898e-290
2.52777e-290
-2.56447e-285
1.89396e-289
-8.12551e-285
2.80693e-289
-7.63015e-285
3.68199e-289
-7.34356e-285
4.4405e-289
-7.01187e-285
5.05946e-289
-6.62649e-285
5.52119e-289
-6.18821e-285
5.81501e-289
-5.70376e-285
5.93679e-289
-5.18258e-285
5.89135e-289
-4.63752e-285
5.69155e-289
-4.08266e-285
5.35725e-289
-3.53224e-285
4.91499e-289
-3.00035e-285
4.39404e-289
-2.49881e-285
3.82675e-289
-2.03814e-285
3.24408e-289
-1.62574e-285
2.67402e-289
-1.2661e-285
2.14092e-289
-9.61264e-286
1.66198e-289
-7.09964e-286
1.24904e-289
-5.09162e-286
9.06795e-290
-3.53704e-286
6.3456e-290
-2.37432e-286
4.26955e-290
-1.53599e-286
2.75426e-290
-9.54717e-287
1.6982e-290
-5.68313e-287
9.97305e-291
-3.22823e-287
5.55697e-291
-1.7429e-287
2.92519e-291
-8.90435e-288
1.44781e-291
-4.28402e-288
6.70218e-292
-1.9306e-288
2.88477e-292
-8.10106e-289
1.14695e-292
-3.14423e-289
4.18121e-293
-1.12042e-289
1.38604e-293
-3.63499e-290
4.1388e-294
-1.0636e-290
1.10144e-294
-2.77687e-291
2.58072e-295
-6.39023e-292
5.24965e-296
-1.27812e-292
9.122e-297
-2.18608e-293
1.3286e-297
-3.13738e-294
1.58619e-298
-3.69468e-295
1.51158e-299
-3.47652e-296
1.11352e-300
-2.53129e-297
6.09713e-302
-1.37131e-298
2.36327e-303
-5.26397e-300
6.09392e-305
-1.34559e-301
9.64152e-307
-2.11253e-303
8.39547e-309
-1.82711e-305
3.45575e-311
-7.47737e-308
5.37355e-314
-1.15712e-310
2.2114e-317
-4.74371e-314
1.27963e-321
-2.74172e-318
0
-4.94066e-324
0
0
0
0
0
0
0
0
0
0
0
0
0
0
0
0
0
0
0
0
0
0
0
0
0
0
0
0
0
0
0
0
0
0
0
0
0
0
0
0
0
0
0
0
0
0
0
0
0
0
0
0
0
0
0
0
0
0
0
0
0
0
0
0
0
0
0
0
0
0
0
0
0
0
0
0
0
0
0
0
0
0
0
0
0
0
0
0
0
0
0
0
0
0
0
0
0
0
0
0
0
0
0
0
0
0
0
0
0
0
0
0
0
0
0
0
0
0
0
0
0
0
0
0
0
0
0
0
0
0
0
0
0
0
0
0
0
0
0
0
0
0
0
0
0
0
0
0
0
0
0
0
0
0
0
0
0
0
0
0
0
0
0
0
0
0
0
0
0
0
0
0
0
0
0
0
0
0
0
0
0
0
0
0
0
0
-2.81617e-322
-3.45846e-323
-4.02041e-319
-2.03298e-319
-3.90969e-316
-4.69097e-316
-2.35308e-313
-6.03464e-313
-7.86894e-311
-4.28071e-310
-1.39696e-308
-1.56313e-307
-1.36372e-306
-2.90418e-305
-7.86176e-305
-2.9098e-303
-2.88252e-303
-1.70739e-301
-7.17183e-302
-6.34986e-300
-1.27739e-300
-1.60052e-298
-1.70239e-299
-2.88741e-297
-1.76166e-298
-3.89878e-296
-1.46002e-297
-4.09002e-295
-9.94403e-297
-3.43892e-294
-5.68627e-296
-2.37828e-293
-2.78018e-295
-1.38222e-292
-1.18117e-294
-6.87551e-292
-4.42263e-294
-2.97496e-291
-1.47695e-293
-1.13568e-290
-4.44475e-293
-3.87123e-290
-1.21649e-292
-1.19059e-289
-3.05319e-292
-3.33429e-289
-7.08072e-292
-8.57413e-289
-1.52761e-291
-2.04004e-288
-3.0837e-291
-4.52183e-288
-5.854e-291
-9.39216e-288
-1.05004e-290
-1.83749e-287
-1.78755e-290
-3.40235e-287
-2.89954e-290
-5.9894e-287
-4.49687e-290
-1.0065e-286
-6.68792e-290
-1.62043e-286
-9.56396e-290
-2.50723e-286
-1.31846e-289
-3.73887e-286
-1.7566e-289
-5.38841e-286
-2.26709e-289
-7.52577e-286
-2.8387e-289
-1.02127e-285
-3.45346e-289
-1.34908e-285
-4.08557e-289
-1.73799e-285
-4.70565e-289
-2.18646e-285
-5.28191e-289
-2.69069e-285
-5.78203e-289
-3.24423e-285
-6.17524e-289
-3.83814e-285
-6.42908e-289
-4.462e-285
-6.51607e-289
-5.10076e-285
-6.4194e-289
-5.73655e-285
-6.13475e-289
-6.35156e-285
-5.66764e-289
-6.93149e-285
-5.02362e-289
-7.46592e-285
-4.21481e-289
-7.93936e-285
-3.26598e-289
-8.33437e-285
-2.13578e-289
-8.63132e-285
-4.03569e-291
-8.51416e-285
-3.27479e-286
1.52335e-286
-1.47965e-281
1.31501e-285
-5.55641e-281
1.95072e-285
-5.26047e-281