/*--------------------------------*- C++ -*----------------------------------*\
| =========                 |                                                 |
| \\      /  F ield         | OpenFOAM: The Open Source CFD Toolbox           |
|  \\    /   O peration     | Version:  2412                                  |
|   \\  /    A nd           | Website:  www.openfoam.com                      |
|    \\/     M anipulation  |                                                 |
\*---------------------------------------------------------------------------*/
FoamFile
{
    version     2.0;
    format      ascii;
    arch        "LSB;label=32;scalar=64";
    class       volScalarField;
    location    "1.01";
    object      p;
}
// * * * * * * * * * * * * * * * * * * * * * * * * * * * * * * * * * * * * * //

dimensions      [1 -1 -2 0 0 0 0];

internalField   nonuniform List<scalar> 
40000
(
0
4.33115e-06
-0.000140864
-0.000502476
-0.00115188
-0.00195251
-0.00287926
-0.0039806
-0.00525089
-0.00668646
-0.00828516
-0.0100452
-0.0119649
-0.0140423
-0.0162756
-0.0186629
-0.0212024
-0.023892
-0.0267298
-0.0297137
-0.0328415
-0.0361111
-0.0395201
-0.0430661
-0.0467466
-0.0505589
-0.0545001
-0.0585673
-0.0627573
-0.0670668
-0.0714926
-0.0760311
-0.0806786
-0.0854315
-0.0902858
-0.0952377
-0.100283
-0.105418
-0.110638
-0.115938
-0.121314
-0.126762
-0.132276
-0.137852
-0.143484
-0.149168
-0.154898
-0.160669
-0.166475
-0.172312
-0.178172
-0.184051
-0.189944
-0.195843
-0.201743
-0.207639
-0.213524
-0.219392
-0.225238
-0.231054
-0.236834
-0.242573
-0.248264
-0.2539
-0.259476
-0.264985
-0.27042
-0.275776
-0.281047
-0.286225
-0.291306
-0.296283
-0.301151
-0.305903
-0.310534
-0.315038
-0.31941
-0.323644
-0.327736
-0.331679
-0.335469
-0.339101
-0.342571
-0.345874
-0.349005
-0.35196
-0.354737
-0.35733
-0.359738
-0.361955
-0.363981
-0.365811
-0.367444
-0.368877
-0.370109
-0.371138
-0.371963
-0.372582
-0.372995
-0.373201
-0.3732
-0.372991
-0.372576
-0.371954
-0.371127
-0.370096
-0.368861
-0.367425
-0.36579
-0.363957
-0.361929
-0.359709
-0.357299
-0.354704
-0.351925
-0.348967
-0.345833
-0.342529
-0.339057
-0.335422
-0.33163
-0.327684
-0.32359
-0.319354
-0.314979
-0.310473
-0.305839
-0.301085
-0.296215
-0.291235
-0.286151
-0.28097
-0.275697
-0.270339
-0.264901
-0.25939
-0.253812
-0.248173
-0.24248
-0.236738
-0.230955
-0.225137
-0.219289
-0.213418
-0.20753
-0.201631
-0.195727
-0.189825
-0.183929
-0.178047
-0.172183
-0.166343
-0.160534
-0.15476
-0.149027
-0.14334
-0.137704
-0.132126
-0.126609
-0.121158
-0.115778
-0.110474
-0.105251
-0.100113
-0.0950636
-0.0901085
-0.0852511
-0.0804948
-0.0758434
-0.071301
-0.0668715
-0.0625579
-0.0583634
-0.0542914
-0.0503453
-0.0465281
-0.0428422
-0.03929
-0.0358741
-0.0325972
-0.029462
-0.0264704
-0.0236245
-0.0209263
-0.0183779
-0.0159813
-0.013738
-0.0116491
-0.00971592
-0.00794007
-0.00632309
-0.00486609
-0.00356985
-0.00243525
-0.00146321
-0.000654251
-8.63458e-06
0.00047275
0.000788951
0.000942278
-3.9237
-3.9236
-3.92385
-3.92431
-3.92495
-3.92575
-3.9267
-3.92781
-3.92909
-3.93053
-3.93213
-3.93389
-3.93582
-3.93789
-3.94013
-3.94252
-3.94506
-3.94775
-3.95059
-3.95358
-3.95671
-3.95998
-3.96339
-3.96694
-3.97062
-3.97444
-3.97838
-3.98245
-3.98664
-3.99096
-3.99539
-3.99993
-4.00458
-4.00934
-4.01419
-4.01915
-4.0242
-4.02934
-4.03456
-4.03987
-4.04525
-4.0507
-4.05622
-4.0618
-4.06744
-4.07312
-4.07886
-4.08464
-4.09045
-4.09629
-4.10215
-4.10804
-4.11394
-4.11984
-4.12575
-4.13165
-4.13754
-4.14341
-4.14927
-4.15509
-4.16087
-4.16662
-4.17231
-4.17796
-4.18354
-4.18905
-4.19449
-4.19986
-4.20513
-4.21032
-4.2154
-4.22039
-4.22526
-4.23002
-4.23465
-4.23916
-4.24354
-4.24778
-4.25188
-4.25582
-4.25962
-4.26325
-4.26673
-4.27003
-4.27317
-4.27613
-4.27891
-4.28151
-4.28392
-4.28614
-4.28816
-4.29
-4.29163
-4.29307
-4.2943
-4.29533
-4.29616
-4.29678
-4.29719
-4.2974
-4.29739
-4.29719
-4.29677
-4.29615
-4.29532
-4.29429
-4.29305
-4.29161
-4.28998
-4.28814
-4.28611
-4.28389
-4.28147
-4.27888
-4.27609
-4.27313
-4.26999
-4.26669
-4.26321
-4.25957
-4.25577
-4.25182
-4.24772
-4.24348
-4.2391
-4.23459
-4.22995
-4.22519
-4.22032
-4.21533
-4.21024
-4.20506
-4.19978
-4.19441
-4.18897
-4.18345
-4.17787
-4.17222
-4.16652
-4.16078
-4.15499
-4.14916
-4.14331
-4.13743
-4.13154
-4.12564
-4.11973
-4.11382
-4.10792
-4.10203
-4.09616
-4.09032
-4.0845
-4.07872
-4.07298
-4.06729
-4.06165
-4.05607
-4.05055
-4.04509
-4.03971
-4.0344
-4.02917
-4.02403
-4.01898
-4.01402
-4.00916
-4.0044
-3.99974
-3.9952
-3.99076
-3.98645
-3.98225
-3.97817
-3.97422
-3.9704
-3.96672
-3.96316
-3.95974
-3.95646
-3.95333
-3.95033
-3.94749
-3.94479
-3.94224
-3.93984
-3.93759
-3.9355
-3.93357
-3.93179
-3.93017
-3.92872
-3.92742
-3.92628
-3.92531
-3.9245
-3.92385
-3.92337
-3.92305
-3.9229
-7.84723
-7.84727
-7.84763
-7.84803
-7.84864
-7.84943
-7.85038
-7.8515
-7.85278
-7.85422
-7.85582
-7.85759
-7.85951
-7.8616
-7.86383
-7.86623
-7.86877
-7.87147
-7.87431
-7.8773
-7.88044
-7.88371
-7.88713
-7.89068
-7.89437
-7.89819
-7.90214
-7.90622
-7.91042
-7.91473
-7.91917
-7.92372
-7.92838
-7.93314
-7.93801
-7.94297
-7.94803
-7.95317
-7.95841
-7.96372
-7.96911
-7.97457
-7.9801
-7.98569
-7.99134
-7.99704
-8.00278
-8.00857
-8.01439
-8.02024
-8.02612
-8.03201
-8.03792
-8.04384
-8.04976
-8.05567
-8.06157
-8.06746
-8.07332
-8.07916
-8.08495
-8.09071
-8.09642
-8.10207
-8.10767
-8.11319
-8.11865
-8.12402
-8.12931
-8.1345
-8.1396
-8.1446
-8.14948
-8.15425
-8.1589
-8.16342
-8.16781
-8.17205
-8.17616
-8.18012
-8.18392
-8.18757
-8.19105
-8.19436
-8.19751
-8.20047
-8.20326
-8.20586
-8.20828
-8.21051
-8.21254
-8.21438
-8.21602
-8.21745
-8.21869
-8.21972
-8.22055
-8.22117
-8.22159
-8.22179
-8.22179
-8.22158
-8.22117
-8.22054
-8.21971
-8.21868
-8.21744
-8.216
-8.21436
-8.21252
-8.21048
-8.20825
-8.20583
-8.20323
-8.20044
-8.19747
-8.19432
-8.19101
-8.18752
-8.18387
-8.18007
-8.17611
-8.172
-8.16775
-8.16336
-8.15884
-8.15419
-8.14942
-8.14453
-8.13953
-8.13443
-8.12923
-8.12394
-8.11857
-8.11311
-8.10758
-8.10199
-8.09633
-8.09062
-8.08486
-8.07906
-8.07322
-8.06736
-8.06147
-8.05556
-8.04964
-8.04372
-8.0378
-8.03189
-8.02599
-8.02011
-8.01426
-8.00843
-8.00264
-7.99689
-7.99119
-7.98554
-7.97995
-7.97442
-7.96895
-7.96356
-7.95824
-7.95301
-7.94786
-7.9428
-7.93783
-7.93296
-7.92819
-7.92353
-7.91898
-7.91454
-7.91022
-7.90601
-7.90193
-7.89798
-7.89415
-7.89046
-7.8869
-7.88347
-7.88019
-7.87705
-7.87405
-7.8712
-7.8685
-7.86594
-7.86354
-7.86129
-7.8592
-7.85726
-7.85549
-7.85387
-7.8524
-7.85111
-7.84997
-7.849
-7.84819
-7.84754
-7.84706
-7.84674
-7.84658
-11.7706
-11.7707
-11.7711
-11.7715
-11.7721
-11.7729
-11.7739
-11.775
-11.7763
-11.7777
-11.7794
-11.7811
-11.7831
-11.7851
-11.7874
-11.7898
-11.7923
-11.795
-11.7979
-11.8009
-11.804
-11.8073
-11.8107
-11.8143
-11.818
-11.8218
-11.8258
-11.8299
-11.8341
-11.8384
-11.8428
-11.8474
-11.8521
-11.8568
-11.8617
-11.8667
-11.8718
-11.8769
-11.8822
-11.8875
-11.8929
-11.8984
-11.9039
-11.9095
-11.9152
-11.9209
-11.9267
-11.9325
-11.9383
-11.9442
-11.9501
-11.956
-11.9619
-11.9678
-11.9738
-11.9797
-11.9856
-11.9915
-11.9974
-12.0033
-12.0091
-12.0149
-12.0206
-12.0263
-12.0319
-12.0374
-12.0429
-12.0483
-12.0536
-12.0588
-12.0639
-12.0689
-12.0738
-12.0786
-12.0833
-12.0878
-12.0922
-12.0965
-12.1006
-12.1046
-12.1084
-12.112
-12.1155
-12.1189
-12.122
-12.125
-12.1278
-12.1304
-12.1328
-12.1351
-12.1371
-12.139
-12.1406
-12.142
-12.1433
-12.1443
-12.1452
-12.1458
-12.1462
-12.1464
-12.1464
-12.1462
-12.1458
-12.1451
-12.1443
-12.1433
-12.142
-12.1406
-12.1389
-12.1371
-12.135
-12.1328
-12.1304
-12.1278
-12.125
-12.122
-12.1188
-12.1155
-12.112
-12.1083
-12.1045
-12.1005
-12.0964
-12.0922
-12.0877
-12.0832
-12.0785
-12.0738
-12.0688
-12.0638
-12.0587
-12.0535
-12.0482
-12.0428
-12.0373
-12.0318
-12.0262
-12.0205
-12.0148
-12.009
-12.0032
-11.9973
-11.9914
-11.9855
-11.9796
-11.9737
-11.9677
-11.9618
-11.9559
-11.9499
-11.944
-11.9382
-11.9323
-11.9265
-11.9208
-11.915
-11.9094
-11.9038
-11.8982
-11.8927
-11.8873
-11.882
-11.8768
-11.8716
-11.8665
-11.8615
-11.8567
-11.8519
-11.8472
-11.8426
-11.8382
-11.8339
-11.8297
-11.8256
-11.8216
-11.8178
-11.8141
-11.8105
-11.8071
-11.8038
-11.8006
-11.7976
-11.7948
-11.7921
-11.7895
-11.7871
-11.7848
-11.7827
-11.7808
-11.779
-11.7774
-11.7759
-11.7746
-11.7735
-11.7725
-11.7717
-11.7711
-11.7706
-11.7703
-11.7701
-15.6939
-15.6941
-15.6944
-15.6949
-15.6955
-15.6963
-15.6972
-15.6984
-15.6997
-15.7011
-15.7027
-15.7045
-15.7064
-15.7085
-15.7108
-15.7132
-15.7157
-15.7184
-15.7213
-15.7243
-15.7275
-15.7308
-15.7342
-15.7378
-15.7415
-15.7453
-15.7493
-15.7534
-15.7576
-15.7619
-15.7664
-15.771
-15.7757
-15.7804
-15.7853
-15.7903
-15.7954
-15.8006
-15.8059
-15.8112
-15.8166
-15.8221
-15.8277
-15.8333
-15.839
-15.8447
-15.8505
-15.8563
-15.8622
-15.8681
-15.874
-15.8799
-15.8859
-15.8918
-15.8978
-15.9037
-15.9097
-15.9156
-15.9215
-15.9274
-15.9332
-15.939
-15.9448
-15.9505
-15.9561
-15.9617
-15.9672
-15.9726
-15.9779
-15.9832
-15.9883
-15.9934
-15.9983
-16.0031
-16.0078
-16.0123
-16.0168
-16.021
-16.0252
-16.0292
-16.033
-16.0367
-16.0402
-16.0435
-16.0467
-16.0497
-16.0525
-16.0551
-16.0576
-16.0598
-16.0619
-16.0637
-16.0654
-16.0668
-16.0681
-16.0691
-16.07
-16.0706
-16.071
-16.0712
-16.0712
-16.071
-16.0706
-16.07
-16.0691
-16.0681
-16.0668
-16.0654
-16.0637
-16.0619
-16.0598
-16.0576
-16.0551
-16.0525
-16.0497
-16.0467
-16.0435
-16.0402
-16.0366
-16.033
-16.0291
-16.0251
-16.021
-16.0167
-16.0123
-16.0077
-16.003
-15.9982
-15.9933
-15.9882
-15.9831
-15.9779
-15.9725
-15.9671
-15.9616
-15.956
-15.9504
-15.9447
-15.9389
-15.9331
-15.9273
-15.9214
-15.9155
-15.9096
-15.9036
-15.8977
-15.8917
-15.8858
-15.8798
-15.8739
-15.8679
-15.8621
-15.8562
-15.8504
-15.8446
-15.8388
-15.8332
-15.8275
-15.822
-15.8165
-15.811
-15.8057
-15.8004
-15.7952
-15.7902
-15.7852
-15.7803
-15.7755
-15.7708
-15.7662
-15.7617
-15.7574
-15.7532
-15.7491
-15.7451
-15.7412
-15.7375
-15.734
-15.7305
-15.7272
-15.7241
-15.7211
-15.7182
-15.7155
-15.7129
-15.7105
-15.7082
-15.7061
-15.7042
-15.7024
-15.7008
-15.6993
-15.698
-15.6969
-15.6959
-15.6951
-15.6944
-15.6939
-15.6936
-15.6935
-19.6171
-19.6172
-19.6176
-19.618
-19.6187
-19.6195
-19.6204
-19.6216
-19.6229
-19.6243
-19.6259
-19.6277
-19.6297
-19.6318
-19.634
-19.6364
-19.639
-19.6417
-19.6446
-19.6476
-19.6508
-19.6541
-19.6575
-19.6611
-19.6648
-19.6687
-19.6727
-19.6768
-19.681
-19.6854
-19.6898
-19.6944
-19.6991
-19.7039
-19.7089
-19.7139
-19.719
-19.7242
-19.7295
-19.7348
-19.7403
-19.7458
-19.7514
-19.757
-19.7627
-19.7685
-19.7743
-19.7801
-19.786
-19.792
-19.7979
-19.8039
-19.8098
-19.8158
-19.8218
-19.8278
-19.8338
-19.8397
-19.8457
-19.8516
-19.8574
-19.8633
-19.8691
-19.8748
-19.8805
-19.8861
-19.8916
-19.897
-19.9024
-19.9077
-19.9128
-19.9179
-19.9228
-19.9277
-19.9324
-19.937
-19.9414
-19.9457
-19.9499
-19.9539
-19.9578
-19.9615
-19.965
-19.9684
-19.9716
-19.9746
-19.9774
-19.9801
-19.9825
-19.9848
-19.9868
-19.9887
-19.9904
-19.9918
-19.9931
-19.9941
-19.995
-19.9956
-19.996
-19.9962
-19.9962
-19.996
-19.9956
-19.995
-19.9941
-19.9931
-19.9918
-19.9904
-19.9887
-19.9868
-19.9848
-19.9825
-19.98
-19.9774
-19.9746
-19.9715
-19.9683
-19.965
-19.9614
-19.9577
-19.9539
-19.9499
-19.9457
-19.9414
-19.9369
-19.9323
-19.9276
-19.9228
-19.9178
-19.9128
-19.9076
-19.9023
-19.8969
-19.8915
-19.886
-19.8804
-19.8747
-19.869
-19.8632
-19.8574
-19.8515
-19.8456
-19.8396
-19.8337
-19.8277
-19.8217
-19.8157
-19.8097
-19.8037
-19.7978
-19.7918
-19.7859
-19.78
-19.7742
-19.7683
-19.7626
-19.7569
-19.7512
-19.7456
-19.7401
-19.7347
-19.7293
-19.724
-19.7188
-19.7137
-19.7087
-19.7038
-19.6989
-19.6942
-19.6896
-19.6852
-19.6808
-19.6766
-19.6724
-19.6685
-19.6646
-19.6609
-19.6573
-19.6538
-19.6505
-19.6474
-19.6443
-19.6415
-19.6387
-19.6362
-19.6337
-19.6315
-19.6294
-19.6274
-19.6256
-19.624
-19.6225
-19.6212
-19.6201
-19.6191
-19.6183
-19.6176
-19.6171
-19.6168
-19.6166
-23.5401
-23.5402
-23.5406
-23.541
-23.5417
-23.5425
-23.5435
-23.5446
-23.5459
-23.5474
-23.549
-23.5508
-23.5527
-23.5548
-23.5571
-23.5595
-23.5621
-23.5648
-23.5677
-23.5707
-23.5739
-23.5772
-23.5807
-23.5843
-23.588
-23.5919
-23.5959
-23.6
-23.6043
-23.6087
-23.6132
-23.6178
-23.6225
-23.6273
-23.6323
-23.6373
-23.6424
-23.6477
-23.653
-23.6584
-23.6638
-23.6694
-23.675
-23.6807
-23.6864
-23.6922
-23.698
-23.7039
-23.7099
-23.7158
-23.7218
-23.7278
-23.7338
-23.7398
-23.7458
-23.7519
-23.7579
-23.7639
-23.7698
-23.7758
-23.7817
-23.7876
-23.7934
-23.7991
-23.8049
-23.8105
-23.8161
-23.8215
-23.8269
-23.8322
-23.8374
-23.8425
-23.8475
-23.8524
-23.8572
-23.8618
-23.8663
-23.8706
-23.8748
-23.8788
-23.8827
-23.8865
-23.89
-23.8934
-23.8966
-23.8997
-23.9025
-23.9052
-23.9076
-23.9099
-23.912
-23.9139
-23.9156
-23.917
-23.9183
-23.9194
-23.9202
-23.9208
-23.9213
-23.9215
-23.9215
-23.9213
-23.9208
-23.9202
-23.9194
-23.9183
-23.917
-23.9155
-23.9139
-23.912
-23.9099
-23.9076
-23.9051
-23.9025
-23.8996
-23.8966
-23.8934
-23.89
-23.8864
-23.8827
-23.8788
-23.8747
-23.8705
-23.8662
-23.8617
-23.8571
-23.8523
-23.8475
-23.8425
-23.8374
-23.8322
-23.8269
-23.8215
-23.816
-23.8104
-23.8048
-23.7991
-23.7933
-23.7875
-23.7816
-23.7757
-23.7697
-23.7638
-23.7578
-23.7518
-23.7457
-23.7397
-23.7337
-23.7277
-23.7217
-23.7157
-23.7097
-23.7038
-23.6979
-23.6921
-23.6863
-23.6805
-23.6749
-23.6692
-23.6637
-23.6582
-23.6528
-23.6475
-23.6423
-23.6371
-23.6321
-23.6272
-23.6223
-23.6176
-23.613
-23.6085
-23.6041
-23.5998
-23.5957
-23.5917
-23.5878
-23.5841
-23.5805
-23.577
-23.5737
-23.5705
-23.5675
-23.5646
-23.5618
-23.5593
-23.5568
-23.5545
-23.5524
-23.5505
-23.5487
-23.547
-23.5456
-23.5442
-23.5431
-23.5421
-23.5413
-23.5406
-23.5401
-23.5398
-23.5397
-27.4629
-27.4631
-27.4634
-27.4639
-27.4645
-27.4653
-27.4663
-27.4675
-27.4688
-27.4702
-27.4719
-27.4737
-27.4756
-27.4778
-27.48
-27.4825
-27.4851
-27.4878
-27.4907
-27.4937
-27.4969
-27.5003
-27.5037
-27.5074
-27.5111
-27.515
-27.519
-27.5232
-27.5275
-27.5319
-27.5364
-27.541
-27.5458
-27.5506
-27.5556
-27.5607
-27.5658
-27.5711
-27.5764
-27.5818
-27.5873
-27.5929
-27.5986
-27.6043
-27.6101
-27.6159
-27.6218
-27.6277
-27.6336
-27.6396
-27.6456
-27.6517
-27.6577
-27.6638
-27.6699
-27.6759
-27.682
-27.688
-27.694
-27.7
-27.706
-27.7119
-27.7178
-27.7236
-27.7293
-27.735
-27.7406
-27.7461
-27.7516
-27.7569
-27.7622
-27.7673
-27.7723
-27.7772
-27.782
-27.7867
-27.7912
-27.7956
-27.7998
-27.8039
-27.8078
-27.8116
-27.8152
-27.8186
-27.8218
-27.8249
-27.8278
-27.8305
-27.833
-27.8353
-27.8374
-27.8393
-27.841
-27.8424
-27.8437
-27.8448
-27.8457
-27.8463
-27.8467
-27.8469
-27.8469
-27.8467
-27.8463
-27.8456
-27.8448
-27.8437
-27.8424
-27.8409
-27.8392
-27.8373
-27.8352
-27.8329
-27.8304
-27.8278
-27.8249
-27.8218
-27.8186
-27.8151
-27.8115
-27.8078
-27.8039
-27.7998
-27.7955
-27.7912
-27.7866
-27.782
-27.7772
-27.7723
-27.7672
-27.7621
-27.7568
-27.7515
-27.7461
-27.7405
-27.7349
-27.7292
-27.7235
-27.7177
-27.7118
-27.7059
-27.6999
-27.6939
-27.6879
-27.6819
-27.6758
-27.6698
-27.6637
-27.6576
-27.6516
-27.6455
-27.6395
-27.6335
-27.6275
-27.6216
-27.6157
-27.6099
-27.6041
-27.5984
-27.5928
-27.5872
-27.5817
-27.5762
-27.5709
-27.5656
-27.5605
-27.5554
-27.5504
-27.5456
-27.5408
-27.5362
-27.5317
-27.5273
-27.523
-27.5188
-27.5148
-27.5109
-27.5071
-27.5035
-27.5
-27.4967
-27.4935
-27.4904
-27.4875
-27.4848
-27.4822
-27.4798
-27.4775
-27.4753
-27.4734
-27.4716
-27.4699
-27.4684
-27.4671
-27.466
-27.465
-27.4641
-27.4635
-27.463
-27.4627
-27.4625
-31.3856
-31.3857
-31.3861
-31.3865
-31.3872
-31.388
-31.389
-31.3902
-31.3915
-31.393
-31.3946
-31.3964
-31.3984
-31.4005
-31.4028
-31.4053
-31.4079
-31.4106
-31.4135
-31.4166
-31.4198
-31.4231
-31.4266
-31.4303
-31.4341
-31.438
-31.442
-31.4462
-31.4505
-31.4549
-31.4595
-31.4641
-31.4689
-31.4738
-31.4788
-31.4839
-31.4891
-31.4944
-31.4998
-31.5052
-31.5108
-31.5164
-31.5221
-31.5278
-31.5336
-31.5395
-31.5454
-31.5514
-31.5574
-31.5634
-31.5695
-31.5756
-31.5817
-31.5878
-31.5939
-31.6
-31.6061
-31.6122
-31.6183
-31.6243
-31.6303
-31.6363
-31.6422
-31.648
-31.6538
-31.6596
-31.6652
-31.6708
-31.6763
-31.6817
-31.687
-31.6922
-31.6973
-31.7022
-31.7071
-31.7118
-31.7163
-31.7207
-31.725
-31.7291
-31.7331
-31.7369
-31.7405
-31.744
-31.7473
-31.7504
-31.7533
-31.756
-31.7585
-31.7608
-31.7629
-31.7649
-31.7666
-31.7681
-31.7694
-31.7704
-31.7713
-31.772
-31.7724
-31.7726
-31.7726
-31.7724
-31.7719
-31.7713
-31.7704
-31.7693
-31.7681
-31.7665
-31.7648
-31.7629
-31.7608
-31.7585
-31.7559
-31.7532
-31.7503
-31.7472
-31.7439
-31.7405
-31.7369
-31.7331
-31.7291
-31.725
-31.7207
-31.7163
-31.7117
-31.707
-31.7022
-31.6972
-31.6921
-31.6869
-31.6816
-31.6762
-31.6707
-31.6652
-31.6595
-31.6538
-31.648
-31.6421
-31.6362
-31.6302
-31.6242
-31.6182
-31.6121
-31.606
-31.5999
-31.5938
-31.5877
-31.5816
-31.5755
-31.5694
-31.5633
-31.5573
-31.5513
-31.5453
-31.5394
-31.5335
-31.5277
-31.5219
-31.5162
-31.5106
-31.5051
-31.4996
-31.4942
-31.4889
-31.4837
-31.4786
-31.4736
-31.4687
-31.464
-31.4593
-31.4547
-31.4503
-31.446
-31.4418
-31.4378
-31.4338
-31.4301
-31.4264
-31.4229
-31.4196
-31.4163
-31.4133
-31.4104
-31.4076
-31.405
-31.4025
-31.4002
-31.3981
-31.3961
-31.3943
-31.3926
-31.3911
-31.3898
-31.3887
-31.3877
-31.3868
-31.3862
-31.3857
-31.3854
-31.3852
-35.3081
-35.3082
-35.3086
-35.3091
-35.3097
-35.3105
-35.3115
-35.3127
-35.314
-35.3155
-35.3172
-35.319
-35.321
-35.3231
-35.3254
-35.3279
-35.3305
-35.3333
-35.3362
-35.3393
-35.3425
-35.3459
-35.3494
-35.3531
-35.3569
-35.3608
-35.3649
-35.3691
-35.3734
-35.3779
-35.3825
-35.3872
-35.392
-35.3969
-35.4019
-35.4071
-35.4123
-35.4176
-35.423
-35.4285
-35.4341
-35.4398
-35.4455
-35.4513
-35.4572
-35.4631
-35.4691
-35.4751
-35.4811
-35.4872
-35.4933
-35.4995
-35.5056
-35.5118
-35.5179
-35.5241
-35.5303
-35.5364
-35.5425
-35.5486
-35.5547
-35.5607
-35.5667
-35.5726
-35.5784
-35.5842
-35.5899
-35.5956
-35.6011
-35.6066
-35.6119
-35.6172
-35.6223
-35.6273
-35.6322
-35.637
-35.6416
-35.646
-35.6504
-35.6545
-35.6585
-35.6624
-35.666
-35.6695
-35.6728
-35.676
-35.6789
-35.6817
-35.6842
-35.6866
-35.6887
-35.6906
-35.6924
-35.6939
-35.6952
-35.6963
-35.6972
-35.6978
-35.6983
-35.6985
-35.6985
-35.6983
-35.6978
-35.6972
-35.6963
-35.6952
-35.6939
-35.6924
-35.6906
-35.6887
-35.6865
-35.6842
-35.6816
-35.6789
-35.6759
-35.6728
-35.6695
-35.666
-35.6623
-35.6585
-35.6545
-35.6503
-35.646
-35.6415
-35.6369
-35.6321
-35.6273
-35.6222
-35.6171
-35.6119
-35.6065
-35.6011
-35.5955
-35.5899
-35.5842
-35.5784
-35.5725
-35.5666
-35.5606
-35.5546
-35.5485
-35.5424
-35.5363
-35.5302
-35.524
-35.5178
-35.5117
-35.5055
-35.4993
-35.4932
-35.4871
-35.481
-35.4749
-35.4689
-35.4629
-35.457
-35.4512
-35.4454
-35.4396
-35.434
-35.4284
-35.4229
-35.4174
-35.4121
-35.4069
-35.4017
-35.3967
-35.3918
-35.387
-35.3823
-35.3777
-35.3732
-35.3689
-35.3647
-35.3606
-35.3567
-35.3529
-35.3492
-35.3457
-35.3423
-35.339
-35.336
-35.333
-35.3302
-35.3276
-35.3251
-35.3228
-35.3207
-35.3187
-35.3169
-35.3152
-35.3137
-35.3124
-35.3112
-35.3102
-35.3094
-35.3087
-35.3082
-35.3079
-35.3077
-39.2304
-39.2306
-39.2309
-39.2314
-39.2321
-39.2329
-39.2339
-39.2351
-39.2364
-39.2379
-39.2396
-39.2414
-39.2434
-39.2456
-39.2479
-39.2504
-39.253
-39.2558
-39.2587
-39.2618
-39.2651
-39.2685
-39.272
-39.2757
-39.2795
-39.2835
-39.2876
-39.2919
-39.2962
-39.3007
-39.3053
-39.3101
-39.3149
-39.3199
-39.3249
-39.3301
-39.3354
-39.3407
-39.3462
-39.3518
-39.3574
-39.3631
-39.3689
-39.3747
-39.3806
-39.3866
-39.3926
-39.3987
-39.4048
-39.4109
-39.4171
-39.4233
-39.4295
-39.4358
-39.442
-39.4482
-39.4544
-39.4606
-39.4668
-39.473
-39.4791
-39.4852
-39.4912
-39.4972
-39.5031
-39.509
-39.5147
-39.5204
-39.526
-39.5316
-39.537
-39.5423
-39.5475
-39.5525
-39.5575
-39.5623
-39.567
-39.5715
-39.5759
-39.5801
-39.5841
-39.588
-39.5917
-39.5953
-39.5986
-39.6018
-39.6048
-39.6075
-39.6101
-39.6125
-39.6147
-39.6166
-39.6184
-39.6199
-39.6213
-39.6224
-39.6233
-39.6239
-39.6244
-39.6246
-39.6246
-39.6244
-39.6239
-39.6233
-39.6224
-39.6213
-39.6199
-39.6184
-39.6166
-39.6147
-39.6125
-39.6101
-39.6075
-39.6047
-39.6018
-39.5986
-39.5952
-39.5917
-39.588
-39.5841
-39.58
-39.5758
-39.5714
-39.5669
-39.5622
-39.5574
-39.5525
-39.5474
-39.5422
-39.5369
-39.5315
-39.526
-39.5204
-39.5147
-39.5089
-39.503
-39.4971
-39.4911
-39.4851
-39.479
-39.4729
-39.4667
-39.4605
-39.4543
-39.4481
-39.4419
-39.4356
-39.4294
-39.4232
-39.417
-39.4108
-39.4047
-39.3986
-39.3925
-39.3865
-39.3805
-39.3746
-39.3687
-39.3629
-39.3572
-39.3516
-39.3461
-39.3406
-39.3352
-39.3299
-39.3248
-39.3197
-39.3147
-39.3099
-39.3051
-39.3005
-39.296
-39.2917
-39.2874
-39.2833
-39.2793
-39.2755
-39.2718
-39.2683
-39.2649
-39.2616
-39.2585
-39.2555
-39.2527
-39.2501
-39.2476
-39.2453
-39.2431
-39.2411
-39.2393
-39.2376
-39.2361
-39.2347
-39.2336
-39.2326
-39.2317
-39.2311
-39.2306
-39.2302
-39.2301
-43.1526
-43.1527
-43.1531
-43.1536
-43.1542
-43.1551
-43.1561
-43.1573
-43.1586
-43.1601
-43.1618
-43.1636
-43.1657
-43.1678
-43.1702
-43.1727
-43.1753
-43.1781
-43.1811
-43.1842
-43.1875
-43.1909
-43.1945
-43.1982
-43.2021
-43.2061
-43.2102
-43.2145
-43.2189
-43.2234
-43.2281
-43.2328
-43.2377
-43.2427
-43.2478
-43.2531
-43.2584
-43.2638
-43.2693
-43.2749
-43.2806
-43.2863
-43.2922
-43.2981
-43.3041
-43.3101
-43.3162
-43.3223
-43.3285
-43.3347
-43.3409
-43.3472
-43.3534
-43.3597
-43.366
-43.3723
-43.3786
-43.3849
-43.3911
-43.3974
-43.4036
-43.4097
-43.4158
-43.4219
-43.4278
-43.4338
-43.4396
-43.4454
-43.4511
-43.4566
-43.4621
-43.4675
-43.4727
-43.4779
-43.4829
-43.4878
-43.4925
-43.4971
-43.5015
-43.5058
-43.5099
-43.5138
-43.5176
-43.5212
-43.5246
-43.5278
-43.5308
-43.5336
-43.5363
-43.5387
-43.5409
-43.5429
-43.5446
-43.5462
-43.5475
-43.5487
-43.5496
-43.5502
-43.5507
-43.5509
-43.5509
-43.5507
-43.5502
-43.5496
-43.5487
-43.5475
-43.5462
-43.5446
-43.5428
-43.5408
-43.5386
-43.5362
-43.5336
-43.5308
-43.5278
-43.5245
-43.5211
-43.5176
-43.5138
-43.5098
-43.5057
-43.5015
-43.497
-43.4924
-43.4877
-43.4828
-43.4778
-43.4727
-43.4674
-43.462
-43.4566
-43.451
-43.4453
-43.4395
-43.4337
-43.4278
-43.4218
-43.4157
-43.4096
-43.4035
-43.3973
-43.391
-43.3848
-43.3785
-43.3722
-43.3659
-43.3596
-43.3533
-43.347
-43.3408
-43.3345
-43.3283
-43.3222
-43.316
-43.3099
-43.3039
-43.2979
-43.292
-43.2862
-43.2804
-43.2747
-43.2691
-43.2636
-43.2582
-43.2529
-43.2477
-43.2426
-43.2375
-43.2327
-43.2279
-43.2232
-43.2187
-43.2143
-43.21
-43.2059
-43.2019
-43.198
-43.1943
-43.1907
-43.1873
-43.184
-43.1809
-43.1779
-43.1751
-43.1724
-43.1699
-43.1676
-43.1654
-43.1634
-43.1615
-43.1598
-43.1583
-43.157
-43.1558
-43.1548
-43.1539
-43.1532
-43.1527
-43.1524
-43.1523
-47.0746
-47.0747
-47.0751
-47.0756
-47.0762
-47.0771
-47.0781
-47.0793
-47.0806
-47.0822
-47.0839
-47.0857
-47.0878
-47.0899
-47.0923
-47.0948
-47.0975
-47.1003
-47.1033
-47.1065
-47.1098
-47.1132
-47.1168
-47.1206
-47.1245
-47.1285
-47.1327
-47.137
-47.1414
-47.146
-47.1507
-47.1555
-47.1604
-47.1655
-47.1706
-47.1759
-47.1813
-47.1867
-47.1923
-47.198
-47.2037
-47.2095
-47.2154
-47.2214
-47.2274
-47.2335
-47.2396
-47.2458
-47.2521
-47.2583
-47.2647
-47.271
-47.2773
-47.2837
-47.2901
-47.2964
-47.3028
-47.3091
-47.3155
-47.3218
-47.328
-47.3343
-47.3405
-47.3466
-47.3527
-47.3586
-47.3646
-47.3704
-47.3762
-47.3818
-47.3874
-47.3928
-47.3982
-47.4034
-47.4084
-47.4134
-47.4182
-47.4228
-47.4273
-47.4317
-47.4358
-47.4398
-47.4436
-47.4473
-47.4507
-47.454
-47.4571
-47.4599
-47.4626
-47.465
-47.4673
-47.4693
-47.4711
-47.4727
-47.474
-47.4752
-47.4761
-47.4768
-47.4772
-47.4775
-47.4775
-47.4772
-47.4768
-47.4761
-47.4752
-47.474
-47.4727
-47.4711
-47.4693
-47.4672
-47.465
-47.4626
-47.4599
-47.457
-47.454
-47.4507
-47.4472
-47.4436
-47.4398
-47.4358
-47.4316
-47.4273
-47.4228
-47.4181
-47.4133
-47.4084
-47.4033
-47.3981
-47.3928
-47.3873
-47.3818
-47.3761
-47.3703
-47.3645
-47.3586
-47.3526
-47.3465
-47.3404
-47.3342
-47.3279
-47.3217
-47.3154
-47.309
-47.3027
-47.2963
-47.29
-47.2836
-47.2772
-47.2709
-47.2645
-47.2582
-47.2519
-47.2457
-47.2395
-47.2334
-47.2273
-47.2212
-47.2153
-47.2094
-47.2036
-47.1978
-47.1922
-47.1866
-47.1811
-47.1757
-47.1705
-47.1653
-47.1603
-47.1553
-47.1505
-47.1458
-47.1412
-47.1368
-47.1325
-47.1283
-47.1243
-47.1204
-47.1166
-47.113
-47.1096
-47.1062
-47.1031
-47.1001
-47.0973
-47.0946
-47.092
-47.0897
-47.0875
-47.0855
-47.0836
-47.0819
-47.0804
-47.079
-47.0778
-47.0768
-47.0759
-47.0753
-47.0748
-47.0744
-47.0743
-50.9964
-50.9966
-50.9969
-50.9974
-50.9981
-50.9989
-51
-51.0012
-51.0025
-51.0041
-51.0058
-51.0076
-51.0097
-51.0119
-51.0143
-51.0168
-51.0195
-51.0224
-51.0254
-51.0286
-51.0319
-51.0354
-51.039
-51.0428
-51.0467
-51.0508
-51.055
-51.0594
-51.0638
-51.0684
-51.0732
-51.078
-51.083
-51.0881
-51.0933
-51.0987
-51.1041
-51.1096
-51.1152
-51.1209
-51.1267
-51.1326
-51.1386
-51.1446
-51.1507
-51.1569
-51.1631
-51.1693
-51.1757
-51.182
-51.1884
-51.1948
-51.2012
-51.2077
-51.2141
-51.2206
-51.227
-51.2334
-51.2398
-51.2462
-51.2526
-51.2589
-51.2652
-51.2714
-51.2775
-51.2836
-51.2896
-51.2955
-51.3014
-51.3071
-51.3127
-51.3183
-51.3237
-51.329
-51.3341
-51.3391
-51.344
-51.3487
-51.3533
-51.3577
-51.3619
-51.366
-51.3699
-51.3736
-51.3771
-51.3804
-51.3835
-51.3864
-51.3891
-51.3916
-51.3939
-51.3959
-51.3978
-51.3994
-51.4008
-51.4019
-51.4029
-51.4036
-51.404
-51.4042
-51.4042
-51.404
-51.4035
-51.4028
-51.4019
-51.4008
-51.3994
-51.3978
-51.3959
-51.3939
-51.3916
-51.3891
-51.3864
-51.3835
-51.3804
-51.377
-51.3735
-51.3698
-51.3659
-51.3619
-51.3576
-51.3532
-51.3487
-51.344
-51.3391
-51.3341
-51.3289
-51.3236
-51.3182
-51.3127
-51.307
-51.3013
-51.2955
-51.2895
-51.2835
-51.2774
-51.2713
-51.2651
-51.2588
-51.2525
-51.2461
-51.2397
-51.2333
-51.2269
-51.2204
-51.214
-51.2075
-51.2011
-51.1947
-51.1883
-51.1819
-51.1755
-51.1692
-51.1629
-51.1567
-51.1506
-51.1445
-51.1384
-51.1325
-51.1266
-51.1208
-51.1151
-51.1094
-51.1039
-51.0985
-51.0932
-51.088
-51.0829
-51.0779
-51.073
-51.0683
-51.0636
-51.0592
-51.0548
-51.0506
-51.0465
-51.0426
-51.0388
-51.0352
-51.0317
-51.0283
-51.0252
-51.0221
-51.0193
-51.0166
-51.014
-51.0116
-51.0094
-51.0074
-51.0055
-51.0038
-51.0022
-51.0009
-50.9997
-50.9986
-50.9978
-50.9971
-50.9966
-50.9963
-50.9961
-54.918
-54.9182
-54.9185
-54.9191
-54.9197
-54.9206
-54.9216
-54.9228
-54.9242
-54.9258
-54.9275
-54.9294
-54.9315
-54.9337
-54.9361
-54.9387
-54.9414
-54.9443
-54.9473
-54.9505
-54.9539
-54.9574
-54.9611
-54.9649
-54.9688
-54.973
-54.9772
-54.9816
-54.9861
-54.9908
-54.9956
-55.0005
-55.0055
-55.0107
-55.0159
-55.0213
-55.0268
-55.0324
-55.0381
-55.0438
-55.0497
-55.0556
-55.0617
-55.0678
-55.0739
-55.0802
-55.0865
-55.0928
-55.0992
-55.1056
-55.1121
-55.1186
-55.1251
-55.1316
-55.1381
-55.1447
-55.1512
-55.1577
-55.1642
-55.1707
-55.1772
-55.1836
-55.1899
-55.1962
-55.2025
-55.2086
-55.2147
-55.2207
-55.2267
-55.2325
-55.2382
-55.2438
-55.2493
-55.2547
-55.2599
-55.265
-55.27
-55.2748
-55.2794
-55.2839
-55.2882
-55.2923
-55.2963
-55.3
-55.3036
-55.307
-55.3102
-55.3131
-55.3159
-55.3184
-55.3207
-55.3228
-55.3247
-55.3263
-55.3277
-55.3289
-55.3298
-55.3306
-55.331
-55.3313
-55.3313
-55.331
-55.3305
-55.3298
-55.3289
-55.3277
-55.3263
-55.3247
-55.3228
-55.3207
-55.3184
-55.3158
-55.3131
-55.3101
-55.307
-55.3036
-55.3
-55.2962
-55.2923
-55.2882
-55.2839
-55.2794
-55.2747
-55.2699
-55.265
-55.2599
-55.2546
-55.2493
-55.2438
-55.2382
-55.2324
-55.2266
-55.2207
-55.2147
-55.2086
-55.2024
-55.1961
-55.1898
-55.1835
-55.1771
-55.1706
-55.1641
-55.1576
-55.1511
-55.1446
-55.138
-55.1315
-55.125
-55.1185
-55.112
-55.1055
-55.0991
-55.0927
-55.0863
-55.08
-55.0738
-55.0676
-55.0615
-55.0555
-55.0495
-55.0437
-55.0379
-55.0322
-55.0266
-55.0211
-55.0158
-55.0105
-55.0053
-55.0003
-54.9954
-54.9906
-54.9859
-54.9814
-54.977
-54.9728
-54.9686
-54.9647
-54.9608
-54.9572
-54.9537
-54.9503
-54.9471
-54.944
-54.9411
-54.9384
-54.9358
-54.9334
-54.9312
-54.9291
-54.9272
-54.9255
-54.924
-54.9226
-54.9214
-54.9203
-54.9195
-54.9188
-54.9183
-54.9179
-54.9177
-58.8395
-58.8397
-58.84
-58.8405
-58.8412
-58.8421
-58.8431
-58.8444
-58.8458
-58.8473
-58.8491
-58.851
-58.8531
-58.8553
-58.8577
-58.8603
-58.8631
-58.866
-58.8691
-58.8723
-58.8757
-58.8792
-58.883
-58.8868
-58.8908
-58.895
-58.8993
-58.9037
-58.9083
-58.913
-58.9178
-58.9228
-58.9279
-58.9331
-58.9384
-58.9438
-58.9494
-58.955
-58.9608
-58.9666
-58.9726
-58.9786
-58.9847
-58.9909
-58.9971
-59.0034
-59.0098
-59.0162
-59.0227
-59.0292
-59.0358
-59.0423
-59.0489
-59.0556
-59.0622
-59.0688
-59.0754
-59.0821
-59.0887
-59.0952
-59.1018
-59.1083
-59.1147
-59.1211
-59.1275
-59.1337
-59.1399
-59.146
-59.1521
-59.158
-59.1638
-59.1695
-59.1751
-59.1806
-59.1859
-59.1911
-59.1961
-59.201
-59.2057
-59.2103
-59.2147
-59.2189
-59.2229
-59.2267
-59.2303
-59.2338
-59.237
-59.24
-59.2428
-59.2454
-59.2478
-59.2499
-59.2518
-59.2535
-59.2549
-59.2561
-59.2571
-59.2578
-59.2583
-59.2585
-59.2585
-59.2583
-59.2578
-59.2571
-59.2561
-59.2549
-59.2535
-59.2518
-59.2499
-59.2477
-59.2454
-59.2428
-59.24
-59.237
-59.2337
-59.2303
-59.2267
-59.2228
-59.2188
-59.2146
-59.2102
-59.2057
-59.201
-59.1961
-59.191
-59.1858
-59.1805
-59.175
-59.1695
-59.1637
-59.1579
-59.152
-59.146
-59.1399
-59.1337
-59.1274
-59.121
-59.1146
-59.1082
-59.1017
-59.0951
-59.0886
-59.082
-59.0753
-59.0687
-59.0621
-59.0554
-59.0488
-59.0422
-59.0356
-59.0291
-59.0226
-59.0161
-59.0097
-59.0033
-58.997
-58.9907
-58.9846
-58.9784
-58.9724
-58.9665
-58.9606
-58.9549
-58.9492
-58.9437
-58.9382
-58.9329
-58.9277
-58.9226
-58.9176
-58.9128
-58.9081
-58.9035
-58.8991
-58.8948
-58.8906
-58.8866
-58.8827
-58.879
-58.8755
-58.8721
-58.8688
-58.8658
-58.8628
-58.8601
-58.8575
-58.8551
-58.8528
-58.8507
-58.8488
-58.8471
-58.8455
-58.8441
-58.8429
-58.8418
-58.841
-58.8403
-58.8397
-58.8394
-58.8392
-62.7608
-62.761
-62.7613
-62.7618
-62.7625
-62.7634
-62.7645
-62.7657
-62.7671
-62.7687
-62.7705
-62.7724
-62.7745
-62.7768
-62.7792
-62.7818
-62.7846
-62.7876
-62.7907
-62.7939
-62.7974
-62.8009
-62.8047
-62.8086
-62.8126
-62.8168
-62.8212
-62.8257
-62.8303
-62.835
-62.8399
-62.845
-62.8501
-62.8554
-62.8608
-62.8663
-62.8719
-62.8776
-62.8834