/*--------------------------------*- C++ -*----------------------------------*\
| =========                 |                                                 |
| \\      /  F ield         | OpenFOAM: The Open Source CFD Toolbox           |
|  \\    /   O peration     | Version:  2412                                  |
|   \\  /    A nd           | Website:  www.openfoam.com                      |
|    \\/     M anipulation  |                                                 |
\*---------------------------------------------------------------------------*/
FoamFile
{
    version     2.0;
    format      ascii;
    arch        "LSB;label=32;scalar=64";
    class       volScalarField;
    location    "1.01";
    object      p_rgh;
}
// * * * * * * * * * * * * * * * * * * * * * * * * * * * * * * * * * * * * * //

dimensions      [1 -1 -2 0 0 0 0];

internalField   nonuniform List<scalar> 
40000
(
1.962
1.962
1.96186
1.9615
1.96085
1.96005
1.95912
1.95802
1.95675
1.95531
1.95371
1.95195
1.95004
1.94796
1.94572
1.94334
1.9408
1.93811
1.93527
1.93229
1.92916
1.92589
1.92248
1.91893
1.91525
1.91144
1.9075
1.90343
1.89924
1.89493
1.89051
1.88597
1.88132
1.87657
1.87171
1.86676
1.86172
1.85658
1.85136
1.84606
1.84069
1.83524
1.82972
1.82415
1.81852
1.81283
1.8071
1.80133
1.79552
1.78969
1.78383
1.77795
1.77206
1.76616
1.76026
1.75436
1.74848
1.74261
1.73676
1.73095
1.72517
1.71943
1.71374
1.7081
1.70252
1.69702
1.69158
1.68622
1.68095
1.67577
1.67069
1.66572
1.66085
1.6561
1.65147
1.64696
1.64259
1.63836
1.63426
1.63032
1.62653
1.6229
1.61943
1.61613
1.613
1.61004
1.60726
1.60467
1.60226
1.60004
1.59802
1.59619
1.59456
1.59312
1.59189
1.59086
1.59004
1.58942
1.58901
1.5888
1.5888
1.58901
1.58942
1.59005
1.59087
1.5919
1.59314
1.59457
1.59621
1.59804
1.60007
1.60229
1.6047
1.6073
1.61008
1.61303
1.61617
1.61947
1.62294
1.62658
1.63037
1.63432
1.63841
1.64265
1.64702
1.65153
1.65616
1.66092
1.66579
1.67077
1.67585
1.68103
1.6863
1.69166
1.6971
1.70261
1.70819
1.71383
1.71952
1.72526
1.73104
1.73686
1.74271
1.74858
1.75447
1.76037
1.76627
1.77218
1.77807
1.78395
1.78982
1.79566
1.80147
1.80724
1.81297
1.81866
1.8243
1.82987
1.83539
1.84084
1.84622
1.85153
1.85675
1.86189
1.86694
1.87189
1.87675
1.88151
1.88616
1.8907
1.89513
1.89944
1.90364
1.90771
1.91165
1.91547
1.91916
1.92271
1.92613
1.9294
1.93254
1.93553
1.93838
1.94107
1.94362
1.94602
1.94826
1.95035
1.95228
1.95406
1.95568
1.95713
1.95843
1.95956
1.96054
1.96135
1.96199
1.96247
1.96279
1.96294
1.9623
1.9624
1.96215
1.96169
1.96105
1.96025
1.9593
1.95819
1.95691
1.95547
1.95387
1.95211
1.95018
1.94811
1.94587
1.94348
1.94094
1.93825
1.93541
1.93242
1.92929
1.92602
1.92261
1.91906
1.91538
1.91156
1.90762
1.90355
1.89936
1.89504
1.89061
1.88607
1.88142
1.87666
1.87181
1.86685
1.8618
1.85666
1.85144
1.84613
1.84075
1.8353
1.82978
1.8242
1.81856
1.81288
1.80714
1.80136
1.79555
1.78971
1.78385
1.77796
1.77206
1.76616
1.76025
1.75435
1.74846
1.74259
1.73673
1.73091
1.72513
1.71938
1.71369
1.70804
1.70246
1.69695
1.69151
1.68614
1.68087
1.67568
1.6706
1.66561
1.66074
1.65598
1.65135
1.64684
1.64246
1.63822
1.63412
1.63018
1.62638
1.62275
1.61927
1.61597
1.61283
1.60987
1.60709
1.60449
1.60208
1.59986
1.59784
1.596
1.59437
1.59293
1.5917
1.59067
1.58984
1.58922
1.58881
1.5886
1.58861
1.58881
1.58923
1.58985
1.59068
1.59171
1.59295
1.59439
1.59602
1.59786
1.59989
1.60211
1.60453
1.60712
1.60991
1.61287
1.61601
1.61931
1.62279
1.62643
1.63023
1.63418
1.63828
1.64252
1.6469
1.65141
1.65605
1.66081
1.66568
1.67067
1.67576
1.68094
1.68622
1.69159
1.69703
1.70255
1.70813
1.71378
1.71948
1.72522
1.73101
1.73684
1.74269
1.74857
1.75446
1.76036
1.76627
1.77218
1.77808
1.78397
1.78984
1.79568
1.8015
1.80728
1.81302
1.81871
1.82435
1.82993
1.83545
1.84091
1.84629
1.8516
1.85683
1.86197
1.86702
1.87198
1.87684
1.8816
1.88626
1.8908
1.89524
1.89955
1.90375
1.90783
1.91178
1.9156
1.91928
1.92284
1.92626
1.92954
1.93267
1.93567
1.93851
1.94121
1.94376
1.94616
1.94841
1.9505
1.95243
1.95421
1.95583
1.95728
1.95858
1.95972
1.96069
1.9615
1.96215
1.96263
1.96295
1.9631
1.96277
1.96273
1.96237
1.96197
1.96136
1.96057
1.95962
1.9585
1.95722
1.95578
1.95418
1.95241
1.95049
1.9484
1.94617
1.94377
1.94123
1.93853
1.93569
1.9327
1.92956
1.92629
1.92287
1.91932
1.91563
1.91181
1.90786
1.90378
1.89958
1.89527
1.89083
1.88628
1.88162
1.87686
1.87199
1.86703
1.86197
1.85683
1.85159
1.84628
1.84089
1.83543
1.8299
1.82431
1.81866
1.81296
1.80722
1.80143
1.79561
1.78976
1.78388
1.77799
1.77208
1.76616
1.76024
1.75433
1.74843
1.74254
1.73668
1.73084
1.72505
1.71929
1.71358
1.70793
1.70233
1.69681
1.69135
1.68598
1.68069
1.6755
1.6704
1.6654
1.66052
1.65575
1.6511
1.64658
1.64219
1.63795
1.63384
1.62988
1.62608
1.62243
1.61895
1.61564
1.61249
1.60953
1.60674
1.60414
1.60172
1.59949
1.59746
1.59562
1.59398
1.59255
1.59131
1.59028
1.58945
1.58883
1.58841
1.58821
1.58821
1.58842
1.58883
1.58946
1.59029
1.59132
1.59256
1.594
1.59564
1.59748
1.59952
1.60175
1.60417
1.60677
1.60956
1.61253
1.61568
1.61899
1.62248
1.62613
1.62993
1.63389
1.638
1.64225
1.64664
1.65116
1.65581
1.66058
1.66547
1.67047
1.67557
1.68077
1.68606
1.69143
1.69689
1.70242
1.70801
1.71367
1.71938
1.72514
1.73094
1.73678
1.74264
1.74853
1.75444
1.76036
1.76628
1.7722
1.77811
1.78401
1.78989
1.79574
1.80157
1.80736
1.81311
1.81881
1.82446
1.83005
1.83558
1.84105
1.84644
1.85176
1.85699
1.86214
1.8672
1.87217
1.87704
1.88181
1.88647
1.89102
1.89546
1.89978
1.90399
1.90807
1.91202
1.91585
1.91954
1.9231
1.92653
1.92981
1.93295
1.93595
1.9388
1.9415
1.94406
1.94646
1.94871
1.9508
1.95274
1.95451
1.95613
1.9576
1.95889
1.96003
1.961
1.96181
1.96246
1.96294
1.96326
1.96342
1.96337
1.96326
1.96293
1.96248
1.96185
1.96106
1.96011
1.95899
1.9577
1.95625
1.95464
1.95287
1.95095
1.94886
1.94662
1.94422
1.94167
1.93897
1.93612
1.93312
1.92998
1.9267
1.92327
1.91971
1.91602
1.91219
1.90823
1.90414
1.89993
1.89561
1.89116
1.8866
1.88193
1.87716
1.87228
1.8673
1.86223
1.85707
1.85183
1.8465
1.8411
1.83562
1.83008
1.82448
1.81881
1.8131
1.80734
1.80154
1.7957
1.78983
1.78394
1.77802
1.7721
1.76616
1.76023
1.7543
1.74838
1.74247
1.73659
1.73074
1.72492
1.71915
1.71342
1.70775
1.70214
1.69659
1.69112
1.68573
1.68042
1.67521
1.67009
1.66508
1.66018
1.65539
1.65073
1.64619
1.64179
1.63753
1.63341
1.62943
1.62562
1.62196
1.61846
1.61513
1.61198
1.609
1.6062
1.60359
1.60117
1.59893
1.59689
1.59505
1.5934
1.59195
1.59071
1.58968
1.58885
1.58822
1.58781
1.5876
1.5876
1.58781
1.58823
1.58885
1.58969
1.59073
1.59197
1.59342
1.59507
1.59691
1.59896
1.60119
1.60362
1.60624
1.60904
1.61202
1.61517
1.6185
1.622
1.62566
1.62948
1.63346
1.63758
1.64185
1.64625
1.65079
1.65546
1.66025
1.66515
1.67016
1.67528
1.6805
1.68581
1.6912
1.69668
1.70222
1.70784
1.71351
1.71924
1.72502
1.73084
1.73669
1.74258
1.74848
1.75441
1.76034
1.76628
1.77222
1.77815
1.78406
1.78996
1.79583
1.80167
1.80748
1.81324
1.81896
1.82462
1.83023
1.83578
1.84126
1.84666
1.85199
1.85724
1.8624
1.86748
1.87246
1.87734
1.88212
1.88679
1.89135
1.8958
1.90013
1.90435
1.90844
1.9124
1.91623
1.91994
1.9235
1.92693
1.93022
1.93337
1.93638
1.93923
1.94194
1.9445
1.94691
1.94916
1.95126
1.9532
1.95498
1.9566
1.95807
1.95937
1.96051
1.96148
1.96229
1.96294
1.96342
1.96374
1.9639
1.96405
1.96393
1.9636
1.96314
1.96252
1.96172
1.96076
1.95963
1.95834
1.95689
1.95527
1.9535
1.95156
1.94947
1.94722
1.94482
1.94226
1.93955
1.93669
1.93369
1.93054
1.92725
1.92381
1.92024
1.91653
1.91269
1.90872
1.90463
1.9004
1.89606
1.8916
1.88703
1.88235
1.87756
1.87266
1.86767
1.86259
1.85741
1.85215
1.8468
1.84138
1.83589
1.83032
1.8247
1.81902
1.81328
1.8075
1.80168
1.79582
1.78993
1.78401
1.77807
1.77213
1.76617
1.76021
1.75425
1.74831
1.74238
1.73648
1.7306
1.72476
1.71896
1.71321
1.70751
1.70187
1.69631
1.69081
1.68539
1.68006
1.67482
1.66969
1.66465
1.65973
1.65492
1.65023
1.64567
1.64125
1.63696
1.63282
1.62883
1.62499
1.62132
1.6178
1.61446
1.61129
1.6083
1.60549
1.60286
1.60042
1.59817
1.59612
1.59427
1.59261
1.59116
1.58991
1.58887
1.58804
1.58741
1.58699
1.58678
1.58678
1.58699
1.58741
1.58804
1.58888
1.58993
1.59118
1.59263
1.59429
1.59615
1.5982
1.60045
1.60289
1.60552
1.60833
1.61133
1.6145
1.61785
1.62136
1.62504
1.62888
1.63287
1.63702
1.64131
1.64573
1.65029
1.65498
1.65979
1.66472
1.66976
1.6749
1.68014
1.68547
1.69089
1.69639
1.70196
1.7076
1.7133
1.71905
1.72486
1.7307
1.73658
1.74249
1.74842
1.75436
1.76032
1.76628
1.77224
1.7782
1.78414
1.79005
1.79595
1.80181
1.80764
1.81342
1.81916
1.82485
1.83047
1.83604
1.84154
1.84696
1.85231
1.85758
1.86276
1.86785
1.87284
1.87774
1.88253
1.88722
1.89179
1.89626
1.9006
1.90483
1.90893
1.91291
1.91675
1.92046
1.92404
1.92748
1.93078
1.93394
1.93695
1.93982
1.94253
1.9451
1.94751
1.94977
1.95187
1.95382
1.9556
1.95723
1.9587
1.96
1.96114
1.96212
1.96294
1.96359
1.96407
1.96439
1.96454
1.9649
1.96477
1.96444
1.96398
1.96334
1.96254
1.96157
1.96044
1.95914
1.95768
1.95606
1.95428
1.95234
1.95024
1.94798
1.94557
1.943
1.94028
1.93742
1.9344
1.93124
1.92793
1.92449
1.9209
1.91718
1.91333
1.90934
1.90523
1.901
1.89664
1.89216
1.88757
1.88287
1.87806
1.87315
1.86813
1.86303
1.85783
1.85254
1.84718
1.84173
1.83622
1.83063
1.82498
1.81927
1.81351
1.80771
1.80185
1.79597
1.79005
1.7841
1.77814
1.77216
1.76617
1.76019
1.7542
1.74823
1.74227
1.73633
1.73043
1.72455
1.71872
1.71294
1.70721
1.70155
1.69595
1.69042
1.68497
1.67961
1.67434
1.66917
1.66411
1.65915
1.65432
1.6496
1.64502
1.64057
1.63626
1.63209
1.62807
1.62421
1.62051
1.61698
1.61361
1.61042
1.60741
1.60458
1.60194
1.59948
1.59722
1.59516
1.59329
1.59163
1.59016
1.58891
1.58786
1.58702
1.58639
1.58596
1.58575
1.58576
1.58597
1.58639
1.58703
1.58787
1.58892
1.59018
1.59164
1.59331
1.59518
1.59725
1.59951
1.60197
1.60461
1.60744
1.61046
1.61365
1.61702
1.62056
1.62426
1.62812
1.63214
1.63631
1.64062
1.64508
1.64967
1.65438
1.65922
1.66418
1.66924
1.67442
1.67969
1.68505
1.6905
1.69603
1.70163
1.7073
1.71303
1.71882
1.72465
1.73052
1.73643
1.74237
1.74833
1.75431
1.7603
1.76629
1.77228
1.77826
1.78423
1.79018
1.7961
1.80199
1.80784
1.81365
1.81942
1.82513
1.83078
1.83637
1.84189
1.84734
1.85271
1.858
1.8632
1.86831
1.87332
1.87824
1.88305
1.88776
1.89235
1.89683
1.90119
1.90544
1.90955
1.91354
1.9174
1.92113
1.92472
1.92817
1.93148
1.93465
1.93767
1.94055
1.94327
1.94585
1.94827
1.95053
1.95264
1.9546
1.95639
1.95802
1.95949
1.9608
1.96195
1.96293
1.96374
1.9644
1.96488
1.9652
1.96536
1.96591
1.96577
1.96545
1.96497
1.96433
1.96352
1.96255
1.96141
1.96011
1.95864
1.95701
1.95522
1.95327
1.95116
1.9489
1.94647
1.9439
1.94117
1.93829
1.93526
1.93208
1.92877
1.9253
1.9217
1.91797
1.9141
1.91009
1.90596
1.90171
1.89733
1.89283
1.88822
1.8835
1.87866
1.87373
1.86869
1.86356
1.85834
1.85303
1.84763
1.84216
1.83661
1.831
1.82532
1.81958
1.81379
1.80795
1.80207
1.79615
1.7902
1.78422
1.77822
1.7722
1.76618
1.76016
1.75414
1.74813
1.74213
1.73616
1.73022
1.72431
1.71844
1.71262
1.70685
1.70115
1.69551
1.68995
1.68446
1.67907
1.67376
1.66856
1.66346
1.65847
1.6536
1.64885
1.64423
1.63975
1.6354
1.63121
1.62716
1.62327
1.61954
1.61598
1.61259
1.60938
1.60634
1.60349
1.60083
1.59835
1.59607
1.59399
1.59211
1.59043
1.58896
1.58769
1.58664
1.58579
1.58515
1.58473
1.58452
1.58452
1.58473
1.58516
1.5858
1.58665
1.58771
1.58898
1.59045
1.59213
1.59402
1.5961
1.59838
1.60086
1.60352
1.60638
1.60941
1.61263
1.61602
1.61959
1.62332
1.62721
1.63126
1.63546
1.6398
1.64429
1.64891
1.65366
1.65853
1.66353
1.66863
1.67384
1.67914
1.68454
1.69003
1.69559
1.70123
1.70694
1.71271
1.71853
1.7244
1.73031
1.73626
1.74224
1.74823
1.75425
1.76027
1.7663
1.77232
1.77834
1.78434
1.79032
1.79628
1.8022
1.80809
1.81393
1.81972
1.82546
1.83115
1.83677
1.84231
1.84779
1.85319
1.8585
1.86373
1.86886
1.8739
1.87884
1.88368
1.88841
1.89302
1.89752
1.90191
1.90617
1.9103
1.91431
1.91819
1.92193
1.92553
1.929
1.93232
1.93551
1.93854
1.94143
1.94416
1.94675
1.94918
1.95145
1.95357
1.95553
1.95733
1.95897
1.96045
1.96176
1.96291
1.9639
1.96472
1.96537
1.96586
1.96618
1.96634
1.96709
1.96694
1.96661
1.96613
1.96548
1.96467
1.96369
1.96254
1.96123
1.95976
1.95812
1.95633
1.95437
1.95225
1.94997
1.94753
1.94494
1.9422
1.93931
1.93626
1.93307
1.92974
1.92626
1.92264
1.91889
1.91499
1.91097
1.90682
1.90254
1.89814
1.89362
1.88898
1.88423
1.87937
1.87441
1.86935
1.86419
1.85893
1.85359
1.84816
1.84266
1.83708
1.83143
1.82572
1.81994
1.81412
1.80824
1.80232
1.79636
1.79037
1.78435
1.77831
1.77226
1.76619
1.76013
1.75406
1.74801
1.74197
1.73596
1.72997
1.72402
1.71811
1.71224
1.70643
1.70068
1.695
1.6894
1.68387
1.67843
1.67308
1.66783
1.66269
1.65766
1.65275
1.64796
1.64331
1.63878
1.6344
1.63017
1.62609
1.62217
1.61841
1.61481
1.61139
1.60815
1.60509
1.60221
1.59952
1.59703
1.59473
1.59263
1.59073
1.58904
1.58755
1.58627
1.58521
1.58435
1.58371
1.58328
1.58307
1.58307
1.58328
1.58371
1.58436
1.58522
1.58629
1.58757
1.58906
1.59075
1.59265
1.59475
1.59706
1.59955
1.60224
1.60512
1.60819
1.61143
1.61486
1.61845
1.62221
1.62614
1.63022
1.63446
1.63884
1.64336
1.64802
1.65281
1.65773
1.66276
1.66791
1.67316
1.6785
1.68395
1.68948
1.69509
1.70077
1.70652
1.71233
1.7182
1.72411
1.73007
1.73606
1.74208
1.74812
1.75418
1.76024
1.76631
1.77238
1.77843
1.78447
1.7905
1.79649
1.80245
1.80838
1.81426
1.82009
1.82586
1.83158
1.83723
1.84281
1.84832
1.85375
1.8591
1.86435
1.86952
1.87459
1.87955
1.88441
1.88917
1.89381
1.89833
1.90274
1.90702
1.91118
1.91521
1.9191
1.92286
1.92649
1.92997
1.93331
1.93651
1.93956
1.94246
1.94521
1.94781
1.95025
1.95253
1.95466
1.95663
1.95844
1.96008
1.96157
1.96289
1.96404
1.96503
1.96586
1.96651
1.967
1.96732
1.96748
1.96842
1.96827
1.96794
1.96746
1.9668
1.96598
1.965
1.96384
1.96253
1.96104
1.9594
1.95759
1.95562
1.95349
1.9512
1.94875
1.94615
1.94339
1.94048
1.93742
1.93421
1.93085
1.92736
1.92372
1.91994
1.91603
1.91198
1.9078
1.9035
1.89907
1.89452
1.88986
1.88508
1.88019
1.87519
1.8701
1.8649
1.85962
1.85424
1.84878
1.84323
1.83762
1.83193
1.82618
1.82036
1.81449
1.80857
1.80261
1.7966
1.79057
1.7845
1.77842
1.77232
1.76621
1.76009
1.75398
1.74788
1.74179
1.73573
1.72969
1.72369
1.71772
1.71181
1.70595
1.70015
1.69442
1.68876
1.68319
1.6777
1.6723
1.66701
1.66182
1.65674
1.65178
1.64695
1.64225
1.63768
1.63326
1.62898
1.62486
1.6209
1.6171
1.61347
1.61002
1.60674
1.60365
1.60074
1.59803
1.59551
1.59318
1.59106
1.58914
1.58743
1.58593
1.58464
1.58356
1.5827
1.58205
1.58161
1.5814
1.5814
1.58162
1.58205
1.5827
1.58357
1.58465
1.58595
1.58745
1.58917
1.59109
1.59321
1.59553
1.59806
1.60078
1.60368
1.60678
1.61006
1.61352
1.61715
1.62095
1.62491
1.62903
1.63331
1.63774
1.6423
1.64701
1.65184
1.65681
1.66188
1.66708
1.67238
1.67777
1.68327
1.68884
1.6945
1.70024
1.70604
1.7119
1.71782
1.72378
1.72979
1.73583
1.7419
1.74799
1.75409
1.76021
1.76632
1.77244
1.77854
1.78463
1.7907
1.79673
1.80274
1.80871
1.81463
1.8205
1.82632
1.83208
1.83777
1.84339
1.84893
1.8544
1.85978
1.86507
1.87027
1.87537
1.88037
1.88526
1.89004
1.89471
1.89926
1.9037
1.908
1.91218
1.91624
1.92015
1.92394
1.92758
1.93109
1.93445
1.93766
1.94073
1.94364
1.94641
1.94902
1.95147
1.95377
1.95591
1.95789
1.95971
1.96136
1.96285
1.96418
1.96534
1.96633
1.96716
1.96782
1.96831
1.96864
1.9688
1.96992
1.96977
1.96944
1.96895
1.96829
1.96746
1.96647
1.96531
1.96398
1.96249
1.96083
1.95901
1.95703
1.95489
1.95258
1.95012
1.9475
1.94473
1.9418
1.93872
1.93549
1.93211
1.92859
1.92493
1.92113
1.91719
1.91312
1.90891
1.90458
1.90012
1.89554
1.89084
1.88603
1.88111
1.87608
1.87095
1.86572
1.86039
1.85497
1.84947
1.84388
1.83822
1.83249
1.82669
1.82083
1.81492
1.80895
1.80294
1.79688
1.7908
1.78468
1.77854
1.77239
1.76623
1.76006
1.75389
1.74773
1.74159
1.73547
1.72937
1.72331
1.7173
1.71133
1.70541
1.69955
1.69376
1.68805
1.68242
1.67687
1.67142
1.66607
1.66083
1.6557
1.65069
1.6458
1.64105
1.63643
1.63196
1.62764
1.62348
1.61947
1.61563
1.61196
1.60847
1.60515
1.60202
1.59909
1.59634
1.59379
1.59144
1.58929
1.58735
1.58562
1.5841
1.58279
1.5817
1.58083
1.58017
1.57973
1.57951
1.57952
1.57974
1.58018
1.58084
1.58171
1.58281
1.58412
1.58564
1.58737
1.58931
1.59146
1.59382
1.59637
1.59912
1.60206
1.60519
1.60851
1.612
1.61567
1.61952
1.62352
1.62769
1.63202
1.63649
1.64111
1.64586
1.65075
1.65576
1.6609
1.66614
1.6715
1.67695
1.6825
1.68813
1.69385
1.69964
1.7055
1.71142
1.71739
1.72341
1.72947
1.73557
1.74169
1.74784
1.754
1.76017
1.76634
1.77251
1.77866
1.7848
1.79092
1.79701
1.80307
1.80908
1.81505
1.82097
1.82684
1.83264
1.83837
1.84404
1.84962
1.85513
1.86055
1.86588
1.87112
1.87625
1.88129
1.88621
1.89103
1.89573
1.90031
1.90478
1.90911
1.91332
1.9174
1.92134
1.92515
1.92882
1.93234
1.93572
1.93896
1.94204
1.94498
1.94776
1.95038
1.95285
1.95517
1.95732
1.95931
1.96114
1.9628
1.9643
1.96563
1.9668
1.9678
1.96863
1.9693
1.96979
1.97012
1.97028
1.97159
1.97143
1.9711
1.97061
1.96994
1.96911
1.96811
1.96694
1.96561
1.9641
1.96243
1.9606
1.95861
1.95645
1.95413
1.95165
1.94901
1.94622
1.94327
1.94017
1.93692
1.93352
1.92997
1.92628
1.92245
1.91849
1.91438
1.91015
1.90578
1.90129
1.89668
1.89195
1.8871
1.88214
1.87707
1.8719
1.86662
1.86125
1.85579
1.85024
1.84461
1.8389
1.83312
1.82727
1.82136
1.81539
1.80937
1.8033
1.79719
1.79105
1.78488
1.77868
1.77247
1.76625
1.76002
1.75379
1.74757
1.74137
1.73518
1.72903
1.7229
1.71682
1.71079
1.70481
1.69889
1.69303
1.68726
1.68156
1.67595
1.67044
1.66503
1.65972
1.65454
1.64947
1.64452
1.63971
1.63504
1.63052
1.62615
1.62193
1.61787
1.61399
1.61027
1.60673
1.60338
1.60021
1.59723
1.59445
1.59187
1.58949
1.58732
1.58535
1.5836
1.58206
1.58073
1.57963
1.57874
1.57808
1.57763
1.57741
1.57741
1.57764
1.57808
1.57875
1.57964
1.58075
1.58207
1.58361
1.58537
1.58734
1.58951
1.5919
1.59448
1.59727
1.60025
1.60342
1.60677
1.61031
1.61403
1.61792
1.62198
1.6262
1.63057
1.6351
1.63977
1.64458
1.64953
1.6546
1.65979
1.6651
1.67052
1.67603
1.68164
1.68734
1.69312
1.69897
1.70489
1.71088
1.71691
1.723
1.72912
1.73528
1.74147
1.74768
1.7539
1.76013
1.76636
1.77259
1.7788
1.785
1.79118
1.79732
1.80343
1.8095
1.81553
1.8215
1.82741
1.83327
1.83905
1.84476
1.8504
1.85595
1.86141
1.86679
1.87206
1.87724
1.88231
1.88728
1.89213
1.89687
1.90149
1.90598
1.91035
1.91459
1.9187
1.92267
1.9265
1.93019
1.93374
1.93715
1.94041
1.94351
1.94647
1.94926
1.95191
1.95439
1.95672
1.95889
1.96089
1.96273
1.96441
1.96591
1.96726
1.96843
1.96944
1.97027
1.97094
1.97144
1.97177
1.97193
1.97343
1.97327
1.97294
1.97244
1.97177
1.97093
1.96992
1.96874
1.96739
1.96588
1.9642
1.96235
1.96034
1.95817
1.95583
1.95333
1.95068
1.94786
1.94489
1.94177
1.93849
1.93507
1.93149
1.92778
1.92392
1.91992
1.91578
1.91152
1.90712
1.90259
1.89794
1.89317
1.88828
1.88327
1.87816
1.87294
1.86762
1.86221
1.8567
1.8511
1.84542
1.83965
1.83382
1.82791
1.82194
1.81592
1.80984
1.80371
1.79754
1.79134
1.7851
1.77884
1.77256
1.76627
1.75998
1.75368
1.7474
1.74112
1.73487
1.72864
1.72245
1.7163
1.71019
1.70414
1.69815
1.69223
1.68638
1.68062
1.67494
1.66936
1.66388
1.65851
1.65325
1.64812
1.64311
1.63824
1.63351
1.62892
1.62449
1.62022
1.61611
1.61217
1.6084
1.60482
1.60142
1.59821
1.59519
1.59237
1.58975
1.58733
1.58513
1.58314
1.58136
1.5798
1.57845
1.57733
1.57643
1.57576
1.57531
1.57508
1.57509
1.57531
1.57577
1.57644
1.57734
1.57847
1.57981
1.58138
1.58316
1.58515
1.58736
1.58978
1.5924
1.59522
1.59824
1.60145
1.60486
1.60844
1.61221
1.61615
1.62027
1.62454
1.62898
1.63356
1.6383
1.64317
1.64818
1.65332
1.65858
1.66395
1.66943
1.67502
1.6807
1.68646
1.69231
1.69824
1.70423
1.71028
1.71639
1.72254
1.72874
1.73497
1.74123
1.7475
1.75379
1.76009
1.76639
1.77268
1.77896
1.78522
1.79146
1.79767
1.80384
1.80997
1.81606
1.82208
1.82806
1.83396
1.8398
1.84557
1.85125
1.85685
1.86237
1.86779
1.87311
1.87833
1.88345
1.88845
1.89335
1.89812
1.90278
1.90731
1.91171
1.91599
1.92013
1.92413
1.92799
1.93172
1.93529
1.93872
1.942
1.94513
1.94811
1.95093
1.95359
1.95609
1.95844
1.96062
1.96264
1.96449
1.96617
1.96769
1.96905
1.97023
1.97124
1.97209
1.97276
1.97326
1.97359
1.97375
1.97543
1.97527
1.97494
1.97443
1.97376
1.97291
1.9719
1.97071
1.96935
1.96782
1.96613
1.96427
1.96224
1.96005
1.95769
1.95518
1.9525
1.94966
1.94667
1.94352
1.94022
1.93676
1.93316
1.92941
1.92552
1.92149
1.91732
1.91301
1.90858
1.90401
1.89932
1.8945
1.88957
1.88452
1.87936
1.87409
1.86872
1.86325
1.85769
1.85204
1.8463
1.84048
1.83458
1.82862
1.82259
1.8165
1.81035
1.80416
1.79792
1.79165
1.78535
1.77902
1.77267
1.76631
1.75994
1.75357
1.74721
1.74086
1.73453
1.72822
1.72195
1.71573
1.70954
1.70342
1.69735
1.69135
1.68543
1.67959
1.67383
1.66818
1.66262
1.65718
1.65185
1.64664
1.64157
1.63663
1.63183
1.62718
1.62268
1.61835
1.61418
1.61018
1.60636
1.60272
1.59927
1.59601
1.59294
1.59008
1.58742
1.58497
1.58273
1.58071
1.5789
1.57732
1.57595
1.57482
1.5739
1.57322
1.57276
1.57253
1.57253
1.57276
1.57322
1.57391
1.57483
1.57597
1.57733
1.57892
1.58073
1.58276
1.585
1.58745
1.59011
1.59297
1.59604
1.5993
1.60276
1.6064
1.61022
1.61422
1.61839
1.62273
1.62723
1.63188
1.63668
1.64163
1.6467
1.65191
1.65725
1.66269
1.66825
1.67391
1.67966
1.68551
1.69143
1.69743
1.7035
1.70963
1.71582
1.72205
1.72832
1.73463
1.74096
1.74731
1.75368
1.76005
1.76642
1.77278
1.77914
1.78547
1.79178
1.79805
1.80429
1.81049
1.81663
1.82273
1.82876
1.83473
1.84063
1.84645
1.85219
1.85784
1.86341
1.86888
1.87426
1.87953
1.88469
1.88974
1.89468
1.8995
1.9042
1.90877
1.91321
1.91752
1.9217
1.92573
1.92963
1.93338
1.93699
1.94045
1.94375
1.94691
1.94991
1.95275
1.95543
1.95796
1.96032
1.96251
1.96455
1.96641
1.96811
1.96964
1.971
1.9722
1.97322
1.97407
1.97474
1.97525
1.97558
1.97574
1.97761
1.97745
1.97711
1.9766
1.97592
1.97507
1.97404
1.97285
1.97148
1.96994
1.96823
1.96635
1.96431
1.9621
1.95972
1.95718
1.95448
1.95162
1.9486
1.94542
1.94209
1.93861
1.93498
1.93119
1.92727
1.9232
1.91899
1.91464
1.91016
1.90555
1.90082
1.89595
1.89097
1.88588
1.88066
1.87534
1.86992
1.8644
1.85877
1.85306
1.84726
1.84138
1.83542
1.82939
1.82329
1.81713
1.81092
1.80465
1.79834
1.792
1.78562
1.77921
1.77278
1.76634
1.75989
1.75345
1.747
1.74057
1.73416
1.72777
1.72142
1.71511
1.70884
1.70263
1.69648
1.6904
1.68439
1.67846
1.67263
1.66689
1.66125
1.65573
1.65032
1.64504
1.63988
1.63487
1.63
1.62527
1.62071
1.61631
1.61207
1.60801
1.60413
1.60043
1.59692
1.59361
1.5905
1.58759
1.58489
1.5824
1.58012
1.57806
1.57623
1.57462
1.57323
1.57207
1.57114
1.57045
1.56998
1.56975
1.56975
1.56999
1.57045
1.57115
1.57208
1.57324
1.57463
1.57625
1.57808
1.58014
1.58242
1.58491
1.58762
1.59053
1.59364
1.59696
1.60047
1.60417
1.60805
1.61211
1.61635
1.62076
1.62533
1.63005
1.63492
1.63994
1.6451
1.65039
1.6558
1.66132
1.66696
1.6727
1.67854
1.68447
1.69048
1.69656
1.70272
1.70893
1.7152
1.72152
1.72787
1.73426
1.74067
1.74711
1.75355
1.76001
1.76646
1.7729
1.77933
1.78574
1.79212
1.79847
1.80478
1.81105
1.81727
1.82343
1.82953
1.83556
1.84152
1.84741
1.85321
1.85893
1.86455
1.87008
1.87551
1.88083
1.88605
1.89115
1.89613
1.901
1.90574
1.91035
1.91484
1.91919
1.9234
1.92748
1.93141
1.93519
1.93883
1.94232
1.94565
1.94884
1.95186
1.95473
1.95743
1.95998
1.96236
1.96457
1.96662
1.9685
1.97022
1.97176
1.97313
1.97433
1.97536
1.97622
1.9769
1.97741
1.97775
1.97791
1.97996
1.97979
1.97946
1.97894
1.97826
1.9774
1.97636
1.97515
1.97377
1.97222
1.9705
1.9686
1.96654
1.96431
1.96191
1.95935
1.95662
1.95374
1.95069
1.94748
1.94412
1.9406
1.93694
1.93312
1.92915
1.92505
1.9208
1.91641
1.91188
1.90723
1.90244
1.89753
1.8925
1.88734
1.88208
1.8767
1.87122
1.86563
1.85995
1.85417
1.84831
1.84236
1.83633
1.83023
1.82406
1.81782
1.81153
1.80519
1.7988
1.79238
1.78591
1.77942
1.77291
1.76639
1.75985
1.75332
1.74679
1.74027
1.73376
1.72729
1.72085
1.71444
1.70808
1.70178
1.69554
1.68937
1.68327
1.67725
1.67133
1.6655
1.65978
1.65416
1.64867
1.6433
1.63806
1.63297
1.62801
1.62322
1.61857
1.6141
1.60979
1.60566
1.60171
1.59795
1.59439
1.59102
1.58785
1.58489
1.58214
1.57961
1.57729
1.5752
1.57333
1.57169
1.57028
1.5691
1.56815
1.56744
1.56697
1.56674
1.56674
1.56698
1.56745
1.56816
1.56911
1.57029
1.5717
1.57335
1.57522
1.57731
1.57963
1.58217
1.58492
1.58788
1.59105
1.59442
1.59799
1.60175
1.6057
1.60983
1.61414
1.61862
1.62327
1.62807
1.63302
1.63812
1.64336
1.64873
1.65423
1.65985
1.66557
1.6714
1.67733
1.68335
1.68945
1.69563
1.70187
1.70818
1.71453
1.72094
1.72739
1.73387
1.74037
1.74689
1.75343
1.75996
1.7665
1.77303
1.77954
1.78604
1.7925
1.79893
1.80532
1.81167
1.81796
1.82419
1.83037
1.83647
1.8425
1.84845
1.85432
1.8601
1.86579
1.87138
1.87686
1.88224
1.88751
1.89267
1.89771
1.90262
1.90741
1.91207
1.9166
1.92099
1.92525
1.92936
1.93333
1.93715
1.94082
1.94434
1.94771
1.95092
1.95397
1.95687
1.9596
1.96216
1.96456
1.9668
1.96887
1.97077
1.97249
1.97405
1.97543
1.97664
1.97768
1.97855
1.97923
1.97975
1.98009
1.98025
1.98248
1.98232
1.98198
1.98146
1.98077
1.9799
1.97885
1.97763
1.97624
1.97467
1.97293
1.97102
1.96894
1.96669
1.96427
1.96168
1.95893
1.95601
1.95293
1.9497
1.9463
1.94275
1.93905
1.93519
1.93119
1.92703
1.92274
1.91831
1.91373
1.90903
1.90419
1.89923
1.89414
1.88893
1.8836
1.87816
1.87262
1.86697
1.86122
1.85537
1.84943
1.84341
1.83731
1.83113
1.82488
1.81857
1.8122
1.80577
1.7993
1.79279
1.78624
1.77966
1.77306
1.76644
1.75981
1.75318
1.74656
1.73994
1.73335
1.72677
1.72023
1.71373
1.70727
1.70087
1.69453
1.68826
1.68207
1.67595
1.66993
1.66401
1.65819
1.65248
1.64689
1.64143
1.63611
1.63092
1.62588
1.621
1.61627
1.61172
1.60733
1.60313
1.59911
1.59528
1.59165
1.58822
1.58499
1.58198
1.57918
1.5766
1.57424
1.57211
1.5702
1.56853
1.56709
1.56589
1.56493
1.56421
1.56372
1.56348
1.56349
1.56373
1.56421
1.56494
1.5659
1.56711
1.56855
1.57022
1.57213
1.57426
1.57662
1.57921
1.58201
1.58502
1.58825
1.59169
1.59532
1.59915
1.60317
1.60738
1.61176
1.61632
1.62105
1.62594
1.63098
1.63617
1.64149
1.64696
1.65255
1.65826
1.66408
1.67001
1.67603
1.68215
1.68834
1.69462
1.70096
1.70736
1.71382
1.72033
1.72687
1.73345
1.74005
1.74666
1.75329
1.75993
1.76655
1.77317
1.77978
1.78636
1.79291
1.79943
1.8059
1.81233
1.8187
1.82502
1.83127
1.83745
1.84355
1.84958
1.85552
1.86137
1.86712
1.87277
1.87832
1.88377
1.8891
1.89431
1.8994
1.90437
1.90921
1.91392
1.9185
1.92294
1.92723
1.93139
1.9354
1.93926
1.94297
1.94652
1.94992
1.95316
1.95625
1.95917
1.96192
1.96451
1.96694
1.96919
1.97128
1.9732
1.97494
1.97651
1.97791
1.97913
1.98018
1.98105
1.98174
1.98226
1.9826
1.98277
1.98519
1.98502
1.98467
1.98415
1.98345
1.98258
1.98152
1.98029
1.97888
1.9773
1.97554
1.97361
1.97151
1.96923
1.96679
1.96417
1.96139
1.95845
1.95534
1.95207
1.94864
1.94505
1.94131
1.93741
1.93336
1.92917
1.92483
1.92034
1.91572
1.91096
1.90607
1.90105
1.8959
1.89063
1.88524
1.87973
1.87412
1.8684
1.86258
1.85666
1.85065
1.84455
1.83837
1.83211
1.82578
1.81938
1.81292
1.8064
1.79984
1.79324
1.78659
1.77992
1.77322
1.7665
1.75978
1.75305
1.74632
1.7396
1.7329
1.72622
1.71958
1.71297
1.70641
1.6999
1.69346
1.68708
1.68078
1.67456
1.66843
1.66241
1.65648
1.65068
1.64499
1.63943
1.63401
1.62873
1.62359
1.61862
1.61381
1.60917
1.6047
1.60042
1.59632
1.59242
1.58871
1.58522
1.58193
1.57885
1.576
1.57337
1.57096
1.56878
1.56684
1.56514
1.56367
1.56245
1.56146
1.56073
1.56024
1.55999
1.55999
1.56024
1.56073
1.56147
1.56246
1.56369
1.56515
1.56686
1.5688
1.57098
1.57339
1.57602
1.57888
1.58196
1.58525
1.58875
1.59245
1.59636
1.60046
1.60474
1.60921
1.61386
1.61867
1.62365
1.62878
1.63407
1.63949
1.64505
1.65074
1.65656
1.66248
1.66851
1.67464
1.68086
1.68716
1.69354
1.69999
1.7065
1.71306
1.71967
1.72632
1.733
1.7397
1.74642
1.75316
1.75989
1.76662
1.77334
1.78004
1.78671
1.79336
1.79997
1.80653
1.81305
1.81951
1.82591
1.83224
1.83851
1.84469
1.85079
1.85681
1.86273
1.86855
1.87428
1.87989
1.8854
1.89079
1.89607
1.90122
1.90625
1.91114
1.91591
1.92053
1.92502
1.92936
1.93356
1.93762
1.94152
1.94527
1.94886
1.95229
1.95557
1.95868
1.96163
1.96441
1.96703
1.96948
1.97176
1.97386
1.9758
1.97756
1.97914
1.98055
1.98179
1.98284
1.98372
1.98442
1.98495
1.98529
1.98546
1.98807
1.9879
1.98755
1.98702
1.98632
1.98543
1.98436
1.98312
1.9817
1.9801
1.97832
1.97637
1.97425
1.97195
1.96948
1.96684
1.96403
1.96105
1.95791
1.9546
1.95113
1.94751
1.94372
1.93978
1.93569
1.93144
1.92705
1.92252
1.91784
1.91303
1.90808
1.90299
1.89778
1.89245
1.88699
1.88142
1.87573
1.86994
1.86404
1.85804
1.85195
1.84577
1.8395
1.83315
1.82673
1.82024
1.81369
1.80708
1.80042
1.79372
1.78698
1.7802
1.7734
1.76658
1.75975
1.75291
1.74607
1.73924
1.73243
1.72564
1.71889
1.71217
1.70549
1.69887
1.69231
1.68582
1.67941
1.67308
1.66684
1.6607
1.65467
1.64875
1.64296
1.63729
1.63177
1.62638
1.62115
1.61608
1.61117
1.60644
1.60188
1.59751
1.59333
1.58935
1.58557
1.582
1.57865
1.57551
1.5726
1.56991
1.56745
1.56523
1.56325
1.56151
1.56001
1.55876
1.55776
1.557
1.5565
1.55625
1.55625
1.5565
1.55701
1.55776
1.55877
1.56002
1.56152
1.56327
1.56525
1.56747
1.56993
1.57262
1.57554
1.57868
1.58204
1.58561
1.58939
1.59337
1.59755
1.60193
1.60648
1.61122
1.61613
1.6212
1.62644
1.63182
1.63735
1.64302
1.64882
1.65474
1.66077
1.66692
1.67316
1.67949
1.68591
1.6924
1.69896
1.70558
1.71226
1.71898
1.72574
1.73253
1.73935
1.74618
1.75302
1.75986
1.76669
1.77351
1.78032
1.7871
1.79384
1.80055
1.80721
1.81382
1.82038
1.82687
1.83329
1.83964
1.84591
1.85209
1.85819
1.86419
1.87009
1.87589
1.88157
1.88715
1.89261
1.89795
1.90316
1.90825
1.9132
1.91802
1.92271
1.92725
1.93164
1.93589
1.93998
1.94393
1.94772
1.95135
1.95482
1.95813
1.96128
1.96426
1.96707
1.96972
1.97219
1.97449
1.97662
1.97857
1.98035
1.98195
1.98338
1.98462
1.98569
1.98658
1.98729
1.98782
1.98816
1.98833
1.99113
1.99096
1.99061
1.99007
1.98936
1.98846
1.98739
1.98613
1.98469
1.98308
1.98128
1.97931
1.97716
1.97484
1.97234
1.96967
1.96683
1.96382
1.96064
1.9573
1.95379
1.95012
1.94629
1.9423
1.93816
1.93387
1.92943
1.92484
1.9201
1.91523
1.91021
1.90507
1.89979
1.89438
1.88886
1.88321
1.87745
1.87157
1.8656
1.85952
1.85334
1.84707
1.84071
1.83427
1.82776
1.82118
1.81452
1.80782
1.80105
1.79424
1.78739
1.78051
1.7736
1.76667
1.75972
1.75277
1.74581
1.73887
1.73194
1.72503
1.71816
1.71132
1.70452
1.69778
1.6911
1.68449
1.67795
1.6715
1.66515
1.65889
1.65274
1.64671
1.6408
1.63502
1.62938
1.62389
1.61855
1.61337
1.60836
1.60353
1.59888
1.59442
1.59015
1.58608
1.58222
1.57858