/*--------------------------------*- C++ -*----------------------------------*\
| =========                 |                                                 |
| \\      /  F ield         | OpenFOAM: The Open Source CFD Toolbox           |
|  \\    /   O peration     | Version:  2412                                  |
|   \\  /    A nd           | Website:  www.openfoam.com                      |
|    \\/     M anipulation  |                                                 |
\*---------------------------------------------------------------------------*/
FoamFile
{
    version     2.0;
    format      ascii;
    arch        "LSB;label=32;scalar=64";
    class       surfaceScalarField;
    location    "1.01";
    object      phi;
}
// * * * * * * * * * * * * * * * * * * * * * * * * * * * * * * * * * * * * * //

dimensions      [0 3 -1 0 0 0 0];

oriented        oriented;

internalField   nonuniform List<scalar> 
79600
(
2.18e-12
-5.72656e-12
-1.09165e-11
1.30929e-11
-8.11854e-12
-2.79991e-12
-3.32857e-12
-4.78865e-12
2.61003e-12
-5.93343e-12
8.41386e-12
-5.80275e-12
1.40253e-11
-5.61423e-12
1.93524e-11
-5.33002e-12
2.43546e-11
-5.00252e-12
2.91205e-11
-4.76403e-12
3.37034e-11
-4.58131e-12
3.81267e-11
-4.42287e-12
4.24191e-11
-4.29264e-12
4.66013e-11
-4.18262e-12
5.0688e-11
-4.08711e-12
5.46892e-11
-4.00172e-12
5.86078e-11
-3.91928e-12
6.24478e-11
-3.84094e-12
6.62123e-11
-3.76548e-12
6.9902e-11
-3.69071e-12
7.35171e-11
-3.61605e-12
7.70568e-11
-3.5404e-12
8.05192e-11
-3.46312e-12
8.39027e-11
-3.38423e-12
8.72051e-11
-3.30315e-12
9.04247e-11
-3.2201e-12
9.35597e-11
-3.13558e-12
9.66088e-11
-3.04976e-12
9.9571e-11
-2.96287e-12
1.02445e-10
-2.87469e-12
1.05229e-10
-2.78499e-12
1.07922e-10
-2.69373e-12
1.10522e-10
-2.60045e-12
1.13027e-10
-2.505e-12
1.15434e-10
-2.40768e-12
1.17742e-10
-2.30836e-12
1.19948e-10
-2.20675e-12
1.2205e-10
-2.10288e-12
1.24046e-10
-1.99638e-12
1.25932e-10
-1.8867e-12
1.27705e-10
-1.77375e-12
1.29362e-10
-1.65734e-12
1.30898e-10
-1.53725e-12
1.32311e-10
-1.41376e-12
1.33597e-10
-1.28722e-12
1.34753e-10
-1.15781e-12
1.35778e-10
-1.02591e-12
1.3667e-10
-8.91905e-13
1.37425e-10
-7.55948e-13
1.38043e-10
-6.18289e-13
1.38522e-10
-4.79271e-13
1.38861e-10
-3.38994e-13
1.39058e-10
-1.97498e-13
1.39112e-10
-5.36119e-14
1.39021e-10
9.18515e-14
1.38789e-10
2.32532e-13
1.38412e-10
3.7671e-13
1.37893e-10
5.20023e-13
1.37227e-10
6.65348e-13
1.36416e-10
8.11714e-13
1.35457e-10
9.58793e-13
1.3435e-10
1.10656e-12
1.33095e-10
1.25512e-12
1.3169e-10
1.40428e-12
1.30136e-10
1.5536e-12
1.28432e-10
1.70268e-12
1.26581e-10
1.85109e-12
1.24582e-10
1.99838e-12
1.22437e-10
2.14417e-12
1.20148e-10
2.28835e-12
1.17717e-10
2.43092e-12
1.15145e-10
2.57178e-12
1.12435e-10
2.71085e-12
1.09587e-10
2.84813e-12
1.06604e-10
2.98363e-12
1.03487e-10
3.11715e-12
1.00239e-10
3.24836e-12
9.68627e-11
3.37689e-12
9.33603e-11
3.50239e-12
8.97353e-11
3.62453e-12
8.59916e-11
3.74294e-12
8.21335e-11
3.85715e-12
7.81657e-11
3.96664e-12
7.40935e-11
4.071e-12
6.99223e-11
4.1701e-12
6.56574e-11
4.26391e-12
6.13045e-11
4.35223e-12
5.68695e-11
4.43465e-12
5.23587e-11
4.51083e-12
4.77784e-11
4.58068e-12
4.31347e-11
4.64437e-12
3.84335e-11
4.70195e-12
3.36812e-11
4.75317e-12
2.88843e-11
4.79771e-12
2.40495e-11
4.83549e-12
1.91832e-11
4.86677e-12
1.42915e-11
4.89201e-12
9.38013e-12
4.91142e-12
4.45525e-12
4.92477e-12
-4.76645e-13
4.93164e-12
-5.40867e-12
4.93169e-12
-1.0334e-11
4.92497e-12
-1.52461e-11
4.91183e-12
-2.01388e-11
4.89253e-12
-2.50059e-11
4.86715e-12
-2.98413e-11
4.8356e-12
-3.46388e-11
4.79777e-12
-3.9392e-11
4.75367e-12
-4.4095e-11
4.7034e-12
-4.87415e-11
4.647e-12
-5.33256e-11
4.58445e-12
-5.7841e-11
4.51565e-12
-6.22814e-11
4.44057e-12
-6.66407e-11
4.35924e-12
-7.09126e-11
4.2718e-12
-7.50913e-11
4.17844e-12
-7.9171e-11
4.07939e-12
-8.31462e-11
3.97495e-12
-8.70119e-11
3.86553e-12
-9.07636e-11
3.75157e-12
-9.43973e-11
3.63358e-12
-9.79094e-11
3.51213e-12
-1.01297e-10
3.38773e-12
-1.04558e-10
3.26068e-12
-1.07689e-10
3.13118e-12
-1.10688e-10
2.99939e-12
-1.13554e-10
2.86541e-12
-1.16283e-10
2.72924e-12
-1.18874e-10
2.59102e-12
-1.21326e-10
2.45099e-12
-1.23636e-10
2.30939e-12
-1.25803e-10
2.16645e-12
-1.27826e-10
2.02245e-12
-1.29704e-10
1.8777e-12
-1.31437e-10
1.73259e-12
-1.33025e-10
1.58742e-12
-1.34468e-10
1.44234e-12
-1.35766e-10
1.29741e-12
-1.36919e-10
1.15248e-12
-1.37926e-10
1.00695e-12
-1.38787e-10
8.60354e-13
-1.395e-10
7.12556e-13
-1.40064e-10
5.63546e-13
-1.40477e-10
4.1327e-13
-1.4074e-10
2.62581e-13
-1.40855e-10
1.14685e-13
-1.40824e-10
-3.13927e-14
-1.40646e-10
-1.78263e-13
-1.40327e-10
-3.19491e-13
-1.39873e-10
-4.55831e-13
-1.39286e-10
-5.87237e-13
-1.38571e-10
-7.14951e-13
-1.37731e-10
-8.40419e-13
-1.36768e-10
-9.63677e-13
-1.35684e-10
-1.0854e-12
-1.34477e-10
-1.20742e-12
-1.33147e-10
-1.33064e-12
-1.31695e-10
-1.45381e-12
-1.30122e-10
-1.57488e-12
-1.2843e-10
-1.69356e-12
-1.2662e-10
-1.8105e-12
-1.24697e-10
-1.92427e-12
-1.22667e-10
-2.03197e-12
-1.20534e-10
-2.13266e-12
-1.18306e-10
-2.22856e-12
-1.15985e-10
-2.32209e-12
-1.13575e-10
-2.41358e-12
-1.11075e-10
-2.50226e-12
-1.08487e-10
-2.58875e-12
-1.05811e-10
-2.67545e-12
-1.03048e-10
-2.76397e-12
-1.00197e-10
-2.85273e-12
-9.72611e-11
-2.93732e-12
-9.4248e-11
-3.01311e-12
-9.11704e-11
-3.07791e-12
-8.80389e-11
-3.13327e-12
-8.48565e-11
-3.18493e-12
-8.16192e-11
-3.239e-12
-7.83212e-11
-3.29854e-12
-7.49579e-11
-3.36349e-12
-7.15286e-11
-3.43052e-12
-6.80367e-11
-3.49393e-12
-6.44903e-11
-3.54839e-12
-6.08996e-11
-3.59126e-12
-5.72755e-11
-3.62334e-12
-5.36262e-11
-3.6487e-12
-4.99537e-11
-3.67377e-12
-4.62518e-11
-3.70469e-12
-4.25112e-11
-3.74279e-12
-3.8727e-11
-3.78346e-12
-3.49033e-11
-3.821e-12
-3.10514e-11
-3.85016e-12
-2.71833e-11
-3.86868e-12
-2.33049e-11
-3.87943e-12
-1.94162e-11
-3.88913e-12
-1.55154e-11
-3.90153e-12
-1.16046e-11
-3.91071e-12
-7.6942e-12
-3.90722e-12
-3.79088e-12
-3.90074e-12
-3.79066e-12
2.05134e-11
-2.62432e-11
2.43373e-11
9.27297e-12
2.41318e-11
-2.60069e-12
2.46956e-11
-5.36073e-12
2.58953e-11
-7.13634e-12
2.81128e-11
-8.01679e-12
3.09747e-11
-8.47203e-12
3.42212e-11
-8.57552e-12
3.77383e-11
-8.52038e-12
4.13927e-11
-8.41947e-12
4.51168e-11
-8.30526e-12
4.88807e-11
-8.18601e-12
5.26568e-11
-8.06855e-12
5.64275e-11
-7.95382e-12
6.01801e-11
-7.84088e-12
6.39051e-11
-7.72821e-12
6.75979e-11
-7.61366e-12
7.12525e-11
-7.49706e-12
7.48632e-11
-7.3779e-12
7.84261e-11
-7.25535e-12
8.19373e-11
-7.12869e-12
8.53931e-11
-6.99754e-12
8.87903e-11
-6.86161e-12
9.21254e-11
-6.7205e-12
9.53955e-11
-6.5741e-12
9.85969e-11
-6.4226e-12
1.01726e-10
-6.26621e-12
1.0478e-10
-6.10502e-12
1.07756e-10
-5.93915e-12
1.10648e-10
-5.76858e-12
1.13455e-10
-5.59321e-12
1.16173e-10
-5.41282e-12
1.18799e-10
-5.22718e-12
1.21329e-10
-5.03626e-12
1.23761e-10
-4.8402e-12
1.26091e-10
-4.63892e-12
1.28315e-10
-4.43229e-12
1.30432e-10
-4.22026e-12
1.32437e-10
-4.00265e-12
1.34328e-10
-3.77915e-12
1.36102e-10
-3.54957e-12
1.37757e-10
-3.3138e-12
1.39289e-10
-3.07187e-12
1.40698e-10
-2.8239e-12
1.41979e-10
-2.57014e-12
1.4313e-10
-2.31092e-12
1.4415e-10
-2.04662e-12
1.45034e-10
-1.77757e-12
1.45782e-10
-1.50411e-12
1.4639e-10
-1.22665e-12
1.46856e-10
-9.45491e-13
1.47178e-10
-6.60899e-13
1.47355e-10
-3.73167e-13
1.47384e-10
-8.24584e-14
1.47264e-10
2.11998e-13
1.46992e-10
5.05173e-13
1.46568e-10
8.01816e-13
1.45988e-10
1.09986e-12
1.45254e-10
1.39977e-12
1.44364e-10
1.70132e-12
1.43318e-10
2.00418e-12
1.42116e-10
2.30809e-12
1.40758e-10
2.61282e-12
1.39243e-10
2.91803e-12
1.37572e-10
3.2232e-12
1.35746e-10
3.52777e-12
1.33765e-10
3.83113e-12
1.3163e-10
4.13269e-12
1.29342e-10
4.43194e-12
1.26902e-10
4.72841e-12
1.24311e-10
5.02168e-12
1.21572e-10
5.31137e-12
1.18686e-10
5.59708e-12
1.15657e-10
5.87842e-12
1.12486e-10
6.155e-12
1.09177e-10
6.42638e-12
1.05733e-10
6.69207e-12
1.02158e-10
6.95152e-12
9.84554e-11
7.20415e-12
9.46292e-11
7.4494e-12
9.06837e-11
7.68677e-12
8.66234e-11
7.9157e-12
8.24526e-11
8.13557e-12
7.81762e-11
8.34579e-12
7.37992e-11
8.54589e-12
6.93267e-11
8.73555e-12
6.47642e-11
8.91436e-12
6.01171e-11
9.08183e-12
5.5391e-11
9.23749e-12
5.05916e-11
9.38098e-12
4.5725e-11
9.51209e-12
4.07974e-11
9.63062e-12
3.58153e-11
9.7363e-12
3.07849e-11
9.82883e-12
2.57129e-11
9.90808e-12
2.06058e-11
9.97413e-12
1.54707e-11
1.00272e-11
1.03146e-11
1.00673e-11
5.14479e-12
1.00942e-11
-3.18049e-14
1.01078e-11
-5.2083e-12
1.01078e-11
-1.03779e-11
1.00944e-11
-1.55337e-11
1.00676e-11
-2.06687e-11
1.00277e-11
-2.57759e-11
9.97476e-12
-3.08485e-11
9.90868e-12
-3.58796e-11
9.82955e-12
-4.08628e-11
9.73749e-12
-4.57914e-11
9.63267e-12
-5.06593e-11
9.51525e-12
-5.546e-11
9.38536e-12
-6.01875e-11
9.24312e-12
-6.48359e-11
9.08871e-12
-6.93996e-11
8.92238e-12
-7.38728e-11
8.74446e-12
-7.82504e-11
8.55536e-12
-8.25271e-11
8.35551e-12
-8.6698e-11
8.1454e-12
-9.07585e-11
7.92562e-12
-9.47039e-11
7.69681e-12
-9.853e-11
7.45961e-12
-1.02233e-10
7.2147e-12
-1.05808e-10
6.96273e-12
-1.09251e-10
6.70428e-12
-1.1256e-10
6.43981e-12
-1.15731e-10
6.16978e-12
-1.1876e-10
5.89458e-12
-1.21646e-10
5.61459e-12
-1.24386e-10
5.3302e-12
-1.26978e-10
5.04189e-12
-1.2942e-10
4.75017e-12
-1.3171e-10
4.45552e-12
-1.33847e-10
4.15844e-12
-1.3583e-10
3.85945e-12
-1.37658e-10
3.55909e-12
-1.39329e-10
3.25787e-12
-1.40843e-10
2.95613e-12
-1.42201e-10
2.65403e-12
-1.43401e-10
2.35172e-12
-1.44444e-10
2.0492e-12
-1.4533e-10
1.74636e-12
-1.46061e-10
1.44318e-12
-1.46638e-10
1.13998e-12
-1.47062e-10
8.37416e-13
-1.47336e-10
5.36329e-13
-1.4746e-10
2.37822e-13
-1.47435e-10
-5.77366e-14
-1.47265e-10
-3.49555e-13
-1.46949e-10
-6.35812e-13
-1.46489e-10
-9.16405e-13
-1.45887e-10
-1.19131e-12
-1.45142e-10
-1.46063e-12
-1.44257e-10
-1.72498e-12
-1.43236e-10
-1.9852e-12
-1.42081e-10
-2.24198e-12
-1.40796e-10
-2.4956e-12
-1.39382e-10
-2.74608e-12
-1.37844e-10
-2.99321e-12
-1.36185e-10
-3.23615e-12
-1.34408e-10
-3.47375e-12
-1.32514e-10
-3.70525e-12
-1.30508e-10
-3.93033e-12
-1.28392e-10
-4.1484e-12
-1.26169e-10
-4.35854e-12
-1.2384e-10
-4.56054e-12
-1.21409e-10
-4.75568e-12
-1.18878e-10
-4.94574e-12
-1.16251e-10
-5.13135e-12
-1.1353e-10
-5.31192e-12
-1.10719e-10
-5.48747e-12
-1.07823e-10
-5.65928e-12
-1.04848e-10
-5.82796e-12
-1.01796e-10
-5.99122e-12
-9.86676e-11
-6.14466e-12
-9.54632e-11
-6.28545e-12
-9.21827e-11
-6.41505e-12
-8.88296e-11
-6.53833e-12
-8.54097e-11
-6.65975e-12
-8.19294e-11
-6.78073e-12
-7.83946e-11
-6.90047e-12
-7.48093e-11
-7.01733e-12
-7.11749e-11
-7.12909e-12
-6.74913e-11
-7.23273e-12
-6.37581e-11
-7.32526e-12
-5.99764e-11
-7.40586e-12
-5.61489e-11
-7.47722e-12
-5.22798e-11
-7.5444e-12
-4.83737e-11
-7.61168e-12
-4.44351e-11
-7.68069e-12
-4.04681e-11
-7.74897e-12
-3.64777e-11
-7.8115e-12
-3.24676e-11
-7.86255e-12
-2.84386e-11
-7.89916e-12
-2.43903e-11
-7.92589e-12
-2.03232e-11
-7.95293e-12
-1.62384e-11
-7.98389e-12
-1.21396e-11
-8.00776e-12
-8.03659e-12
-8.01146e-12
-3.92343e-12
-8.01458e-12
-7.713e-12
4.84895e-12
-3.10941e-11
1.48457e-11
-7.19624e-13
1.80692e-11
-5.81908e-12
2.13822e-11
-8.67613e-12
2.45699e-11
-1.03288e-11
2.77713e-11
-1.12203e-11
3.11162e-11
-1.18161e-11
3.45975e-11
-1.20547e-11
3.81925e-11
-1.21146e-11
4.18667e-11
-1.20939e-11
4.55903e-11
-1.20292e-11
4.9342e-11
-1.19381e-11
5.31034e-11
-1.18302e-11
5.68599e-11
-1.17108e-11
6.06002e-11
-1.15821e-11
6.43158e-11
-1.1445e-11
6.80005e-11
-1.12995e-11
7.16482e-11
-1.11461e-11
7.52538e-11
-1.0985e-11
7.88131e-11
-1.08158e-11
8.23219e-11
-1.06386e-11
8.57763e-11
-1.04532e-11
8.9173e-11
-1.02594e-11
9.25085e-11
-1.0057e-11
9.57794e-11
-9.84585e-12
9.8982e-11
-9.62628e-12
1.02113e-10
-9.3983e-12
1.05169e-10
-9.16199e-12
1.08147e-10
-8.91753e-12
1.11042e-10
-8.66496e-12
1.13852e-10
-8.40413e-12
1.16574e-10
-8.13486e-12
1.19203e-10
-7.85709e-12
1.21737e-10
-7.57085e-12
1.24172e-10
-7.27617e-12
1.26505e-10
-6.97306e-12
1.28733e-10
-6.66148e-12
1.30853e-10
-6.34145e-12
1.32862e-10
-6.01286e-12
1.34758e-10
-5.67552e-12
1.36536e-10
-5.32929e-12
1.38195e-10
-4.97418e-12
1.39732e-10
-4.61021e-12
1.41144e-10
-4.23752e-12
1.42429e-10
-3.85638e-12
1.43584e-10
-3.46715e-12
1.44607e-10
-3.07021e-12
1.45495e-10
-2.66597e-12
1.46245e-10
-2.2549e-12
1.46856e-10
-1.83743e-12
1.47324e-10
-1.41398e-12
1.47649e-10
-9.85003e-13
1.47827e-10
-5.51017e-13
1.47857e-10
-1.12506e-13
1.47739e-10
3.30673e-13
1.47467e-10
7.77093e-13
1.47042e-10
1.22677e-12
1.46463e-10
1.67925e-12
1.45729e-10
2.13434e-12
1.44838e-10
2.59171e-12
1.43791e-10
3.05092e-12
1.42587e-10
3.51153e-12
1.41227e-10
3.97311e-12
1.39709e-10
4.43512e-12
1.38035e-10
4.89689e-12
1.36205e-10
5.35767e-12
1.34219e-10
5.81669e-12
1.32078e-10
6.27319e-12
1.29783e-10
6.7264e-12
1.27335e-10
7.17554e-12
1.24737e-10
7.61991e-12
1.21989e-10
8.05881e-12
1.19095e-10
8.49152e-12
1.16056e-10
8.91729e-12
1.12875e-10
9.33541e-12
1.09556e-10
9.74522e-12
1.06102e-10
1.0146e-11
1.02516e-10
1.0537e-11
9.88018e-11
1.09174e-11
9.49641e-11
1.12864e-11
9.10067e-11
1.16434e-11
8.69338e-11
1.19878e-11
8.27501e-11
1.23186e-11
7.84602e-11
1.2635e-11
7.40692e-11
1.29364e-11
6.9582e-11
1.32223e-11
6.50041e-11
1.3492e-11
6.03409e-11
1.37448e-11
5.55983e-11
1.39799e-11
5.07823e-11
1.41969e-11
4.58989e-11
1.43954e-11
4.09543e-11
1.45751e-11
3.59549e-11
1.47357e-11
3.09069e-11
1.48768e-11
2.58173e-11
1.49978e-11
2.06926e-11
1.50988e-11
1.55401e-11
1.51799e-11
1.03666e-11
1.52409e-11
5.17928e-12
1.52819e-11
-1.49885e-14
1.53025e-11
-5.2091e-12
1.53024e-11
-1.03962e-11
1.52819e-11
-1.55694e-11
1.52412e-11
-2.07216e-11
1.51804e-11
-2.5846e-11
1.50995e-11
-3.09356e-11
1.49986e-11
-3.59838e-11
1.48779e-11
-4.09837e-11
1.47375e-11
-4.59289e-11
1.45777e-11
-5.08129e-11
1.43989e-11
-5.56294e-11
1.42014e-11
-6.03724e-11
1.39854e-11
-6.5036e-11
1.37514e-11
-6.96143e-11
1.34998e-11
-7.41019e-11
1.32311e-11
-7.84935e-11
1.2946e-11
-8.27838e-11
1.2645e-11
-8.6968e-11
1.23289e-11
-9.10413e-11
1.19983e-11
-9.4999e-11
1.16541e-11
-9.88369e-11
1.12971e-11
-1.02551e-10
1.09281e-11
-1.06136e-10
1.0548e-11
-1.0959e-10
1.01577e-11
-1.12908e-10
9.75778e-12
-1.16088e-10
9.34904e-12
-1.19126e-10
8.93217e-12
-1.2202e-10
8.5078e-12
-1.24768e-10
8.07665e-12
-1.27366e-10
7.63947e-12
-1.29814e-10
7.19701e-12
-1.32109e-10
6.75002e-12
-1.3425e-10
6.29923e-12
-1.36237e-10
5.84534e-12
-1.38067e-10
5.38907e-12
-1.39741e-10
4.9311e-12
-1.41257e-10
4.47202e-12
-1.42616e-10
4.0123e-12
-1.43816e-10
3.5523e-12
-1.44859e-10
3.09235e-12
-1.45746e-10
2.63284e-12
-1.46476e-10
2.17409e-12
-1.47052e-10
1.71652e-12
-1.47475e-10
1.26084e-12
-1.47747e-10
8.08149e-13
-1.47868e-10
3.59295e-13
-1.4784e-10
-8.59312e-14
-1.47666e-10
-5.24088e-13
-1.47345e-10
-9.56553e-13
-1.4688e-10
-1.38153e-12
-1.46272e-10
-1.79936e-12
-1.45521e-10
-2.21061e-12
-1.44631e-10
-2.61501e-12
-1.43604e-10
-3.01198e-12
-1.42443e-10
-3.40231e-12
-1.41152e-10
-3.7873e-12
-1.39732e-10
-4.16665e-12
-1.38188e-10
-4.53855e-12
-1.36523e-10
-4.90189e-12
-1.34738e-10
-5.25728e-12
-1.32838e-10
-5.60512e-12
-1.30824e-10
-5.94394e-12
-1.28701e-10
-6.27178e-12
-1.26469e-10
-6.58858e-12
-1.24133e-10
-6.89597e-12
-1.21695e-10
-7.19505e-12
-1.19157e-10
-7.48539e-12
-1.16522e-10
-7.76632e-12
-1.13793e-10
-8.03841e-12
-1.10975e-10
-8.30321e-12
-1.08074e-10
-8.56151e-12
-1.05092e-10
-8.81236e-12
-1.02031e-10
-9.05357e-12
-9.8891e-11
-9.28304e-12
-9.56749e-11
-9.49975e-12
-9.23858e-11
-9.70425e-12
-8.90268e-11
-9.8985e-12
-8.56016e-11
-1.00851e-11
-8.21146e-11
-1.02664e-11
-7.85708e-11
-1.0443e-11
-7.49746e-11
-1.06143e-11
-7.13281e-11
-1.07778e-11
-6.76316e-11
-1.09304e-11
-6.38854e-11
-1.10703e-11
-6.00915e-11
-1.11978e-11
-5.62541e-11
-1.13147e-11
-5.23776e-11
-1.14235e-11
-4.84657e-11
-1.15265e-11
-4.45225e-11
-1.16251e-11
-4.05523e-11
-1.17187e-11
-3.65592e-11
-1.18041e-11
-3.25442e-11
-1.18765e-11
-2.85062e-11
-1.19348e-11
-2.44453e-11
-1.19859e-11
-2.03631e-11
-1.2038e-11
-1.62638e-11
-1.20868e-11
-1.21569e-11
-1.21177e-11
-8.03848e-12
-1.21324e-11
-3.91397e-12
-1.21396e-11
-1.16249e-11
2.749e-12
-3.38485e-11
1.05764e-11
-8.55005e-12
1.56874e-11
-1.09265e-11
1.96838e-11
-1.26697e-11
2.33747e-11
-1.40207e-11
2.70562e-11
-1.49044e-11
3.07158e-11
-1.54767e-11
3.43889e-11
-1.57276e-11
3.81051e-11
-1.58302e-11
4.18566e-11
-1.58451e-11
4.56311e-11
-1.58038e-11
4.94159e-11
-1.57234e-11
5.32002e-11
-1.5615e-11
5.69737e-11
-1.54849e-11
6.07278e-11
-1.5337e-11
6.44555e-11
-1.51735e-11
6.81508e-11
-1.49959e-11
7.18083e-11
-1.4805e-11
7.54237e-11
-1.46015e-11
7.89925e-11
-1.43857e-11
8.25105e-11
-1.41579e-11
8.59741e-11
-1.39181e-11
8.93799e-11
-1.36662e-11
9.27242e-11
-1.34022e-11
9.60035e-11
-1.31262e-11
9.92146e-11
-1.28383e-11
1.02354e-10
-1.25385e-11
1.05418e-10
-1.2227e-11
1.08404e-10
-1.19039e-11
1.11308e-10
-1.15693e-11
1.14126e-10
-1.1223e-11
1.16855e-10
-1.08649e-11
1.19493e-10
-1.04952e-11
1.22035e-10
-1.01137e-11
1.24478e-10
-9.72054e-12
1.2682e-10
-9.31574e-12
1.29057e-10
-8.89937e-12
1.31186e-10
-8.47149e-12
1.33204e-10
-8.03201e-12
1.35108e-10
-7.58081e-12
1.36895e-10
-7.11786e-12
1.38563e-10
-6.64318e-12
1.40108e-10
-6.15685e-12
1.41529e-10
-5.65906e-12
1.42822e-10
-5.15012e-12
1.43984e-10
-4.63045e-12
1.45014e-10
-4.10049e-12
1.45909e-10
-3.56074e-12
1.46665e-10
-3.01172e-12
1.47282e-10
-2.45392e-12
1.47756e-10
-1.88788e-12
1.48085e-10
-1.31421e-12
1.48267e-10
-7.33588e-13
1.48302e-10
-1.47592e-13
1.48187e-10
4.45725e-13
1.47919e-10
1.04517e-12
1.47498e-10
1.64829e-12
1.46922e-10
2.25541e-12
1.4619e-10
2.86615e-12
1.45302e-10
3.47998e-12
1.44257e-10
4.09623e-12
1.43054e-10
4.7143e-12
1.41694e-10
5.33358e-12
1.40176e-10
5.9533e-12
1.385e-10
6.57254e-12
1.36667e-10
7.19034e-12
1.34678e-10
7.80577e-12
1.32533e-10
8.41788e-12
1.30233e-10
9.02561e-12
1.2778e-10
9.62789e-12
1.25176e-10
1.02237e-11
1.22422e-10
1.08122e-11
1.1952e-10
1.13923e-11
1.16473e-10
1.1963e-11
1.13285e-10
1.25233e-11
1.09957e-10
1.30722e-11
1.06494e-10
1.36089e-11
1.02898e-10
1.41325e-11
9.91735e-11
1.46417e-11
9.53244e-11
1.51356e-11
9.13548e-11
1.56133e-11
8.7269e-11
1.6074e-11
8.30713e-11
1.65166e-11
7.87663e-11
1.69402e-11
7.4359e-11
1.73437e-11
6.98548e-11
1.77263e-11
6.52592e-11
1.80872e-11
6.05776e-11
1.84256e-11
5.5816e-11
1.87407e-11
5.09804e-11
1.90316e-11
4.60769e-11
1.92979e-11
4.11122e-11
1.95391e-11
3.60927e-11
1.97547e-11
3.1025e-11
1.99442e-11
2.59158e-11
2.01072e-11
2.07716e-11
2.02435e-11
1.55995e-11
2.03529e-11
1.04063e-11
2.04352e-11
5.19909e-12
2.04902e-11
-1.50909e-14
2.05178e-11
-5.22927e-12
2.05177e-11
-1.04366e-11
2.04902e-11
-1.56299e-11
2.04354e-11
-2.08023e-11
2.03533e-11
-2.59466e-11
2.02441e-11
-3.1056e-11
2.01081e-11
-3.61236e-11
1.99454e-11
-4.11428e-11
1.97564e-11
-4.61071e-11
1.95415e-11
-5.10098e-11
1.93011e-11
-5.58447e-11
1.90356e-11
-6.06057e-11
1.87456e-11
-6.52867e-11
1.84316e-11
-6.98821e-11
1.80943e-11
-7.43863e-11
1.77344e-11
-7.87938e-11
1.73526e-11
-8.30995e-11
1.69499e-11
-8.72984e-11
1.6527e-11
-9.13855e-11
1.60849e-11
-9.53562e-11
1.56245e-11
-9.92063e-11
1.51468e-11
-1.02931e-10
1.4653e-11
-1.06528e-10
1.4144e-11
-1.09991e-10
1.36211e-11
-1.13319e-10
1.30851e-11
-1.16507e-10
1.2537e-11
-1.19553e-10
1.19778e-11
-1.22454e-10
1.14083e-11
-1.25207e-10
1.08297e-11
-1.27811e-10
1.0243e-11
-1.30263e-10
9.64912e-12
-1.32562e-10
9.04908e-12
-1.34707e-10
8.44384e-12
-1.36695e-10
7.83432e-12
-1.38528e-10
7.22147e-12
-1.40202e-10
6.60619e-12
-1.41719e-10
5.9893e-12
-1.43077e-10
5.37154e-12
-1.44278e-10
4.75358e-12
-1.4532e-10
4.13599e-12
-1.46206e-10
3.51936e-12
-1.46935e-10
2.9044e-12
-1.47509e-10
2.29182e-12
-1.47929e-10
1.68232e-12
-1.48197e-10
1.07686e-12
-1.48313e-10
4.76589e-13
-1.4828e-10
-1.18397e-13
-1.48099e-10
-7.0405e-13
-1.47771e-10
-1.28344e-12
-1.47298e-10
-1.85385e-12
-1.46682e-10
-2.41466e-12
-1.45925e-10
-2.96662e-12
-1.45027e-10
-3.51037e-12
-1.43993e-10
-4.04502e-12
-1.42826e-10
-4.56952e-12
-1.41528e-10
-5.08451e-12
-1.40102e-10
-5.59125e-12
-1.38551e-10
-6.08906e-12
-1.36878e-10
-6.57545e-12
-1.35086e-10
-7.04907e-12
-1.33177e-10
-7.5111e-12
-1.31154e-10
-7.96277e-12
-1.29022e-10
-8.40294e-12
-1.26783e-10
-8.82923e-12
-1.24437e-10
-9.24116e-12
-1.21989e-10
-9.64085e-12
-1.19442e-10
-1.00303e-11
-1.168e-10
-1.04092e-11
-1.14064e-10
-1.07755e-11
-1.11237e-10
-1.1129e-11
-1.08325e-10
-1.14714e-11
-1.05331e-10
-1.18044e-11
-1.02258e-10
-1.21265e-11
-9.91097e-11
-1.24345e-11
-9.58854e-11
-1.27255e-11
-9.2588e-11
-1.30005e-11
-8.92213e-11
-1.3263e-11
-8.57892e-11
-1.35163e-11
-8.22955e-11
-1.37616e-11
-7.8743e-11
-1.39981e-11
-7.51343e-11
-1.42244e-11
-7.14724e-11
-1.44392e-11
-6.77607e-11
-1.46409e-11
-6.40032e-11
-1.48278e-11
-6.02032e-11
-1.49997e-11
-5.63627e-11
-1.51576e-11
-5.24826e-11
-1.53039e-11
-4.85654e-11
-1.5441e-11
-4.46163e-11
-1.55708e-11
-4.06404e-11
-1.56941e-11
-3.66404e-11
-1.58071e-11
-3.2616e-11
-1.59043e-11
-2.85663e-11
-1.59864e-11
-2.44915e-11
-1.60618e-11
-2.03948e-11
-1.61338e-11
-1.62869e-11
-1.61928e-11
-1.21769e-11
-1.62301e-11
-8.05461e-12
-1.62531e-11
-3.93265e-12
-1.62627e-11
-1.55564e-11
2.03876e-12
-3.5886e-11
8.70987e-12
-1.52285e-11
1.38575e-11
-1.60756e-11
1.83611e-11
-1.71713e-11
2.25095e-11
-1.81682e-11
2.64868e-11
-1.88821e-11
3.03293e-11
-1.93205e-11
3.41565e-11
-1.95558e-11
3.7986e-11
-1.96601e-11
4.18197e-11
-1.9679e-11
4.56534e-11
-1.96379e-11
4.94821e-11
-1.95525e-11
5.32992e-11
-1.94327e-11
5.70984e-11
-1.92848e-11
6.08739e-11
-1.91131e-11
6.46199e-11
-1.89203e-11
6.83314e-11
-1.87084e-11
7.2004e-11
-1.84786e-11
7.56335e-11
-1.82319e-11
7.92156e-11
-1.7969e-11
8.27467e-11
-1.76902e-11
8.62232e-11
-1.73957e-11
8.96415e-11
-1.70855e-11
9.29981e-11
-1.67597e-11
9.62895e-11
-1.64186e-11
9.95126e-11
-1.60621e-11
1.02664e-10
-1.56904e-11
1.0574e-10
-1.53036e-11
1.08737e-10
-1.49019e-11
1.11653e-10
-1.44852e-11
1.14483e-10
-1.40534e-11
1.17224e-10
-1.36067e-11
1.19873e-10
-1.3145e-11
1.22427e-10
-1.26683e-11
1.24882e-10
-1.21768e-11
1.27236e-10
-1.16704e-11
1.29484e-10
-1.11493e-11
1.31625e-10
-1.06136e-11
1.33655e-10
-1.00632e-11
1.35571e-10
-9.49799e-12
1.3737e-10
-8.9181e-12
1.39049e-10
-8.32355e-12
1.40606e-10
-7.71449e-12
1.42038e-10
-7.0912e-12
1.43341e-10
-6.45406e-12
1.44514e-10
-5.80353e-12
1.45554e-10
-5.14014e-12
1.46457e-10
-4.46448e-12
1.47223e-10
-3.7771e-12
1.47847e-10
-3.0786e-12
1.48329e-10
-2.36963e-12
1.48665e-10
-1.65086e-12
1.48854e-10
-9.23138e-13
1.48896e-10
-1.89292e-13
1.48786e-10
5.5567e-13
1.48523e-10
1.30806e-12
1.48106e-10
2.06511e-12
1.47534e-10
2.8275e-12
1.46806e-10
3.59465e-12
1.4592e-10
4.3658e-12
1.44877e-10
5.14006e-12
1.43675e-10
5.9166e-12
1.42315e-10
6.69458e-12
1.40795e-10
7.473e-12
1.39118e-10
8.25071e-12
1.37282e-10
9.02649e-12
1.35288e-10
9.79922e-12
1.33138e-10
1.05677e-11
1.30832e-10
1.13307e-11
1.28373e-10
1.20868e-11
1.25761e-10
1.28347e-11
1.22998e-10
1.35734e-11
1.20088e-10
1.43016e-11
1.17031e-10
1.50181e-11
1.13832e-10
1.57215e-11
1.10493e-10
1.64107e-11
1.07017e-10
1.70845e-11
1.03408e-10
1.77417e-11
9.96692e-11
1.8381e-11
9.58046e-11
1.90011e-11
9.18181e-11
1.96008e-11
8.77142e-11
2.01791e-11
8.34972e-11
2.07347e-11
7.91719e-11
2.12662e-11
7.47433e-11
2.17727e-11
7.02167e-11
2.22528e-11
6.55975e-11
2.27057e-11
6.08916e-11
2.31304e-11
5.61051e-11
2.35259e-11
5.12442e-11
2.38912e-11
4.63152e-11
2.42257e-11
4.13247e-11
2.45287e-11
3.62792e-11
2.47997e-11
3.11852e-11
2.50381e-11
2.60497e-11
2.52433e-11
2.08793e-11
2.54149e-11
1.56808e-11
2.55527e-11
1.04611e-11
2.56564e-11
5.22714e-12
2.57258e-11
-1.4179e-14
2.57607e-11
-5.25586e-12
2.57608e-11
-1.04906e-11
2.57261e-11
-1.57112e-11
2.56569e-11
-2.09105e-11
2.55532e-11
-2.60816e-11
2.54155e-11
-3.12176e-11
2.52441e-11
-3.63115e-11
2.50392e-11
-4.13567e-11
2.48014e-11
-4.63465e-11
2.45309e-11
-5.12743e-11
2.42284e-11
-5.61336e-11
2.38946e-11
-6.09185e-11
2.353e-11
-6.5623e-11
2.31355e-11
-7.02411e-11
2.27119e-11
-7.47674e-11
2.22601e-11
-7.91961e-11
2.1781e-11
-8.35221e-11
2.12755e-11
-8.77403e-11
2.07449e-11
-9.18457e-11
2.01901e-11
-9.58338e-11
1.96125e-11
-9.97002e-11
1.90132e-11
-1.03441e-10
1.83935e-11
-1.07051e-10
1.77547e-11
-1.10528e-10
1.70982e-11
-1.13868e-10
1.64251e-11
-1.17067e-10
1.57366e-11
-1.20123e-10
1.5034e-11
-1.23033e-10
1.43186e-11
-1.25794e-10
1.35917e-11
-1.28405e-10
1.28544e-11
-1.30863e-10
1.21081e-11
-1.33168e-10
1.1354e-11
-1.35316e-10
1.05934e-11
-1.37308e-10
9.82728e-12
-1.39143e-10
9.05691e-12
-1.40819e-10
8.28348e-12
-1.42336e-10
7.50803e-12
-1.43695e-10
6.73148e-12
-1.44895e-10
5.9548e-12
-1.45936e-10
5.17887e-12
-1.4682e-10
4.40449e-12
-1.47546e-10
3.63248e-12
-1.48117e-10
2.86381e-12
-1.48533e-10
2.09951e-12
-1.48795e-10
1.34051e-12
-1.48905e-10
5.88006e-13
-1.48866e-10
-1.56755e-13
-1.48677e-10
-8.92321e-13
-1.48341e-10
-1.6186e-12
-1.47858e-10
-2.3346e-12
-1.47233e-10
-3.03931e-12
-1.46467e-10
-3.7326e-12
-1.4556e-10
-4.41498e-12
-1.44517e-10
-5.08631e-12
-1.43341e-10
-5.74555e-12
-1.42034e-10
-6.39214e-12
-1.40599e-10
-7.02646e-12
-1.39038e-10
-7.6487e-12
-1.37354e-10
-8.25774e-12
-1.35551e-10
-8.85198e-12
-1.33631e-10
-9.43097e-12
-1.31597e-10
-9.99545e-12
-1.29452e-10
-1.05458e-11
-1.272e-10
-1.10812e-11
-1.24842e-10
-1.16003e-11
-1.22382e-10
-1.21031e-11
-1.19822e-10
-1.25906e-11
-1.17166e-10
-1.30639e-11
-1.14417e-10
-1.35234e-11
-1.11577e-10
-1.39684e-11
-1.08653e-10
-1.43984e-11
-1.05646e-10
-1.48135e-11
-1.02561e-10
-1.52136e-11
-9.93977e-11
-1.55974e-11
-9.61604e-11
-1.59634e-11
-9.28522e-11
-1.63111e-11
-8.94759e-11
-1.66423e-11
-8.60337e-11
-1.69603e-11
-8.25282e-11
-1.72675e-11
-7.89627e-11
-1.7564e-11
-7.53411e-11
-1.78474e-11
-7.16671e-11
-1.81144e-11
-6.79448e-11
-1.83631e-11
-6.41783e-11
-1.85935e-11
-6.03705e-11
-1.88075e-11
-5.65219e-11
-1.90073e-11
-5.26321e-11
-1.91942e-11
-4.87035e-11
-1.9369e-11
-4.47419e-11
-1.95326e-11
-4.07528e-11
-1.96848e-11
-3.6738e-11
-1.98226e-11
-3.26975e-11
-1.99434e-11
-2.86321e-11
-2.00509e-11
-2.45447e-11
-2.01496e-11
-2.04408e-11
-2.02359e-11
-1.63316e-11
-2.02997e-11
-1.22164e-11
-2.03412e-11
-8.09304e-12
-2.03764e-11
-3.96342e-12
-2.03941e-11
-1.95189e-11
2.09559e-12
-3.79777e-11
7.87224e-12
-2.10077e-11
1.29378e-11
-2.11445e-11
1.75831e-11
-2.18175e-11
2.19032e-11
-2.24875e-11
2.60112e-11
-2.29899e-11
3.00109e-11
-2.3321e-11
3.39616e-11
-2.35075e-11
3.78875e-11
-2.35869e-11
4.1796e-11
-2.35881e-11
4.56884e-11
-2.35309e-11
4.95632e-11
-2.3428e-11
5.34174e-11
-2.32876e-11
5.72474e-11
-2.31153e-11
6.1049e-11
-2.29151e-11
6.48178e-11
-2.26898e-11
6.85501e-11
-2.24414e-11
7.22418e-11
-2.21711e-11
7.58892e-11
-2.18802e-11
7.94884e-11
-2.15694e-11
8.30361e-11
-2.12391e-11
8.65288e-11
-2.08895e-11
8.99631e-11
-2.05207e-11
9.33354e-11
-2.01331e-11
9.66424e-11
-1.97265e-11
9.9881e-11
-1.93013e-11
1.03048e-10
-1.88575e-11
1.06139e-10
-1.83954e-11
1.09152e-10
-1.79149e-11
1.12082e-10
-1.74161e-11
1.14927e-10
-1.6899e-11
1.17684e-10
-1.63636e-11
1.20348e-10
-1.581e-11
1.22917e-10
-1.52382e-11
1.25387e-10
-1.46483e-11
1.27756e-10
-1.40404e-11
1.30019e-10
-1.34146e-11
1.32175e-10
-1.27709e-11
1.3422e-10
-1.21093e-11
1.36151e-10
-1.143e-11
1.37965e-10
-1.07328e-11
1.39659e-10
-1.0018e-11
1.4123e-10
-9.28586e-12
1.42675e-10
-8.53665e-12
1.43992e-10
-7.77086e-12
1.45178e-10
-6.98904e-12
1.46229e-10
-6.19181e-12
1.47145e-10
-5.3798e-12
1.47921e-10
-4.55363e-12
1.48556e-10
-3.71399e-12
1.49048e-10
-2.86161e-12
1.49393e-10
-1.99725e-12
1.49592e-10
-1.1218e-12
1.4964e-10
-2.37907e-13
1.49536e-10
6.58844e-13
1.4928e-10
1.56408e-12
1.48869e-10
2.476e-12
1.48302e-10
3.39466e-12
1.47578e-10
4.31924e-12
1.46696e-10
5.24876e-12
1.45655e-10
6.18215e-12
1.44454e-10
7.11831e-12
1.43093e-10
8.05612e-12
1.41573e-10
8.99434e-12
1.39892e-10
9.9316e-12
1.38052e-10
1.08665e-11
1.36054e-10
1.17975e-11
1.33898e-10
1.27233e-11
1.31585e-10
1.36425e-11
1.29118e-10
1.45533e-11
1.26497e-10
1.54544e-11
1.23724e-10
1.63444e-11
1.20803e-10
1.72219e-11
1.17734e-10
1.80853e-11
1.14522e-10
1.89331e-11
1.11168e-10
1.9764e-11
1.07676e-10
2.05763e-11
1.04049e-10
2.13688e-11
1.00291e-10
2.21398e-11
9.64062e-11
2.28876e-11
9.23977e-11
2.36107e-11
8.82703e-11
2.43078e-11
8.40286e-11
2.49774e-11
7.96774e-11
2.56181e-11
7.52218e-11
2.62284e-11
7.06673e-11
2.6807e-11
6.60196e-11
2.73527e-11
6.12846e-11
2.78644e-11
5.64683e-11
2.83409e-11
5.1577e-11
2.87814e-11
4.6617e-11
2.91847e-11
4.15949e-11
2.95503e-11
3.65172e-11
2.98772e-11
3.13907e-11
3.01649e-11
2.62219e-11
3.04127e-11
2.10178e-11
3.06201e-11
1.57851e-11
3.07866e-11
1.0531e-11
3.09119e-11
5.26251e-12
3.09957e-11
-1.31369e-14
3.10376e-11
-5.28913e-12
3.10378e-11
-1.05581e-11
3.09959e-11
-1.5813e-11
3.09123e-11
-2.10466e-11
3.07873e-11
-2.62518e-11
3.06211e-11
-3.14215e-11
3.0414e-11
-3.65487e-11
3.01666e-11
-4.16266e-11
2.98794e-11
-4.66484e-11
2.95528e-11
-5.16075e-11
2.91877e-11
-5.64978e-11
2.87848e-11
-6.13129e-11
2.8345e-11
-6.60467e-11
2.78693e-11
-7.06934e-11
2.73584e-11
-7.52471e-11
2.68136e-11
-7.97022e-11
2.62359e-11
-8.40534e-11
2.56266e-11
-8.82956e-11
2.4987e-11
-9.24239e-11
2.43184e-11
-9.64336e-11
2.36223e-11
-1.0032e-10
2.29001e-11
-1.0408e-10
2.21532e-11
-1.07708e-10
2.13833e-11
-1.11201e-10
2.05918e-11
-1.14556e-10
1.97803e-11
-1.17769e-10
1.89502e-11
-1.20838e-10
1.81031e-11
-1.23759e-10
1.72404e-11
-1.26531e-10
1.63639e-11
-1.2915e-10
1.54748e-11
-1.31616e-10
1.45749e-11
-1.33927e-10
1.36655e-11
-1.36081e-10
1.27481e-11
-1.38078e-10
1.18242e-11
-1.39915e-10
1.08952e-11
-1.41594e-10
9.96241e-12
-1.43112e-10
9.02731e-12
-1.44471e-10
8.09103e-12
-1.4567e-10
7.15463e-12
-1.4671e-10
6.21929e-12
-1.47591e-10
5.28614e-12
-1.48314e-10
4.35622e-12
-1.48879e-10
3.43053e-12
-1.4929e-10
2.51021e-12
-1.49546e-10
1.59658e-12
-1.49648e-10
6.91176e-13
-1.496e-10
-2.0449e-13
-1.49403e-10
-1.09067e-12
-1.49057e-10
-1.96494e-12
-1.48564e-10
-2.82686e-12
-1.47928e-10
-3.67541e-12
-1.47151e-10
-4.51055e-12
-1.46233e-10
-5.33261e-12
-1.45179e-10
-6.14097e-12
-1.4399e-10
-6.93436e-12
-1.42671e-10
-7.71237e-12
-1.41223e-10
-8.47565e-12
-1.3965e-10
-9.22414e-12
-1.37953e-10
-9.95623e-12
-1.36134e-10
-1.06703e-11
-1.34199e-10
-1.13665e-11
-1.32149e-10
-1.2046e-11
-1.29989e-10
-1.27085e-11
-1.27721e-10
-1.33524e-11
-1.25347e-10
-1.39763e-11
-1.22869e-10
-1.45809e-11
-1.20294e-10
-1.51679e-11
-1.17623e-10
-1.57382e-11
-1.14859e-10
-1.62908e-11
-1.12004e-10
-1.68245e-11
-1.09062e-10
-1.73397e-11
-1.06039e-10
-1.78374e-11
-1.02937e-10
-1.83179e-11
-9.97598e-11
-1.87792e-11