/*--------------------------------*- C++ -*----------------------------------*\
| =========                 |                                                 |
| \\      /  F ield         | OpenFOAM: The Open Source CFD Toolbox           |
|  \\    /   O peration     | Version:  2412                                  |
|   \\  /    A nd           | Website:  www.openfoam.com                      |
|    \\/     M anipulation  |                                                 |
\*---------------------------------------------------------------------------*/
FoamFile
{
    version     2.0;
    format      ascii;
    arch        "LSB;label=32;scalar=64";
    class       volVectorField;
    location    "1.01";
    object      U;
}
// * * * * * * * * * * * * * * * * * * * * * * * * * * * * * * * * * * * * * //

dimensions      [0 1 -1 0 0 0 0];

internalField   nonuniform List<vector> 
40000
(
(1.96245e-05 1.56083e-05 0)
(-1.40281e-05 2.09544e-05 0)
(-5.47862e-06 8.39677e-07 0)
(-8.70144e-06 -1.36046e-06 0)
(-6.01176e-07 -2.31501e-06 0)
(5.38599e-06 -2.43484e-06 0)
(1.12303e-05 -2.40094e-06 0)
(1.65848e-05 -2.302e-06 0)
(2.17004e-05 -2.16819e-06 0)
(2.66321e-05 -2.08139e-06 0)
(3.13213e-05 -2.02051e-06 0)
(3.58325e-05 -1.96674e-06 0)
(4.02085e-05 -1.92418e-06 0)
(4.44625e-05 -1.8886e-06 0)
(4.861e-05 -1.85864e-06 0)
(5.26592e-05 -1.83151e-06 0)
(5.66216e-05 -1.80408e-06 0)
(6.05052e-05 -1.77706e-06 0)
(6.4311e-05 -1.74974e-06 0)
(6.80406e-05 -1.72182e-06 0)
(7.16949e-05 -1.69276e-06 0)
(7.52735e-05 -1.66257e-06 0)
(7.87752e-05 -1.63103e-06 0)
(8.21989e-05 -1.59762e-06 0)
(8.55426e-05 -1.56227e-06 0)
(8.88046e-05 -1.5251e-06 0)
(9.19833e-05 -1.48636e-06 0)
(9.50769e-05 -1.44661e-06 0)
(9.80841e-05 -1.40614e-06 0)
(0.000101004 -1.36489e-06 0)
(0.000103834 -1.32274e-06 0)
(0.000106573 -1.27955e-06 0)
(0.000109221 -1.23516e-06 0)
(0.000111774 -1.18951e-06 0)
(0.00011423 -1.14282e-06 0)
(0.000116588 -1.09531e-06 0)
(0.000118846 -1.04681e-06 0)
(0.000121001 -9.97134e-07 0)
(0.00012305 -9.46315e-07 0)
(0.00012499 -8.9419e-07 0)
(0.000126819 -8.40398e-07 0)
(0.000128533 -7.84886e-07 0)
(0.000130129 -7.27759e-07 0)
(0.000131603 -6.68911e-07 0)
(0.000132952 -6.08342e-07 0)
(0.000134173 -5.46337e-07 0)
(0.000135264 -4.83076e-07 0)
(0.000136223 -4.18583e-07 0)
(0.000137046 -3.53046e-07 0)
(0.000137733 -2.86785e-07 0)
(0.000138282 -2.19995e-07 0)
(0.000138692 -1.52821e-07 0)
(0.000138961 -8.55612e-08 0)
(0.000139087 -1.85944e-08 0)
(0.000139069 4.93333e-08 0)
(0.000138908 1.19891e-07 0)
(0.000138605 1.91128e-07 0)
(0.000138157 2.63049e-07 0)
(0.000137565 3.34656e-07 0)
(0.000136826 4.06302e-07 0)
(0.00013594 4.7853e-07 0)
(0.000134907 5.51451e-07 0)
(0.000133725 6.24866e-07 0)
(0.000132395 6.98642e-07 0)
(0.000130915 7.72696e-07 0)
(0.000129286 8.46777e-07 0)
(0.000127509 9.20482e-07 0)
(0.000125584 9.93495e-07 0)
(0.000123512 1.06567e-06 0)
(0.000121296 1.13688e-06 0)
(0.000118936 1.20694e-06 0)
(0.000116434 1.27565e-06 0)
(0.000113793 1.34296e-06 0)
(0.000111013 1.40898e-06 0)
(0.000108097 1.47383e-06 0)
(0.000105046 1.53757e-06 0)
(0.000101863 1.60011e-06 0)
(9.85504e-05 1.66136e-06 0)
(9.51105e-05 1.72136e-06 0)
(9.15466e-05 1.78014e-06 0)
(8.78622e-05 1.83756e-06 0)
(8.40613e-05 1.89331e-06 0)
(8.01486e-05 1.94706e-06 0)
(7.6129e-05 1.99867e-06 0)
(7.20077e-05 2.04812e-06 0)
(6.77899e-05 2.09524e-06 0)
(6.34812e-05 2.13968e-06 0)
(5.90876e-05 2.18099e-06 0)
(5.46151e-05 2.2189e-06 0)
(5.00699e-05 2.25336e-06 0)
(4.54581e-05 2.28447e-06 0)
(4.07857e-05 2.31217e-06 0)
(3.6059e-05 2.33625e-06 0)
(3.12845e-05 2.35661e-06 0)
(2.64686e-05 2.37353e-06 0)
(2.16179e-05 2.38761e-06 0)
(1.67383e-05 2.39938e-06 0)
(1.18362e-05 2.40883e-06 0)
(6.91777e-06 2.41539e-06 0)
(1.98927e-06 2.41832e-06 0)
(-2.94272e-06 2.4173e-06 0)
(-7.87152e-06 2.4126e-06 0)
(-1.27906e-05 2.40484e-06 0)
(-1.76934e-05 2.39449e-06 0)
(-2.25736e-05 2.38162e-06 0)
(-2.74252e-05 2.36594e-06 0)
(-3.22419e-05 2.34712e-06 0)
(-3.70174e-05 2.32508e-06 0)
(-4.17457e-05 2.29999e-06 0)
(-4.64205e-05 2.27205e-06 0)
(-5.10357e-05 2.24135e-06 0)
(-5.55851e-05 2.20786e-06 0)
(-6.00626e-05 2.17152e-06 0)
(-6.4462e-05 2.13236e-06 0)
(-6.87771e-05 2.09051e-06 0)
(-7.30018e-05 2.04608e-06 0)
(-7.71305e-05 1.9991e-06 0)
(-8.11576e-05 1.94955e-06 0)
(-8.50778e-05 1.89741e-06 0)
(-8.88866e-05 1.84274e-06 0)
(-9.25796e-05 1.78573e-06 0)
(-9.6153e-05 1.72669e-06 0)
(-9.96037e-05 1.66598e-06 0)
(-0.000102929 1.60387e-06 0)
(-0.000106125 1.54049e-06 0)
(-0.000109191 1.47596e-06 0)
(-0.000112124 1.41029e-06 0)
(-0.000114921 1.34342e-06 0)
(-0.000117582 1.27544e-06 0)
(-0.000120103 1.2065e-06 0)
(-0.000122484 1.13666e-06 0)
(-0.000124723 1.066e-06 0)
(-0.000126818 9.94637e-07 0)
(-0.000128769 9.22647e-07 0)
(-0.000130576 8.50182e-07 0)
(-0.000132237 7.77441e-07 0)
(-0.000133753 7.04626e-07 0)
(-0.000135123 6.32045e-07 0)
(-0.000136349 5.59955e-07 0)
(-0.000137428 4.8838e-07 0)
(-0.00013836 4.17202e-07 0)
(-0.000139145 3.4627e-07 0)
(-0.000139782 2.75373e-07 0)
(-0.000140269 2.04184e-07 0)
(-0.000140606 1.32146e-07 0)
(-0.000140794 5.89957e-08 0)
(-0.000140838 -1.34942e-08 0)
(-0.000140735 -8.36708e-08 0)
(-0.000140489 -1.53044e-07 0)
(-0.000140105 -2.21243e-07 0)
(-0.000139587 -2.87888e-07 0)
(-0.000138937 -3.52739e-07 0)
(-0.00013816 -4.15415e-07 0)
(-0.000137257 -4.75737e-07 0)
(-0.000136232 -5.34201e-07 0)
(-0.000135083 -5.91904e-07 0)
(-0.000133812 -6.49206e-07 0)
(-0.000132419 -7.0537e-07 0)
(-0.000130906 -7.60121e-07 0)
(-0.000129273 -8.14451e-07 0)
(-0.000127522 -8.69195e-07 0)
(-0.000125657 -9.235e-07 0)
(-0.000123683 -9.75613e-07 0)
(-0.000121605 -1.02524e-06 0)
(-0.000119427 -1.07395e-06 0)
(-0.000117153 -1.12284e-06 0)
(-0.000114786 -1.17079e-06 0)
(-0.000112329 -1.21561e-06 0)
(-0.000109782 -1.2568e-06 0)
(-0.000107146 -1.29646e-06 0)
(-0.000104422 -1.33722e-06 0)
(-0.000101614 -1.37968e-06 0)
(-9.8724e-05 -1.42195e-06 0)
(-9.57574e-05 -1.4614e-06 0)
(-9.2721e-05 -1.4969e-06 0)
(-8.96214e-05 -1.5292e-06 0)
(-8.6462e-05 -1.55943e-06 0)
(-8.32432e-05 -1.58832e-06 0)
(-7.99643e-05 -1.61649e-06 0)
(-7.66258e-05 -1.6449e-06 0)
(-7.32284e-05 -1.67531e-06 0)
(-6.97737e-05 -1.70887e-06 0)
(-6.62644e-05 -1.7437e-06 0)
(-6.27051e-05 -1.7744e-06 0)
(-5.91022e-05 -1.79514e-06 0)
(-5.54638e-05 -1.8039e-06 0)
(-5.1796e-05 -1.80436e-06 0)
(-4.81001e-05 -1.80379e-06 0)
(-4.43724e-05 -1.80908e-06 0)
(-4.06089e-05 -1.82279e-06 0)
(-3.68092e-05 -1.84174e-06 0)
(-3.29777e-05 -1.85998e-06 0)
(-2.91207e-05 -1.87273e-06 0)
(-2.52455e-05 -1.88016e-06 0)
(-2.13604e-05 -1.88877e-06 0)
(-1.74711e-05 -1.90466e-06 0)
(-1.35718e-05 -1.92002e-06 0)
(-9.64995e-06 -1.91429e-06 0)
(-5.7398e-06 -1.88227e-06 0)
(-1.85479e-06 -1.84875e-06 0)
(2.5105e-05 -2.52808e-05 0)
(2.37859e-05 1.1888e-05 0)
(2.52108e-05 -4.67251e-06 0)
(2.35557e-05 -6.53895e-06 0)
(2.4498e-05 -7.76947e-06 0)
(2.63654e-05 -7.84222e-06 0)
(2.90715e-05 -7.6953e-06 0)
(3.22463e-05 -7.43604e-06 0)
(3.57153e-05 -7.12473e-06 0)
(3.93656e-05 -6.87604e-06 0)
(4.31017e-05 -6.67212e-06 0)
(4.68807e-05 -6.49196e-06 0)
(5.06769e-05 -6.33784e-06 0)
(5.447e-05 -6.20182e-06 0)
(5.82463e-05 -6.07995e-06 0)
(6.1996e-05 -5.9668e-06 0)
(6.57135e-05 -5.8569e-06 0)
(6.93938e-05 -5.75027e-06 0)
(7.30315e-05 -5.64505e-06 0)
(7.66221e-05 -5.53987e-06 0)
(8.01615e-05 -5.43358e-06 0)
(8.36465e-05 -5.32542e-06 0)
(8.7074e-05 -5.21478e-06 0)
(9.0441e-05 -5.1011e-06 0)
(9.37447e-05 -4.98403e-06 0)
(9.69821e-05 -4.86353e-06 0)
(0.000100149 -4.73989e-06 0)
(0.000103243 -4.61337e-06 0)
(0.00010626 -4.48402e-06 0)
(0.000109196 -4.35187e-06 0)
(0.000112047 -4.21679e-06 0)
(0.000114811 -4.07845e-06 0)
(0.000117484 -3.93654e-06 0)
(0.000120063 -3.79106e-06 0)
(0.000122545 -3.64213e-06 0)
(0.000124927 -3.48984e-06 0)
(0.000127205 -3.33407e-06 0)
(0.000129376 -3.17461e-06 0)
(0.000131436 -3.01129e-06 0)
(0.000133384 -2.84376e-06 0)
(0.000135215 -2.67159e-06 0)
(0.000136929 -2.49469e-06 0)
(0.000138522 -2.31309e-06 0)
(0.000139991 -2.12682e-06 0)
(0.000141336 -1.93609e-06 0)
(0.000142552 -1.74135e-06 0)
(0.000143638 -1.54288e-06 0)
(0.00014459 -1.34088e-06 0)
(0.000145407 -1.13572e-06 0)
(0.000146085 -9.27814e-07 0)
(0.000146623 -7.17484e-07 0)
(0.000147018 -5.05084e-07 0)
(0.000147268 -2.91132e-07 0)
(0.000147372 -7.60829e-08 0)
(0.000147328 1.40842e-07 0)
(0.000147133 3.61457e-07 0)
(0.000146786 5.83436e-07 0)
(0.000146284 8.06684e-07 0)
(0.000145627 1.03054e-06 0)
(0.000144815 1.2553e-06 0)
(0.000143847 1.48132e-06 0)
(0.000142722 1.70859e-06 0)
(0.000141441 1.93681e-06 0)
(0.000140004 2.16569e-06 0)
(0.000138411 2.39486e-06 0)
(0.000136662 2.62376e-06 0)
(0.000134759 2.85174e-06 0)
(0.000132701 3.07828e-06 0)
(0.00013049 3.303e-06 0)
(0.000128126 3.52551e-06 0)
(0.000125611 3.74542e-06 0)
(0.000122945 3.96238e-06 0)
(0.000120132 4.17611e-06 0)
(0.000117174 4.38639e-06 0)
(0.000114073 4.59303e-06 0)
(0.000110832 4.79573e-06 0)
(0.000107455 4.99414e-06 0)
(0.000103944 5.18791e-06 0)
(0.000100305 5.3767e-06 0)
(9.65407e-05 5.56023e-06 0)
(9.26548e-05 5.73815e-06 0)
(8.86519e-05 5.90998e-06 0)
(8.45368e-05 6.0752e-06 0)
(8.03139e-05 6.23341e-06 0)
(7.59877e-05 6.38432e-06 0)
(7.15632e-05 6.5276e-06 0)
(6.70459e-05 6.66273e-06 0)
(6.24414e-05 6.7891e-06 0)
(5.77554e-05 6.9062e-06 0)
(5.29931e-05 7.01373e-06 0)
(4.81603e-05 7.11166e-06 0)
(4.3263e-05 7.1999e-06 0)
(3.83081e-05 7.27825e-06 0)
(3.33021e-05 7.34651e-06 0)
(2.82512e-05 7.4047e-06 0)
(2.31615e-05 7.45309e-06 0)
(1.80399e-05 7.492e-06 0)
(1.28935e-05 7.52144e-06 0)
(7.72994e-06 7.54108e-06 0)
(2.55643e-06 7.55052e-06 0)
(-2.62024e-06 7.54958e-06 0)
(-7.79346e-06 7.53855e-06 0)
(-1.29565e-05 7.51781e-06 0)
(-1.81025e-05 7.48764e-06 0)
(-2.32241e-05 7.44804e-06 0)
(-2.83144e-05 7.39883e-06 0)
(-3.33666e-05 7.33991e-06 0)
(-3.83741e-05 7.27133e-06 0)
(-4.33302e-05 7.19325e-06 0)
(-4.82285e-05 7.10583e-06 0)
(-5.30626e-05 7.00915e-06 0)
(-5.78263e-05 6.90325e-06 0)
(-6.25137e-05 6.78826e-06 0)
(-6.71189e-05 6.66441e-06 0)
(-7.16366e-05 6.53199e-06 0)
(-7.60612e-05 6.39127e-06 0)
(-8.03876e-05 6.24249e-06 0)
(-8.4611e-05 6.08587e-06 0)
(-8.87264e-05 5.92177e-06 0)
(-9.27295e-05 5.75065e-06 0)
(-9.66157e-05 5.5731e-06 0)
(-0.000100381 5.38975e-06 0)
(-0.000104021 5.20123e-06 0)
(-0.000107531 5.00804e-06 0)
(-0.000110908 4.81051e-06 0)
(-0.000114149 4.60891e-06 0)
(-0.00011725 4.40349e-06 0)
(-0.000120208 4.19449e-06 0)
(-0.000123021 3.98218e-06 0)
(-0.000125687 3.76698e-06 0)
(-0.000128204 3.54926e-06 0)
(-0.000130571 3.32934e-06 0)
(-0.000132785 3.10757e-06 0)
(-0.000134845 2.88433e-06 0)
(-0.000136751 2.66004e-06 0)
(-0.000138502 2.43511e-06 0)
(-0.000140095 2.20984e-06 0)
(-0.000141531 1.98446e-06 0)
(-0.000142809 1.75917e-06 0)
(-0.000143929 1.53393e-06 0)
(-0.000144892 1.30847e-06 0)
(-0.000145698 1.08268e-06 0)
(-0.000146349 8.56627e-07 0)
(-0.000146847 6.3044e-07 0)
(-0.000147195 4.04222e-07 0)
(-0.000147394 1.78467e-07 0)
(-0.000147445 -4.46544e-08 0)
(-0.00014735 -2.62852e-07 0)
(-0.000147111 -4.77099e-07 0)
(-0.000146727 -6.8695e-07 0)
(-0.000146198 -8.92144e-07 0)
(-0.000145526 -1.09275e-06 0)
(-0.000144711 -1.28896e-06 0)
(-0.000143757 -1.48123e-06 0)
(-0.000142666 -1.67037e-06 0)
(-0.000141442 -1.85738e-06 0)
(-0.000140088 -2.0426e-06 0)
(-0.000138609 -2.22528e-06 0)
(-0.00013701 -2.4045e-06 0)
(-0.000135292 -2.58017e-06 0)
(-0.000133457 -2.75236e-06 0)
(-0.000131509 -2.92015e-06 0)
(-0.000129452 -3.08187e-06 0)
(-0.000127287 -3.23692e-06 0)
(-0.000125015 -3.3865e-06 0)
(-0.000122636 -3.53231e-06 0)
(-0.000120153 -3.67478e-06 0)
(-0.000117569 -3.81311e-06 0)
(-0.00011489 -3.94698e-06 0)
(-0.000112119 -4.07782e-06 0)
(-0.00010926 -4.20757e-06 0)
(-0.000106322 -4.33628e-06 0)
(-0.000103313 -4.46114e-06 0)
(-0.000100236 -4.57822e-06 0)
(-9.70835e-05 -4.68538e-06 0)
(-9.38489e-05 -4.78385e-06 0)
(-9.05279e-05 -4.87697e-06 0)
(-8.71266e-05 -4.96826e-06 0)
(-8.36589e-05 -5.06002e-06 0)
(-8.01404e-05 -5.15292e-06 0)
(-7.65812e-05 -5.24611e-06 0)
(-7.29825e-05 -5.33701e-06 0)
(-6.93384e-05 -5.42082e-06 0)
(-6.5641e-05 -5.49199e-06 0)
(-6.18861e-05 -5.5477e-06 0)
(-5.8076e-05 -5.59026e-06 0)
(-5.42175e-05 -5.62655e-06 0)
(-5.032e-05 -5.66419e-06 0)
(-4.63922e-05 -5.70749e-06 0)
(-4.24406e-05 -5.75608e-06 0)
(-3.84685e-05 -5.80555e-06 0)
(-3.44749e-05 -5.85002e-06 0)
(-3.04562e-05 -5.88509e-06 0)
(-2.6414e-05 -5.91183e-06 0)
(-2.23589e-05 -5.93758e-06 0)
(-1.82955e-05 -5.96538e-06 0)
(-1.42068e-05 -5.98183e-06 0)
(-1.00764e-05 -5.96933e-06 0)
(-5.9775e-06 -5.95504e-06 0)
(-1.88297e-06 -5.75026e-06 0)
(4.86805e-06 -2.40267e-05 0)
(7.10818e-06 4.99885e-06 0)
(1.87582e-05 -1.43524e-06 0)
(2.01145e-05 -5.57361e-06 0)
(2.30122e-05 -7.93721e-06 0)
(2.59756e-05 -9.15721e-06 0)
(2.92079e-05 -9.76331e-06 0)
(3.264e-05 -1.00363e-05 0)
(3.62107e-05 -1.01229e-05 0)
(3.98783e-05 -1.01208e-05 0)
(4.36062e-05 -1.00711e-05 0)
(4.73677e-05 -9.99326e-06 0)
(5.11436e-05 -9.9e-06 0)
(5.49178e-05 -9.79702e-06 0)
(5.86779e-05 -9.68689e-06 0)
(6.24153e-05 -9.56991e-06 0)
(6.61228e-05 -9.44591e-06 0)
(6.9795e-05 -9.31542e-06 0)
(7.34265e-05 -9.17833e-06 0)
(7.70124e-05 -9.03448e-06 0)
(8.05486e-05 -8.88362e-06 0)
(8.40315e-05 -8.72554e-06 0)
(8.74578e-05 -8.56034e-06 0)
(9.08247e-05 -8.38783e-06 0)
(9.41291e-05 -8.20798e-06 0)
(9.73675e-05 -8.02118e-06 0)
(0.000100536 -7.82764e-06 0)
(0.000103632 -7.62741e-06 0)
(0.000106651 -7.42084e-06 0)
(0.000109589 -7.20813e-06 0)
(0.000112442 -6.98919e-06 0)
(0.000115209 -6.76384e-06 0)
(0.000117885 -6.53191e-06 0)
(0.000120468 -6.29328e-06 0)
(0.000122954 -6.04792e-06 0)
(0.000125339 -5.79575e-06 0)
(0.000127621 -5.53669e-06 0)
(0.000129796 -5.2707e-06 0)
(0.00013186 -4.99764e-06 0)
(0.000133812 -4.71726e-06 0)
(0.000135647 -4.42935e-06 0)
(0.000137365 -4.13387e-06 0)
(0.000138962 -3.83079e-06 0)
(0.000140436 -3.52027e-06 0)
(0.000141784 -3.2026e-06 0)
(0.000143005 -2.8782e-06 0)
(0.000144094 -2.54753e-06 0)
(0.000145049 -2.21103e-06 0)
(0.000145869 -1.86916e-06 0)
(0.00014655 -1.52235e-06 0)
(0.00014709 -1.17099e-06 0)
(0.000147487 -8.15398e-07 0)
(0.000147739 -4.55891e-07 0)
(0.000147844 -9.27498e-08 0)
(0.000147801 2.73769e-07 0)
(0.000147608 6.43295e-07 0)
(0.00014726 1.01562e-06 0)
(0.000146759 1.39043e-06 0)
(0.000146102 1.76802e-06 0)
(0.00014529 2.14822e-06 0)
(0.000144321 2.53064e-06 0)
(0.000143195 2.91481e-06 0)
(0.000141912 3.30022e-06 0)
(0.000140472 3.68627e-06 0)
(0.000138876 4.07219e-06 0)
(0.000137124 4.45709e-06 0)
(0.000135215 4.84007e-06 0)
(0.000133152 5.22026e-06 0)
(0.000130934 5.59691e-06 0)
(0.000128563 5.96936e-06 0)
(0.00012604 6.33707e-06 0)
(0.000123366 6.69959e-06 0)
(0.000120544 7.05654e-06 0)
(0.000117577 7.4076e-06 0)
(0.000114466 7.75253e-06 0)
(0.000111216 8.09101e-06 0)
(0.000107828 8.42264e-06 0)
(0.000104308 8.74693e-06 0)
(0.000100658 9.06334e-06 0)
(9.6882e-05 9.3713e-06 0)
(9.29845e-05 9.67017e-06 0)
(8.89693e-05 9.95912e-06 0)
(8.48413e-05 1.02372e-05 0)
(8.06051e-05 1.05036e-05 0)
(7.62653e-05 1.07574e-05 0)
(7.18264e-05 1.09979e-05 0)
(6.72938e-05 1.12243e-05 0)
(6.26733e-05 1.14357e-05 0)
(5.79706e-05 1.16314e-05 0)
(5.31916e-05 1.18109e-05 0)
(4.83421e-05 1.19741e-05 0)
(4.3428e-05 1.21209e-05 0)
(3.84559e-05 1.22511e-05 0)
(3.34323e-05 1.23646e-05 0)
(2.83638e-05 1.24615e-05 0)
(2.32569e-05 1.25421e-05 0)
(1.81182e-05 1.26067e-05 0)
(1.29547e-05 1.26555e-05 0)
(7.77373e-06 1.26882e-05 0)
(2.58237e-06 1.27044e-05 0)
(-2.61224e-06 1.27037e-05 0)
(-7.80316e-06 1.26862e-05 0)
(-1.29836e-05 1.2652e-05 0)
(-1.81468e-05 1.26012e-05 0)
(-2.32856e-05 1.2534e-05 0)
(-2.83931e-05 1.24503e-05 0)
(-3.34624e-05 1.23505e-05 0)
(-3.84867e-05 1.22344e-05 0)
(-4.34594e-05 1.21025e-05 0)
(-4.83739e-05 1.19549e-05 0)
(-5.3224e-05 1.17917e-05 0)
(-5.80034e-05 1.16133e-05 0)
(-6.2706e-05 1.142e-05 0)
(-6.73262e-05 1.12122e-05 0)
(-7.18583e-05 1.09902e-05 0)
(-7.62971e-05 1.07545e-05 0)
(-8.06375e-05 1.05054e-05 0)
(-8.48744e-05 1.02434e-05 0)
(-8.9003e-05 9.96901e-06 0)
(-9.30187e-05 9.68309e-06 0)
(-9.6917e-05 9.38644e-06 0)
(-0.000100693 9.07987e-06 0)
(-0.000104344 8.76414e-06 0)
(-0.000107865 8.43989e-06 0)
(-0.000111252 8.10766e-06 0)
(-0.000114502 7.768e-06 0)
(-0.000117611 7.42147e-06 0)
(-0.000120578 7.06861e-06 0)
(-0.000123399 6.71002e-06 0)
(-0.000126072 6.34634e-06 0)
(-0.000128595 5.9782e-06 0)
(-0.000130967 5.60621e-06 0)
(-0.000133186 5.23095e-06 0)
(-0.000135251 4.85306e-06 0)
(-0.00013716 4.4733e-06 0)
(-0.000138913 4.09235e-06 0)
(-0.000140508 3.71085e-06 0)
(-0.000141946 3.32925e-06 0)
(-0.000143224 2.94786e-06 0)
(-0.000144345 2.56684e-06 0)
(-0.000145307 2.18625e-06 0)
(-0.000146113 1.80606e-06 0)
(-0.000146763 1.42654e-06 0)
(-0.000147261 1.04819e-06 0)
(-0.000147607 6.71841e-07 0)
(-0.000147804 2.98433e-07 0)
(-0.000147852 -7.15975e-08 0)
(-0.000147754 -4.37436e-07 0)
(-0.00014751 -7.97253e-07 0)
(-0.000147121 -1.15032e-06 0)
(-0.000146587 -1.49652e-06 0)
(-0.000145908 -1.83594e-06 0)
(-0.000145087 -2.16846e-06 0)
(-0.000144127 -2.49423e-06 0)
(-0.00014303 -2.81425e-06 0)
(-0.0001418 -3.12949e-06 0)
(-0.00014044 -3.43993e-06 0)
(-0.000138955 -3.7448e-06 0)
(-0.00013735 -4.04371e-06 0)
(-0.000135626 -4.3369e-06 0)
(-0.000133784 -4.62445e-06 0)
(-0.000131829 -4.90545e-06 0)
(-0.000129764 -5.17872e-06 0)
(-0.000127592 -5.44402e-06 0)
(-0.000125313 -5.70214e-06 0)
(-0.000122928 -5.95369e-06 0)
(-0.000120437 -6.19818e-06 0)
(-0.000117845 -6.4345e-06 0)
(-0.000115156 -6.66236e-06 0)
(-0.000112376 -6.88294e-06 0)
(-0.000109512 -7.09791e-06 0)
(-0.00010657 -7.30753e-06 0)
(-0.000103554 -7.50993e-06 0)
(-0.000100465 -7.70245e-06 0)
(-9.73011e-05 -7.88383e-06 0)
(-9.40564e-05 -8.05529e-06 0)
(-9.07282e-05 -8.2196e-06 0)
(-8.73207e-05 -8.37928e-06 0)
(-8.38466e-05 -8.53551e-06 0)
(-8.03214e-05 -8.68841e-06 0)
(-7.67551e-05 -8.83669e-06 0)
(-7.31472e-05 -8.97694e-06 0)
(-6.94898e-05 -9.1041e-06 0)
(-6.57748e-05 -9.21365e-06 0)
(-6.2001e-05 -9.30503e-06 0)
(-5.81756e-05 -9.38307e-06 0)
(-5.43096e-05 -9.45603e-06 0)
(-5.04119e-05 -9.53163e-06 0)
(-4.6487e-05 -9.61357e-06 0)
(-4.25368e-05 -9.70032e-06 0)
(-3.85607e-05 -9.78549e-06 0)
(-3.45562e-05 -9.8595e-06 0)
(-3.05227e-05 -9.91554e-06 0)
(-2.64694e-05 -9.95716e-06 0)
(-2.24087e-05 -9.99458e-06 0)
(-1.83348e-05 -1.00293e-05 0)
(-1.4221e-05 -1.00479e-05 0)
(-1.00823e-05 -1.00487e-05 0)
(-5.9709e-06 -1.00557e-05 0)
(-1.88071e-06 -9.64846e-06 0)
(1.97258e-06 -3.58332e-05 0)
(4.5828e-06 -5.50836e-06 0)
(1.46505e-05 -8.64641e-06 0)
(1.82652e-05 -1.0737e-05 0)
(2.18817e-05 -1.21264e-05 0)
(2.53302e-05 -1.29365e-05 0)
(2.88633e-05 -1.33888e-05 0)
(3.24712e-05 -1.36471e-05 0)
(3.61507e-05 -1.37766e-05 0)
(3.98876e-05 -1.38192e-05 0)
(4.36601e-05 -1.38025e-05 0)
(4.7451e-05 -1.37443e-05 0)
(5.12465e-05 -1.36571e-05 0)
(5.50348e-05 -1.35486e-05 0)
(5.88068e-05 -1.34228e-05 0)
(6.25548e-05 -1.32821e-05 0)
(6.62722e-05 -1.3128e-05 0)
(6.99538e-05 -1.29613e-05 0)
(7.35943e-05 -1.2783e-05 0)
(7.71893e-05 -1.25932e-05 0)
(8.07347e-05 -1.23923e-05 0)
(8.42266e-05 -1.21805e-05 0)
(8.76619e-05 -1.19578e-05 0)
(9.10377e-05 -1.17241e-05 0)
(9.43506e-05 -1.14799e-05 0)
(9.75972e-05 -1.12256e-05 0)
(0.000100774 -1.09612e-05 0)
(0.000103878 -1.06869e-05 0)
(0.000106904 -1.04031e-05 0)
(0.00010985 -1.01097e-05 0)
(0.000112712 -9.80655e-06 0)
(0.000115487 -9.49367e-06 0)
(0.000118171 -9.17092e-06 0)
(0.000120762 -8.8382e-06 0)
(0.000123256 -8.49546e-06 0)
(0.00012565 -8.14256e-06 0)
(0.00012794 -7.77946e-06 0)
(0.000130124 -7.40616e-06 0)
(0.000132197 -7.02253e-06 0)
(0.000134157 -6.62836e-06 0)
(0.000136002 -6.22363e-06 0)
(0.000137729 -5.80836e-06 0)
(0.000139334 -5.38263e-06 0)
(0.000140817 -4.94668e-06 0)
(0.000142174 -4.50091e-06 0)
(0.000143402 -4.04583e-06 0)
(0.000144498 -3.58194e-06 0)
(0.00014546 -3.10979e-06 0)
(0.000146286 -2.62996e-06 0)
(0.000146972 -2.14292e-06 0)
(0.000147518 -1.64908e-06 0)
(0.00014792 -1.14886e-06 0)
(0.000148177 -6.42744e-07 0)
(0.000148286 -1.31102e-07 0)
(0.000148248 3.86126e-07 0)
(0.000148058 9.07579e-07 0)
(0.000147714 1.43342e-06 0)
(0.000147216 1.96334e-06 0)
(0.000146562 2.49717e-06 0)
(0.000145753 3.03444e-06 0)
(0.000144786 3.57445e-06 0)
(0.000143661 4.11639e-06 0)
(0.000142379 4.6595e-06 0)
(0.000140939 5.20285e-06 0)
(0.000139342 5.74535e-06 0)
(0.000137588 6.28585e-06 0)
(0.000135677 6.82335e-06 0)
(0.000133609 7.35689e-06 0)
(0.000131387 7.88552e-06 0)
(0.00012901 8.40839e-06 0)
(0.000126481 8.92485e-06 0)
(0.000123801 9.43443e-06 0)
(0.000120972 9.93665e-06 0)
(0.000117997 1.0431e-05 0)
(0.000114879 1.09168e-05 0)
(0.000111621 1.13938e-05 0)
(0.000108225 1.18613e-05 0)
(0.000104695 1.23185e-05 0)
(0.000101035 1.27645e-05 0)
(9.7249e-05 1.31983e-05 0)
(9.33398e-05 1.36188e-05 0)
(8.93122e-05 1.4025e-05 0)
(8.51705e-05 1.44156e-05 0)
(8.09195e-05 1.47892e-05 0)
(7.65637e-05 1.51447e-05 0)
(7.2108e-05 1.54812e-05 0)
(6.75579e-05 1.57979e-05 0)
(6.2919e-05 1.60939e-05 0)
(5.81974e-05 1.63683e-05 0)
(5.33989e-05 1.66205e-05 0)
(4.85294e-05 1.68501e-05 0)
(4.35952e-05 1.70571e-05 0)
(3.8603e-05 1.72414e-05 0)
(3.35596e-05 1.74027e-05 0)
(2.84715e-05 1.7541e-05 0)
(2.33453e-05 1.76564e-05 0)
(1.81875e-05 1.77491e-05 0)
(1.30047e-05 1.78194e-05 0)
(7.80408e-06 1.7867e-05 0)
(2.59268e-06 1.78913e-05 0)
(-2.62216e-06 1.78917e-05 0)
(-7.83335e-06 1.78684e-05 0)
(-1.30342e-05 1.7821e-05 0)
(-1.82175e-05 1.77499e-05 0)
(-2.33764e-05 1.76551e-05 0)
(-2.85037e-05 1.75371e-05 0)
(-3.35926e-05 1.7396e-05 0)
(-3.86361e-05 1.72321e-05 0)
(-4.36279e-05 1.70457e-05 0)
(-4.85613e-05 1.68371e-05 0)
(-5.34299e-05 1.66068e-05 0)
(-5.82275e-05 1.63552e-05 0)
(-6.29478e-05 1.60826e-05 0)
(-6.75852e-05 1.57896e-05 0)
(-7.21341e-05 1.54766e-05 0)
(-7.65894e-05 1.51442e-05 0)
(-8.09457e-05 1.47929e-05 0)
(-8.51978e-05 1.44237e-05 0)
(-8.93408e-05 1.40374e-05 0)
(-9.33698e-05 1.36351e-05 0)
(-9.72805e-05 1.32177e-05 0)
(-0.000101069 1.27862e-05 0)
(-0.00010473 1.23416e-05 0)
(-0.000108261 1.18847e-05 0)
(-0.000111657 1.14164e-05 0)
(-0.000114916 1.09375e-05 0)
(-0.000118034 1.0449e-05 0)
(-0.000121007 9.9516e-06 0)
(-0.000123835 9.44619e-06 0)
(-0.000126514 8.93361e-06 0)
(-0.000129042 8.41469e-06 0)
(-0.000131419 7.8903e-06 0)
(-0.000133641 7.3613e-06 0)
(-0.000135709 6.8286e-06 0)
(-0.00013762 6.2932e-06 0)
(-0.000139374 5.75605e-06 0)
(-0.00014097 5.21794e-06 0)
(-0.000142407 4.67952e-06 0)
(-0.000143685 4.14125e-06 0)
(-0.000144805 3.60348e-06 0)
(-0.000145767 3.06657e-06 0)
(-0.000146572 2.53086e-06 0)
(-0.000147221 1.9968e-06 0)
(-0.000147716 1.46507e-06 0)
(-0.000148059 9.36683e-07 0)
(-0.000148252 4.12872e-07 0)
(-0.000148296 -1.05609e-07 0)
(-0.000148191 -6.18848e-07 0)
(-0.00014794 -1.12441e-06 0)
(-0.000147543 -1.62121e-06 0)
(-0.000147001 -2.10906e-06 0)
(-0.000146315 -2.58848e-06 0)
(-0.000145486 -3.05966e-06 0)
(-0.000144518 -3.52215e-06 0)
(-0.000143415 -3.97617e-06 0)
(-0.000142179 -4.42299e-06 0)
(-0.000140813 -4.86328e-06 0)
(-0.000139321 -5.29589e-06 0)
(-0.000137708 -5.7194e-06 0)
(-0.000135977 -6.1339e-06 0)
(-0.000134129 -6.54028e-06 0)
(-0.000132165 -6.93817e-06 0)
(-0.000130091 -7.32565e-06 0)
(-0.00012791 -7.70131e-06 0)
(-0.000125623 -8.06564e-06 0)
(-0.000123229 -8.41985e-06 0)
(-0.000120728 -8.76393e-06 0)
(-0.000118125 -9.09649e-06 0)
(-0.000115428 -9.41671e-06 0)
(-0.000112641 -9.72556e-06 0)
(-0.000109768 -1.00249e-05 0)
(-0.000106816 -1.03153e-05 0)
(-0.000103788 -1.0595e-05 0)
(-0.000100688 -1.08614e-05 0)
(-9.75139e-05 -1.1113e-05 0)
(-9.42603e-05 -1.13513e-05 0)
(-9.09244e-05 -1.15795e-05 0)
(-8.75109e-05 -1.1801e-05 0)
(-8.4032e-05 -1.2017e-05 0)
(-8.05016e-05 -1.22267e-05 0)
(-7.69267e-05 -1.24275e-05 0)
(-7.33047e-05 -1.26158e-05 0)
(-6.96284e-05 -1.2788e-05 0)
(-6.58938e-05 -1.29423e-05 0)
(-6.21055e-05 -1.30811e-05 0)
(-5.8274e-05 -1.32097e-05 0)
(-5.44092e-05 -1.33346e-05 0)
(-5.05163e-05 -1.34602e-05 0)
(-4.65953e-05 -1.35876e-05 0)
(-4.26432e-05 -1.37129e-05 0)
(-3.86554e-05 -1.38266e-05 0)
(-3.46304e-05 -1.39169e-05 0)
(-3.05769e-05 -1.39805e-05 0)
(-2.65134e-05 -1.40287e-05 0)
(-2.24484e-05 -1.40755e-05 0)
(-1.83632e-05 -1.41194e-05 0)
(-1.42378e-05 -1.41505e-05 0)
(-1.00986e-05 -1.41774e-05 0)
(-5.99589e-06 -1.4199e-05 0)
(-1.9204e-06 -1.35982e-05 0)
(1.02985e-06 -3.59068e-05 0)
(3.64952e-06 -1.2335e-05 0)
(1.23408e-05 -1.34998e-05 0)
(1.66354e-05 -1.49493e-05 0)
(2.0834e-05 -1.60365e-05 0)
(2.47309e-05 -1.67204e-05 0)
(2.85123e-05 -1.71536e-05 0)
(3.22651e-05 -1.7417e-05 0)
(3.60502e-05 -1.75578e-05 0)
(3.98628e-05 -1.76116e-05 0)
(4.36904e-05 -1.76016e-05 0)
(4.75218e-05 -1.75438e-05 0)
(5.13474e-05 -1.74494e-05 0)
(5.51597e-05 -1.73259e-05 0)
(5.89515e-05 -1.71783e-05 0)
(6.27168e-05 -1.70099e-05 0)
(6.64501e-05 -1.68227e-05 0)
(7.01462e-05 -1.66183e-05 0)
(7.38004e-05 -1.63978e-05 0)
(7.74087e-05 -1.61618e-05 0)
(8.09668e-05 -1.59112e-05 0)
(8.44714e-05 -1.56461e-05 0)
(8.79194e-05 -1.53665e-05 0)
(9.13075e-05 -1.50727e-05 0)
(9.46324e-05 -1.47651e-05 0)
(9.78909e-05 -1.44437e-05 0)
(0.000101079 -1.41089e-05 0)
(0.000104194 -1.37609e-05 0)
(0.000107232 -1.33999e-05 0)
(0.000110189 -1.30259e-05 0)
(0.000113063 -1.26387e-05 0)
(0.000115849 -1.22382e-05 0)
(0.000118545 -1.18244e-05 0)
(0.000121148 -1.13972e-05 0)
(0.000123654 -1.09566e-05 0)
(0.000126059 -1.05025e-05 0)
(0.000128362 -1.00349e-05 0)
(0.000130557 -9.55389e-06 0)
(0.000132642 -9.05929e-06 0)
(0.000134614 -8.55107e-06 0)
(0.000136471 -8.0293e-06 0)
(0.00013821 -7.49405e-06 0)
(0.000139827 -6.9455e-06 0)
(0.000141321 -6.38401e-06 0)
(0.000142689 -5.81006e-06 0)
(0.000143927 -5.22416e-06 0)
(0.000145033 -4.62686e-06 0)
(0.000146005 -4.01882e-06 0)
(0.000146839 -3.40063e-06 0)
(0.000147534 -2.77276e-06 0)
(0.000148087 -2.13571e-06 0)
(0.000148496 -1.48997e-06 0)
(0.00014876 -8.36001e-07 0)
(0.000148876 -1.74229e-07 0)
(0.000148843 4.94174e-07 0)
(0.000148658 1.16841e-06 0)
(0.000148319 1.84862e-06 0)
(0.000147826 2.53431e-06 0)
(0.000147176 3.22485e-06 0)
(0.00014637 3.91938e-06 0)
(0.000145405 4.61689e-06 0)
(0.000144283 5.31641e-06 0)
(0.000143001 6.01693e-06 0)
(0.000141561 6.71731e-06 0)
(0.000139962 7.41627e-06 0)
(0.000138204 8.11258e-06 0)
(0.000136289 8.80518e-06 0)
(0.000134217 9.49305e-06 0)
(0.000131988 1.01751e-05 0)
(0.000129605 1.08503e-05 0)
(0.000127068 1.1518e-05 0)
(0.00012438 1.21774e-05 0)
(0.000121543 1.28279e-05 0)
(0.000118559 1.34685e-05 0)
(0.000115431 1.40982e-05 0)
(0.000112162 1.47164e-05 0)
(0.000108755 1.53221e-05 0)
(0.000105213 1.59139e-05 0)
(0.000101539 1.64905e-05 0)
(9.7738e-05 1.70504e-05 0)
(9.38128e-05 1.75922e-05 0)
(8.97676e-05 1.81148e-05 0)
(8.5607e-05 1.86164e-05 0)
(8.13356e-05 1.90956e-05 0)
(7.69586e-05 1.95511e-05 0)
(7.24809e-05 1.9982e-05 0)
(6.79078e-05 2.03878e-05 0)
(6.32449e-05 2.07676e-05 0)
(5.84983e-05 2.11206e-05 0)
(5.36745e-05 2.14461e-05 0)
(4.87797e-05 2.17437e-05 0)
(4.38202e-05 2.20134e-05 0)
(3.88023e-05 2.22547e-05 0)
(3.37327e-05 2.24671e-05 0)
(2.86182e-05 2.265e-05 0)
(2.34658e-05 2.28029e-05 0)
(1.82819e-05 2.29259e-05 0)
(1.30731e-05 2.30187e-05 0)
(7.84611e-06 2.30813e-05 0)
(2.60757e-06 2.31133e-05 0)
(-2.63479e-06 2.31144e-05 0)
(-7.87355e-06 2.30847e-05 0)
(-1.31019e-05 2.3024e-05 0)
(-1.83125e-05 2.29324e-05 0)
(-2.34982e-05 2.281e-05 0)
(-2.86522e-05 2.26572e-05 0)
(-3.37674e-05 2.24742e-05 0)
(-3.88371e-05 2.22615e-05 0)
(-4.38544e-05 2.20198e-05 0)
(-4.8813e-05 2.17494e-05 0)
(-5.37062e-05 2.1451e-05 0)
(-5.85279e-05 2.11249e-05 0)
(-6.32719e-05 2.07717e-05 0)
(-6.79326e-05 2.0392e-05 0)
(-7.25042e-05 1.99863e-05 0)
(-7.69813e-05 1.95557e-05 0)
(-8.13585e-05 1.91011e-05 0)
(-8.56306e-05 1.86237e-05 0)
(-8.97923e-05 1.81246e-05 0)
(-9.38392e-05 1.76049e-05 0)
(-9.77666e-05 1.70658e-05 0)
(-0.00010157 1.65084e-05 0)
(-0.000105247 1.5934e-05 0)
(-0.000108791 1.53438e-05 0)
(-0.0001122 1.4739e-05 0)
(-0.00011547 1.41207e-05 0)
(-0.000118598 1.349e-05 0)
(-0.000121582 1.2848e-05 0)
(-0.000124418 1.21956e-05 0)
(-0.000127104 1.15339e-05 0)
(-0.00012964 1.08641e-05 0)
(-0.000132022 1.01871e-05 0)
(-0.000134249 9.50418e-06 0)
(-0.00013632 8.81641e-06 0)
(-0.000138234 8.12499e-06 0)
(-0.00013999 7.43108e-06 0)
(-0.000141587 6.73563e-06 0)
(-0.000143024 6.03945e-06 0)
(-0.000144302 5.34334e-06 0)
(-0.000145421 4.64793e-06 0)
(-0.000146381 3.95382e-06 0)
(-0.000147184 3.26163e-06 0)
(-0.000147831 2.57212e-06 0)
(-0.000148322 1.88616e-06 0)
(-0.000148661 1.20473e-06 0)
(-0.000148848 5.29086e-07 0)
(-0.000148885 -1.3965e-07 0)
(-0.000148774 -8.01006e-07 0)
(-0.000148514 -1.45347e-06 0)
(-0.000148107 -2.09594e-06 0)
(-0.000147556 -2.72787e-06 0)
(-0.000146861 -3.34963e-06 0)
(-0.000146023 -3.96164e-06 0)
(-0.000145045 -4.56352e-06 0)
(-0.000143933 -5.15474e-06 0)
(-0.000142689 -5.73582e-06 0)
(-0.000141315 -6.30766e-06 0)
(-0.000139813 -6.86971e-06 0)
(-0.000138189 -7.41992e-06 0)
(-0.000136448 -7.95713e-06 0)
(-0.00013459 -8.48199e-06 0)
(-0.000132616 -8.9951e-06 0)
(-0.000130529 -9.49499e-06 0)
(-0.000128334 -9.97931e-06 0)
(-0.000126033 -1.04473e-05 0)
(-0.000123628 -1.09003e-05 0)
(-0.000121115 -1.134e-05 0)
(-0.000118499 -1.17662e-05 0)
(-0.000115786 -1.21775e-05 0)
(-0.000112986 -1.25737e-05 0)
(-0.000110103 -1.29566e-05 0)
(-0.000107141 -1.33279e-05 0)
(-0.000104101 -1.36867e-05 0)
(-0.000100984 -1.40296e-05 0)
(-9.77922e-05 -1.43536e-05 0)
(-9.45241e-05 -1.46591e-05 0)
(-9.1179e-05 -1.49501e-05 0)
(-8.77591e-05 -1.52309e-05 0)
(-8.42732e-05 -1.55038e-05 0)
(-8.07328e-05 -1.57679e-05 0)
(-7.7145e-05 -1.60208e-05 0)
(-7.35085e-05 -1.626e-05 0)
(-6.98171e-05 -1.64842e-05 0)
(-6.60687e-05 -1.66935e-05 0)
(-6.22691e-05 -1.68894e-05 0)
(-5.84298e-05 -1.70744e-05 0)
(-5.45607e-05 -1.72504e-05 0)
(-5.06654e-05 -1.7419e-05 0)
(-4.67403e-05 -1.75801e-05 0)
(-4.27762e-05 -1.77293e-05 0)
(-3.87651e-05 -1.78571e-05 0)
(-3.47105e-05 -1.79557e-05 0)
(-3.06349e-05 -1.80299e-05 0)
(-2.65646e-05 -1.8096e-05 0)
(-2.24996e-05 -1.81642e-05 0)
(-1.841e-05 -1.82273e-05 0)
(-1.42794e-05 -1.82787e-05 0)
(-1.01426e-05 -1.83246e-05 0)
(-6.04217e-06 -1.83518e-05 0)
(-1.95419e-06 -1.75576e-05 0)
(9.87808e-07 -3.766e-05 0)
(3.70963e-06 -1.84729e-05 0)
(1.1097e-05 -1.87559e-05 0)
(1.57081e-05 -1.95041e-05 0)
(2.01106e-05 -2.02012e-05 0)
(2.42135e-05 -2.07322e-05 0)
(2.8167e-05 -2.11099e-05 0)
(3.20673e-05 -2.13382e-05 0)
(3.59563e-05 -2.1456e-05 0)
(3.98439e-05 -2.14927e-05 0)