/*--------------------------------*- C++ -*----------------------------------*\
| =========                 |                                                 |
| \\      /  F ield         | OpenFOAM: The Open Source CFD Toolbox           |
|  \\    /   O peration     | Version:  2412                                  |
|   \\  /    A nd           | Website:  www.openfoam.com                      |
|    \\/     M anipulation  |                                                 |
\*---------------------------------------------------------------------------*/
FoamFile
{
    version     2.0;
    format      ascii;
    arch        "LSB;label=32;scalar=64";
    class       volScalarField;
    location    "1.15";
    object      alpha.water;
}
// * * * * * * * * * * * * * * * * * * * * * * * * * * * * * * * * * * * * * //

dimensions      [0 0 0 0 0 0 0];

internalField   nonuniform List<scalar> 
40000
(
8.4648e-190
1.08713e-180
7.08649e-180
8.61326e-180
8.60258e-180
8.12146e-180
7.40865e-180
6.58256e-180
5.71293e-180
4.84875e-180
4.02376e-180
3.2623e-180
2.58178e-180
1.99222e-180
1.49712e-180
1.09424e-180
7.76785e-181
5.34895e-181
3.56853e-181
2.3035e-181
1.43681e-181
8.64859e-182
5.01577e-182
2.79613e-182
1.49279e-182
7.58958e-183
3.64921e-183
1.64426e-183
6.88158e-184
2.65725e-184
9.43594e-185
3.08382e-185
9.32287e-186
2.61866e-186
6.78825e-187
1.5853e-187
3.24527e-188
5.74486e-189
8.83399e-190
1.19255e-190
1.40425e-191
1.41386e-192
1.20085e-193
8.57714e-195
5.15238e-196
2.60404e-197
1.1084e-198
3.98068e-200
1.20881e-201
3.1076e-203
6.75215e-205
1.23004e-206
1.83643e-208
2.10793e-210
2.26271e-212
2.39837e-214
2.50885e-216
2.58843e-218
2.6322e-220
2.63647e-222
2.59912e-224
2.51996e-226
2.40086e-228
2.24581e-230
2.06072e-232
1.85305e-234
1.63134e-236
1.40451e-238
1.18126e-240
9.69362e-243
7.75178e-245
6.03268e-247
4.56241e-249
3.34807e-251
2.38016e-253
1.63635e-255
1.08591e-257
6.94203e-260
4.26594e-262
2.51395e-264
1.4171e-266
7.61959e-269
3.89595e-271
1.88787e-273
8.63702e-276
3.71494e-278
1.49506e-280
5.59917e-283
1.93919e-285
6.16566e-288
1.78421e-290
4.65054e-293
1.07796e-295
2.1865e-298
3.80038e-301
5.50095e-304
6.36334e-307
5.51264e-310
3.17765e-313
7.90359e-317
1.38313e-316
4.65357e-313
7.98753e-310
9.12897e-307
7.81704e-304
5.3511e-301
3.05141e-298
1.49142e-295
6.38038e-293
2.4279e-290
8.32337e-288
2.59754e-285
7.44343e-283
1.97289e-280
4.86713e-278
1.1237e-275
2.43952e-273
5.00125e-271
9.71881e-269
1.79633e-266
3.16761e-264
5.344e-262
8.64778e-260
1.34544e-257
2.01694e-255
2.91915e-253
4.08664e-251
5.5434e-249
7.29774e-247
9.33813e-245
1.16307e-242
1.41191e-240
1.67263e-238
1.93599e-236
2.19178e-234
2.42959e-232
2.63965e-230
2.81346e-228
2.94446e-226
3.02835e-224
3.06334e-222
3.05004e-220
2.99127e-218
2.89166e-216
2.75718e-214
2.59463e-212
2.41114e-210
2.09812e-208
1.40099e-206
7.65618e-205
3.50346e-203
1.35326e-201
4.42039e-200
1.21987e-198
2.83873e-197
5.56213e-196
9.17068e-195
1.27223e-193
1.48505e-192
1.46343e-191
1.23464e-190
9.09553e-190
5.88471e-189
3.3077e-188
1.6087e-187
6.86451e-187
2.6409e-186
9.38264e-186
3.09789e-185
9.46302e-185
2.66083e-184
6.88178e-184
1.64245e-183
3.64158e-183
7.56684e-183
1.48699e-182
2.78312e-182
4.98957e-182
8.60032e-182
1.42856e-181
2.29024e-181
3.5482e-181
5.31857e-181
7.72348e-181
1.08785e-180
1.48821e-180
1.98043e-180
2.56692e-180
3.2447e-180
4.00449e-180
4.83003e-180
5.69913e-180
6.58408e-180
7.45361e-180
8.27429e-180
8.99849e-180
9.43031e-180
8.09932e-180
1.15644e-180
5.74087e-190
3.28475e-186
2.97233e-177
1.78909e-176
2.09057e-176
2.05038e-176
1.92722e-176
1.76308e-176
1.57544e-176
1.37699e-176
1.17772e-176
9.85403e-177
8.06022e-177
6.43982e-177
5.02033e-177
3.81446e-177
2.82125e-177
2.02856e-177
1.41626e-177
9.58989e-178
6.29005e-178
3.99147e-178
2.44744e-178
1.4479e-178
8.24552e-179
4.5035e-179
2.34575e-179
1.15718e-179
5.35697e-180
2.30687e-180
9.18023e-181
3.3658e-181
1.13817e-181
3.56969e-182
1.0434e-182
2.82289e-183
6.89548e-184
1.47905e-184
2.74912e-185
4.45272e-186
6.35853e-187
7.95025e-188
8.52192e-189
7.72559e-190
5.90997e-191
3.81801e-192
2.08504e-193
9.64498e-195
3.79306e-196
1.27464e-197
3.68189e-199
9.19789e-201
1.99841e-202
3.79287e-204
6.3017e-206
9.99856e-208
1.56146e-209
2.39932e-211
3.62602e-213
5.3871e-215
7.86394e-217
1.12729e-218
1.5859e-220
2.18807e-222
2.9585e-224
3.91711e-226
5.07426e-228
6.42532e-230
7.94522e-232
9.5841e-234
1.12653e-235
1.28874e-237
1.43302e-239
1.54674e-241
1.61813e-243
1.63818e-245
1.60222e-247
1.51113e-249
1.37165e-251
1.1957e-253
9.98686e-256
7.97193e-258
6.06491e-260
4.38416e-262
3.00113e-264
1.93815e-266
1.17589e-268
6.67051e-271
3.5189e-273
1.71552e-275
7.673e-278
3.12153e-280
1.14313e-282
3.72058e-285
1.05907e-287
2.58187e-290
5.23911e-293
8.49206e-296
1.03044e-298
8.31755e-302
3.34877e-305
4.52433e-305
1.11865e-301
1.37918e-298
1.13104e-295
6.9437e-293
3.40525e-290
1.39008e-287
4.8601e-285
1.4862e-282
4.03942e-280
9.88359e-278
2.19974e-275
4.49196e-273
8.47761e-271
1.48798e-268
2.44212e-266
3.7657e-264
5.47853e-262
7.54838e-260
9.88284e-258
1.23331e-255
1.47106e-253
1.68133e-251
1.84567e-249
1.9501e-247
1.9871e-245
1.95631e-243
1.864e-241
1.72159e-239
1.54357e-237
1.34535e-235
1.14132e-233
9.43556e-232
7.61021e-230
5.99444e-228
4.6158e-226
3.47764e-224
2.56584e-222
1.85534e-220
1.31577e-218
9.15775e-217
6.25924e-215
4.20362e-213
2.77533e-211
1.80218e-209
1.15146e-207
7.24131e-206
4.34971e-204
2.28446e-202
1.04678e-200
4.16632e-199
1.4323e-197
4.22745e-196
1.06514e-194
2.28006e-193
4.13309e-192
6.33429e-191
8.20209e-190
8.96721e-189
8.29788e-188
6.59152e-187
4.59e-186
2.81919e-185
1.50911e-184
7.00466e-184
2.85772e-183
1.05346e-182
3.5968e-182
1.14474e-181
3.3795e-181
9.20335e-181
2.30959e-180
5.35735e-180
1.15621e-179
2.34204e-179
4.49334e-179
8.22219e-179
1.44321e-178
2.4389e-178
3.97722e-178
6.26773e-178
9.55697e-178
1.41163e-177
2.02233e-177
2.81326e-177
3.80494e-177
5.01042e-177
6.43187e-177
8.05858e-177
9.86611e-177
1.18149e-176
1.38525e-176
1.59158e-176
1.79342e-176
1.98347e-176
2.15146e-176
2.25341e-176
1.94748e-176
2.92613e-177
2.26039e-186
4.7506e-183
2.98496e-174
1.72978e-173
1.98359e-173
1.92377e-173
1.80165e-173
1.65009e-173
1.48009e-173
1.30063e-173
1.1196e-173
9.43652e-174
7.78183e-174
6.27337e-174
4.9387e-174
3.79262e-174
2.83768e-174
2.06603e-174
1.462e-174
1.00447e-174
6.69239e-175
4.31896e-175
2.69666e-175
1.62667e-175
9.45864e-176
5.28217e-176
2.81699e-176
1.4247e-176
6.77063e-177
2.99715e-177
1.22789e-177
4.64258e-178
1.62227e-178
5.27126e-179
1.60099e-179
4.51264e-180
1.15007e-180
2.57565e-181
5.0042e-182
8.49453e-183
1.27633e-183
1.68337e-184
1.90354e-185
1.8197e-186
1.46842e-187
1.00103e-188
5.76694e-190
2.81183e-191
1.1644e-192
4.11716e-194
1.25119e-195
3.29176e-197
7.55347e-199
1.52288e-200
2.71641e-202
4.61911e-204
7.71999e-206
1.26784e-207
2.04536e-209
3.24016e-211
5.03813e-213
7.68531e-215
1.14948e-216
1.6847e-218
2.41786e-220
3.39547e-222
4.66212e-224
6.25319e-226
8.1855e-228
1.04466e-229
1.29843e-231
1.56989e-233
1.84407e-235
2.10167e-237
2.32058e-239
2.47857e-241
2.55651e-243
2.54187e-245
2.43146e-247
2.23291e-249
1.96409e-251
1.65063e-253
1.3217e-255
1.0053e-257
7.23904e-260
4.91651e-262
3.13619e-264
1.87006e-266
1.03674e-268
5.3104e-271
2.49502e-273
1.06602e-275
4.09921e-278
1.40069e-280
4.1851e-283
1.07077e-285
2.28e-288
3.87748e-291
4.93603e-294
4.17984e-297
1.76597e-300
2.35513e-300
5.56245e-297
6.54684e-294
5.12377e-291
3.00117e-288
1.4039e-285
5.46532e-283
1.82187e-280
5.31063e-278
1.37559e-275
3.20692e-273
6.79903e-271
1.32224e-268
2.37595e-266
3.96957e-264
6.19983e-262
9.09512e-260
1.2585e-257
1.64871e-255
2.05183e-253
2.43311e-251
2.75681e-249
2.99205e-247
3.11781e-245
3.12586e-243
3.0212e-241
2.8201e-239
2.54655e-237
2.22802e-235
1.89145e-233
1.56013e-231
1.25189e-229
9.78392e-228
7.45547e-226
5.54486e-224
4.02871e-222
2.86205e-220
1.98963e-218
1.35447e-216
9.03567e-215
5.91032e-213
3.79279e-211
2.389e-209
1.47765e-207
8.97805e-206
5.36024e-204
3.14545e-202
1.75961e-200
8.69809e-199
3.77267e-197
1.42523e-195
4.65476e-194
1.30492e-192
3.12024e-191
6.33222e-190
1.08733e-188
1.57822e-187
1.93633e-186
2.00669e-185
1.7595e-184
1.32463e-183
8.76546e-183
5.13669e-182
2.63031e-181
1.16924e-180
4.57192e-180
1.61768e-179
5.31553e-179
1.63297e-178
4.66527e-178
1.23198e-177
3.0031e-177
6.77663e-177
1.42473e-176
2.81514e-176
5.27571e-176
9.44264e-176
1.6234e-175
2.69076e-175
4.30925e-175
6.67765e-175
1.0024e-174
1.45933e-174
2.06291e-174
2.83457e-174
3.79053e-174
4.93959e-174
6.28052e-174
7.80053e-174
9.47482e-174
1.12661e-173
1.31264e-173
1.4999e-173
1.68222e-173
1.85324e-173
2.00408e-173
2.0955e-173
1.81727e-173
2.85242e-174
3.4535e-183
4.07099e-180
1.72497e-171
9.73057e-171
1.10688e-170
1.06763e-170
9.98224e-171
9.1544e-171
8.23922e-171
7.27562e-171
6.30066e-171
5.34765e-171
4.44486e-171
3.61484e-171
2.87341e-171
2.23005e-171
1.68785e-171
1.24429e-171
8.9245e-172
6.22142e-172
4.21052e-172
2.76344e-172
1.75693e-172
1.08059e-172
6.41526e-173
3.66286e-173
1.99987e-173
1.03689e-173
5.05838e-174
2.30184e-174
9.70924e-175
3.78621e-175
1.36734e-175
4.60347e-176
1.45296e-176
4.26675e-177
1.13442e-177
2.65225e-178
5.3856e-179
9.58052e-180
1.51476e-180
2.10726e-181
2.51231e-182
2.53008e-183
2.1512e-184
1.54509e-185
9.36817e-187
4.79768e-188
2.08143e-189
7.68831e-191
2.43361e-192
6.64962e-194
1.58053e-195
3.29326e-197
6.06112e-199
1.05923e-200
1.81762e-202
3.06203e-204
5.06296e-206
8.21399e-208
1.30705e-209
2.03904e-211
3.11695e-213
4.66615e-215
6.83645e-217
9.7958e-219
1.37167e-220
1.8754e-222
2.50137e-224
3.25139e-226
4.1144e-228
5.06282e-230
6.05048e-232
7.01328e-234
7.87346e-236
8.5478e-238
8.95912e-240
9.04941e-242
8.79176e-244
8.19816e-246
7.3206e-248
6.24422e-250
5.07361e-252
3.91516e-254
2.8597e-256
1.96972e-258
1.27404e-260
7.7019e-263
4.32814e-265
2.24691e-267
1.06978e-269
4.63114e-272
1.80411e-274
6.24439e-277
1.88967e-279
4.89618e-282
1.05567e-284
1.81773e-287
2.34263e-290
2.00818e-293
8.58925e-297
1.15306e-296
2.69185e-293
3.13079e-290
2.42091e-287
1.40084e-284
6.47271e-282
2.48862e-279
8.19213e-277
2.35778e-274
6.02926e-272
1.38745e-269
2.90312e-267
5.57121e-265
9.87715e-263
1.62787e-260
2.50762e-258
3.6276e-256
4.94894e-254
6.39094e-252
7.83852e-250
9.15873e-248
1.02226e-245
1.09271e-243
1.12114e-241
1.10647e-239
1.05243e-237
9.66488e-236
8.58368e-234
7.38401e-232
6.16132e-230
4.99339e-228
3.93544e-226
3.0197e-224
2.25824e-222
1.64755e-220
1.17372e-218
8.17173e-217
5.56441e-215
3.70837e-213
2.42038e-211
1.54798e-209
9.70614e-208
5.96926e-206
3.60205e-204
2.13337e-202
1.24045e-200
7.08202e-199
3.83882e-197
1.83551e-195
7.68234e-194
2.7927e-192
8.75041e-191
2.34632e-189
5.35059e-188
1.0329e-186
1.68386e-185
2.31809e-184
2.6978e-183
2.65275e-182
2.20524e-181
1.57359e-180
9.89438e-180
5.5325e-179
2.7104e-178
1.15404e-177
4.32523e-177
1.46888e-176
4.64466e-176
1.37712e-175
3.80687e-175
9.74707e-175
2.30772e-174
5.06571e-174
1.03751e-173
1.99978e-173
3.66078e-173
6.40896e-173
1.07923e-172
1.75446e-172
2.7594e-172
4.20458e-172
6.21356e-172
8.91547e-172
1.24348e-171
1.68756e-171
2.23101e-171
2.8769e-171
3.62282e-171
4.46031e-171
5.37484e-171
6.34564e-171
7.34688e-171
8.34877e-171
9.31917e-171
1.02256e-170
1.10225e-170
1.15022e-170
1.00016e-170
1.63589e-171
3.1161e-180
2.4439e-177
6.80867e-169
3.74115e-168
4.24264e-168
4.08487e-168
3.81969e-168
3.5099e-168
3.17035e-168
2.81317e-168
2.45067e-168
2.09441e-168
1.75454e-168
1.43946e-168
1.15535e-168
9.06231e-169
6.93873e-169
5.17981e-169
3.7659e-169
2.66398e-169
1.83156e-169
1.2226e-169
7.91545e-170
4.96402e-170
3.00904e-170
1.75659e-170
9.81922e-171
5.21964e-171
2.61429e-171
1.22325e-171
5.31428e-172
2.13836e-172
7.98487e-173
2.78669e-173
9.14347e-174
2.79836e-174
7.76462e-175
1.8961e-175
4.0269e-176
7.51409e-177
1.25154e-177
1.83841e-178
2.31316e-179
2.4569e-180
2.20445e-181
1.6712e-182
1.06836e-183
5.75674e-185
2.62063e-186
1.01258e-187
3.34171e-189
9.48739e-191
2.33503e-192
5.02097e-194
9.50536e-196
1.70145e-197
2.98766e-199
5.14585e-201
8.69196e-203
1.43947e-204
2.33651e-206
3.71572e-208
5.78661e-210
8.82017e-212
1.31505e-213
1.91656e-215
2.72835e-217
3.79069e-219
5.13564e-221
6.7781e-223
8.70577e-225
1.08693e-226
1.31755e-228
1.54856e-230
1.76228e-232
1.93885e-234
2.05884e-236
2.10637e-238
2.07226e-240
1.95633e-242
1.76821e-244
1.52629e-246
1.25477e-248
9.79494e-251
7.23601e-253
5.04008e-255
3.29608e-257
2.01431e-259
1.14413e-261
6.00268e-264
2.88786e-266
1.26309e-268
4.97068e-271
1.73778e-273
5.31117e-276
1.38966e-278
3.02536e-281
5.25931e-284
6.8424e-287
5.92066e-290
2.55594e-293
3.47347e-293
8.03463e-290
9.25802e-287
7.0916e-284
4.06448e-281
1.85996e-278
7.08156e-276
2.30817e-273
6.57688e-271
1.66484e-268
3.79191e-266
7.85199e-264
1.491e-261
2.61522e-259
4.2636e-257
6.49578e-255
9.29241e-253
1.25339e-250
1.60001e-248
1.93951e-246
2.23927e-244
2.46921e-242
2.60691e-240
2.64123e-238
2.57341e-236
2.41586e-234
2.18912e-232
1.91785e-230
1.62694e-228
1.3383e-226
1.06889e-224
8.29908e-223
6.27103e-221
4.61648e-219
3.31408e-217
2.32208e-215
1.58931e-213
1.06334e-211
6.95926e-210
4.45797e-208
2.79656e-206
1.7188e-204
1.0354e-202
6.11527e-201
3.54204e-199
2.01233e-197
1.1215e-195
5.90834e-194
2.73635e-192
1.10541e-190
3.86468e-189
1.16047e-187
2.97188e-186
6.45246e-185
1.18273e-183
1.82707e-182
2.38122e-181
2.62467e-180
2.446e-179
1.92591e-178
1.30116e-177
7.7656e-177
4.13938e-176
1.93875e-175
7.90254e-175
2.83789e-174
9.24723e-174
2.81271e-173
8.04525e-173
2.15092e-172
5.33717e-172
1.22687e-171
2.61912e-171
5.22486e-171
9.82287e-171
1.75635e-170
3.00746e-170
4.96013e-170
7.90809e-170
1.22139e-169
1.82981e-169
2.66182e-169
3.76378e-169
5.17879e-169
6.94063e-169
9.07014e-169
1.15722e-168
1.44315e-168
1.76108e-168
2.10522e-168
2.46766e-168
2.83884e-168
3.20798e-168
3.56364e-168
3.89442e-168
4.18421e-168
4.35697e-168
3.79716e-168
6.4631e-169
1.94838e-177
1.11184e-174
1.99604e-166
1.06665e-165
1.20817e-165
1.16355e-165
1.08953e-165
1.00387e-165
9.10308e-166
8.11807e-166
7.1147e-166
6.123e-166
5.17017e-166
4.2794e-166
3.46851e-166
2.74996e-166
2.13033e-166
1.6106e-166
1.18712e-166
8.52272e-167
5.95341e-167
4.0423e-167
2.66528e-167
1.70443e-167
1.05496e-167
6.29695e-168
3.60404e-168
1.96441e-168
1.01036e-168
4.86282e-169
2.17699e-169
9.04428e-170
3.49413e-170
1.26474e-170
4.31575e-171
1.37706e-171
3.98931e-172
1.01823e-172
2.2639e-173
4.43613e-174
7.79341e-175
1.21028e-175
1.60914e-176
1.80531e-177
1.71277e-178
1.3737e-179
9.28192e-181
5.27554e-182
2.52648e-183
1.02387e-184
3.53225e-186
1.04471e-187
2.66916e-189
5.93692e-191
1.15854e-192
2.12805e-194
3.83061e-196
6.75705e-198
1.16789e-199
1.97751e-201
3.27935e-203
5.32429e-205
8.45975e-207
1.3148e-208
1.99769e-210
2.96539e-212
4.29749e-214
6.07558e-216
8.37194e-218
1.12337e-219
1.46636e-221
1.85992e-223
2.28964e-225
2.73211e-227
3.15561e-229
3.52261e-231
3.79433e-233
3.93667e-235
3.92656e-237
3.75735e-239
3.44151e-241
3.0098e-243
2.50647e-245
1.98159e-247
1.48233e-249
1.0453e-251
6.91968e-254
4.27985e-256
2.45994e-258
1.3058e-260
6.35514e-263
2.81152e-265
1.11898e-267
3.9559e-270
1.22244e-272
3.23357e-275
7.11596e-278
1.25031e-280
1.64393e-283
1.43741e-286
6.2698e-290
8.64654e-290
1.97938e-286
2.25693e-283
1.71054e-280
9.69922e-278
4.39064e-275
1.65346e-272
5.32991e-270
1.50178e-267
3.75869e-265
8.46334e-263
1.7323e-260
3.251e-258
5.63481e-256
9.07637e-254
1.36603e-251
1.93008e-249
2.57084e-247
3.2402e-245
3.87721e-243
4.41797e-241
4.80693e-239
5.0065e-237
5.00276e-235
4.80616e-233
4.44767e-231
3.97174e-229
3.42808e-227
2.86416e-225
2.31967e-223
1.82347e-221
1.39294e-219
1.03516e-217
7.49142e-216
5.28456e-214
3.63674e-212
2.4435e-210
1.60404e-208
1.02942e-206
6.46233e-205
3.9702e-203
2.38805e-201
1.40678e-199
8.11852e-198
4.59066e-196
2.54371e-194
1.38123e-192
7.05709e-191
3.15813e-189
1.22819e-187
4.11843e-186
1.18185e-184
2.88273e-183
5.94309e-182
1.0317e-180
1.50646e-179
1.85436e-178
1.93193e-177
1.7038e-176
1.26905e-175
8.1078e-175
4.58723e-174
2.32836e-173
1.04159e-172
4.06166e-172
1.39695e-171
4.36596e-171
1.27691e-170
3.52158e-170
9.10011e-170
2.18702e-169
4.87862e-169
1.01251e-168
1.96694e-168
3.60642e-168
6.29796e-168
1.05472e-167
1.70361e-167
2.66357e-167
4.03942e-167
5.94929e-167
8.51786e-167
1.18672e-166
1.61061e-166
2.13127e-166
2.75268e-166
3.47434e-166
4.29018e-166
5.18848e-166
6.15218e-166
7.15898e-166
8.18276e-166
9.19448e-166
1.0164e-165
1.10618e-165
1.18454e-165
1.23073e-165
1.07475e-165
1.90155e-166
9.14494e-175
4.00656e-172
4.55364e-164
2.36333e-163
2.67545e-163
2.58016e-163
2.42145e-163
2.23831e-163
2.03836e-163
1.82734e-163
1.61143e-163
1.39673e-163
1.18893e-163
9.92977e-164
8.12861e-164
6.51528e-164
5.10751e-164
3.91147e-164
2.92336e-164
2.1304e-164
1.51222e-164
1.04455e-164
7.01468e-165
4.57456e-165
2.89121e-165
1.76457e-165
1.03413e-165
5.78033e-166
3.05376e-166
1.5125e-166
6.98196e-167
2.99708e-167
1.19882e-167
4.50308e-168
1.59872e-168
5.32e-169
1.60986e-169
4.29825e-170
1.0016e-170
2.06358e-171
3.82865e-172
6.29353e-173
8.8535e-174
1.05087e-174
1.05648e-175
8.98641e-177
6.43415e-178
3.86758e-179
1.95394e-180
8.32896e-182
3.01269e-183
9.31037e-185
2.47669e-186
5.71511e-188
1.15289e-189
2.17845e-191
4.02939e-193
7.29603e-195
1.29323e-196
2.24364e-198
3.80916e-200
6.32674e-202
1.02765e-203
1.63169e-205
2.53119e-207
3.83401e-209
5.6667e-211
8.1664e-213
1.14656e-214
1.56686e-216
2.08211e-218
2.68751e-220
3.36557e-222
4.08392e-224
4.79523e-226
5.44011e-228
5.95349e-230
6.27393e-232
6.35459e-234
6.17326e-236
5.73907e-238
5.09322e-240
4.30317e-242
3.45085e-244
2.61794e-246
1.87188e-248
1.25623e-250
7.87566e-253
4.58764e-255
2.46761e-257
1.21674e-259
5.45287e-262
2.19815e-264
7.86991e-267
2.46256e-269
6.59505e-272
1.46924e-274
2.61307e-277
3.47725e-280
3.07685e-283
1.358e-286
1.90449e-286
4.30819e-283
4.85366e-280
3.63431e-277
2.03569e-274
9.10203e-272
3.38522e-269
1.07756e-266
2.99779e-264
7.40703e-262
1.64628e-259
3.32565e-257
6.15882e-255
1.05322e-252
1.67357e-250
2.48432e-248
3.46151e-246
4.54596e-244
5.64809e-242
6.661e-240
7.47898e-238
8.01661e-236
8.22354e-234
8.0915e-232
7.65244e-230
6.96943e-228
6.12325e-226
5.19823e-224
4.27035e-222
3.39942e-220
2.62561e-218
1.96992e-216
1.43724e-214
1.0207e-212
7.06237e-211
4.7648e-209
3.13691e-207
2.01657e-205
1.26658e-203
7.77646e-202
4.6693e-200
2.74281e-198
1.57665e-196
8.87069e-195
4.8855e-193
2.63393e-191
1.38999e-189
6.86757e-188
2.96073e-186
1.10504e-184
3.54294e-183
9.68644e-182
2.24357e-180
4.37941e-179
7.18053e-178
9.88478e-177
1.14633e-175
1.12642e-174
9.38577e-174
6.60453e-173
3.98534e-172
2.13487e-171
1.03057e-170
4.39845e-170
1.63953e-169
5.3982e-169
1.61765e-168
4.54735e-168
1.2085e-167
3.01623e-167
7.01564e-167
1.51774e-166
3.06092e-166
5.78895e-166
1.03502e-165
1.7652e-165
2.8911e-165
4.57316e-165
7.01136e-165
1.04396e-164
1.51136e-164
2.12941e-164
2.9226e-164
3.91165e-164
5.10975e-164
6.5213e-164
8.14108e-164
9.95225e-164
1.19265e-163
1.40253e-163
1.62001e-163
1.83955e-163
2.05512e-163
2.26055e-163
2.44994e-163
2.61465e-163
2.71042e-163
2.37107e-163
4.35624e-164
3.37562e-172
1.17534e-169
8.3148e-162
4.18783e-161
4.73968e-161
4.57986e-161
4.31012e-161
3.99868e-161
3.65812e-161
3.29743e-161
2.92648e-161
2.55522e-161
2.19307e-161
1.84855e-161
1.52868e-161
1.23897e-161
9.83095e-162
7.62811e-162
5.7822e-162
4.27819e-162
3.08646e-162
2.16915e-162
1.48378e-162
9.86809e-163
6.36857e-163
3.97437e-163
2.38506e-163
1.36733e-163
7.42216e-164
3.78514e-164
1.8031e-164
8.00463e-165
3.31787e-165
1.29414e-165
4.78199e-166
1.66001e-166
5.2496e-167
1.4676e-167
3.58898e-168
7.78502e-169
1.52729e-169
2.6606e-170
3.96563e-171
4.98859e-172
5.32632e-173
4.81701e-174
3.66407e-175
2.33561e-176
1.24834e-177
5.61401e-179
2.13571e-180
6.91825e-182
1.92222e-183
4.61621e-185
9.65602e-187
1.8818e-188
3.58548e-190
6.68018e-192
1.21708e-193
2.16832e-195
3.77695e-197
6.43097e-199
1.07003e-200
1.73915e-202
2.75986e-204
4.2738e-206
6.45418e-208
9.49864e-210
1.36123e-211
1.89788e-213
2.57193e-215
3.3841e-217
4.3184e-219
5.33776e-221
6.38206e-223
7.37039e-225
8.20834e-227
8.80038e-229
9.06588e-231
8.95547e-233
8.46372e-235
7.63413e-237
6.55402e-239
5.33958e-241
4.1145e-243
2.98764e-245
2.0358e-247
1.29566e-249
7.66057e-252
4.18164e-254
2.09218e-256
9.51241e-259
3.88979e-261
1.41247e-263
4.48208e-266
1.21713e-268
2.74904e-271
4.95625e-274
6.685e-277
5.99489e-280
2.6812e-283
3.83265e-283
8.55441e-280
9.50811e-277
7.02306e-274
3.88013e-271
1.711e-268
6.27508e-266
1.96942e-263
5.40138e-261
1.31551e-258
2.88163e-256
5.73629e-254
1.04666e-251
1.76324e-249
2.75961e-247
4.03413e-245
5.53433e-243
7.15486e-241
8.74917e-239
1.01532e-236
1.12153e-234
1.18239e-232
1.19269e-230
1.15368e-228
1.07232e-226
9.59543e-225
8.28059e-223
6.90249e-221
5.56592e-219
4.34753e-217
3.29356e-215
2.42271e-213
1.73224e-211
1.20503e-209
8.16314e-208
5.38918e-206
3.46979e-204
2.18006e-202
1.33738e-200
8.01426e-199
4.69309e-197
2.68639e-195
1.50344e-193
8.22746e-192
4.40271e-190
2.30368e-188
1.17843e-186
5.61252e-185
2.32349e-183
8.29531e-182
2.53456e-180
6.58045e-179
1.44278e-177
2.65861e-176
4.10575e-175
5.31452e-174
5.79166e-173
5.35546e-172
4.20882e-171
2.79413e-170
1.59057e-169
8.05709e-169
3.69408e-168
1.50223e-167
5.34755e-167
1.68473e-166
4.83928e-166
1.30704e-165
3.34511e-165
8.05695e-165
1.81207e-164
3.79882e-164
7.44063e-164
1.36956e-163
2.38743e-163
3.97627e-163
6.36903e-163
9.86602e-163
1.48319e-162
2.16806e-162
3.08482e-162
4.27623e-162
5.78056e-162
7.628e-162
9.83417e-162
1.2399e-161
1.53062e-161
1.85204e-161
2.1988e-161
2.56402e-161
2.93931e-161
3.31532e-161
3.68211e-161
4.02972e-161
4.34875e-161
4.62511e-161
4.78324e-161
4.19066e-161
7.98686e-162
1.00924e-169
2.85764e-167
1.23653e-159
6.04196e-159
6.83762e-159
6.62237e-159
6.25193e-159
5.82319e-159
5.35303e-159
4.85292e-159
4.33562e-159
3.81427e-159
3.30159e-159
2.80933e-159
2.34753e-159
1.92445e-159
1.54604e-159
1.21579e-159
9.34944e-160
7.02504e-160
5.15211e-160
3.68465e-160
2.56752e-160
1.74146e-160
1.14761e-160
7.32285e-161
4.50007e-161
2.64643e-161
1.47658e-161
7.75898e-162
3.81792e-162
1.75481e-162
7.54477e-163
3.05796e-163
1.17642e-163
4.26117e-164
1.409e-164
4.12927e-165
1.06141e-165
2.42756e-166
5.04187e-167
9.31897e-168
1.47389e-168
1.96872e-169
2.23765e-170
2.15717e-171
1.7478e-172
1.18471e-173
6.7188e-175
3.1978e-176
1.28363e-177
4.37297e-179
1.27331e-180
3.19287e-182
6.94792e-184
1.40028e-185
2.75542e-187
5.29534e-189
9.94026e-191
1.82272e-192
3.26465e-194
5.71065e-196
9.75355e-198
1.62602e-199
2.64481e-201
4.19521e-203
6.48559e-205
9.76542e-207
1.43104e-208
2.03923e-210
2.82313e-212
3.79317e-214
4.94077e-216
6.23127e-218
7.59923e-220
8.9484e-222
1.01582e-223
1.10979e-225
1.16468e-227
1.17173e-229
1.12754e-231
1.03528e-233
9.0455e-236
7.49836e-238
5.87788e-240
4.34102e-242
3.00799e-244
1.9464e-246
1.16984e-248
6.49026e-251
3.29987e-253
1.52441e-255
6.33267e-258
2.33575e-260
7.52753e-263
2.07575e-265
4.76024e-268
8.71269e-271
1.19288e-273
1.08571e-276
4.92772e-280
7.19835e-280
1.5829e-276
1.73317e-273
1.26097e-270
6.86121e-268
2.97938e-265
1.07588e-262
3.32421e-260
8.97431e-258
2.15117e-255
4.63702e-253
9.0821e-251
1.63022e-248
2.70125e-246
4.15756e-244
5.97587e-242
8.05925e-240
1.02406e-237
1.23053e-235
1.40294e-233
1.52214e-231
1.57584e-229
1.56054e-227
1.48152e-225
1.35115e-223
1.18596e-221
1.00358e-219
8.20035e-218
6.47955e-216
4.95752e-214
3.67724e-212
2.6473e-210
1.85161e-208
1.25941e-206
8.33714e-205
5.37558e-203
3.37816e-201
2.0703e-199
1.23793e-197
7.22516e-196
4.11742e-194
2.29154e-192
1.24571e-190
6.61465e-189
3.43064e-187
1.7376e-185
8.59233e-184
3.93172e-182
1.55764e-180
5.30102e-179
1.53816e-177
3.77937e-176
7.81814e-175
1.3558e-173
1.96652e-172
2.3871e-171
2.43818e-170
2.11659e-169
1.56593e-168
9.79316e-168
5.25295e-167
2.5132e-166
1.09279e-165
4.22763e-165
1.43553e-164
4.32523e-164
1.19064e-163
3.08872e-163
7.60736e-163
1.76644e-162
3.83726e-162
7.78776e-162
1.48039e-161
2.651e-161
4.50491e-161
7.32683e-161
1.14775e-160
1.74115e-160
2.56654e-160
3.68276e-160
5.14921e-160
7.02139e-160
9.3459e-160
1.21561e-159
1.54627e-159
1.92542e-159
2.34975e-159
2.81342e-159
3.30837e-159
3.82467e-159
4.35067e-159
4.87364e-159
5.38034e-159
5.8578e-159
6.29406e-159
6.67044e-159
6.88157e-159
6.03634e-159
1.19221e-159
2.49199e-167
5.82687e-165
1.51293e-157
7.17229e-157
8.11803e-157
7.88262e-157
7.46703e-157
6.98433e-157
6.45313e-157
5.88526e-157
5.29422e-157
4.69412e-157
4.09895e-157
3.52195e-157
2.97476e-157
2.46741e-157
2.00763e-157
1.60059e-157
1.24912e-157
9.53436e-158
7.11e-158
5.17531e-158
3.67394e-158
2.54141e-158
1.71007e-158
1.11568e-158
7.02098e-159
4.2363e-159
2.43067e-159
1.3172e-159
6.70334e-160
3.19426e-160
1.42626e-160
6.01142e-161
2.40842e-161
9.10399e-162
3.14951e-162
9.68977e-163
2.62295e-163
6.33546e-164
1.39461e-164
2.73817e-165
4.60328e-166
6.54261e-167
7.93582e-168
8.17664e-169
7.07557e-170
5.1145e-171
3.08724e-172
1.5602e-173
6.63092e-175
2.38399e-176
7.3002e-178
1.91806e-179
4.35702e-181
9.10668e-183
1.85568e-184
3.68797e-186
7.15041e-188
1.35268e-189
2.4969e-191
4.49695e-193
7.90089e-195
1.35382e-196
2.26163e-198
3.68183e-200
5.83792e-202
9.01016e-204
1.35263e-205
1.97356e-207
2.79614e-209
3.84303e-211
5.11824e-213
6.59755e-215
8.22038e-217
9.88618e-219
1.14582e-220
1.27768e-222
1.36816e-224
1.40406e-226
1.37785e-228
1.28983e-230
1.14871e-232
9.70392e-235
7.75018e-237
5.83047e-239
4.11456e-241
2.71102e-243
1.65883e-245
9.36782e-248
4.84731e-250
2.27858e-252
9.63031e-255
3.61332e-257
1.18439e-259
3.32137e-262
7.7448e-265
1.44117e-267
2.00577e-270
1.85552e-273
8.55859e-277
1.28139e-276
2.772e-273
2.98553e-270
2.13635e-267
1.14314e-264
4.88089e-262
1.7328e-259
5.26297e-257
1.39648e-254
3.28955e-252
6.96725e-250
1.3406e-247
2.36363e-245
3.8463e-243
5.81279e-241
8.20226e-239
1.08575e-236
1.35385e-234
1.5961e-232
1.78495e-230
1.89915e-228
1.92763e-226
1.87102e-224
1.74053e-222
1.55495e-220
1.33654e-218
1.10719e-216
8.85324e-215
6.84302e-213
5.11945e-211
3.71148e-209
2.61031e-207
1.78273e-205
1.18336e-203
7.6407e-202
4.80219e-200
2.9397e-198
1.75369e-196
1.01996e-194
5.78542e-193
3.20128e-191
1.72827e-189
9.10388e-188
4.67889e-186
2.34579e-184
1.14696e-182
5.46686e-181
2.39493e-179
9.0469e-178
2.92414e-176
8.02815e-175
1.86006e-173
3.61781e-172
5.88539e-171
7.99401e-170
9.07515e-169
8.66446e-168
7.04381e-167
4.89556e-166
2.87923e-165
1.45355e-164
6.5607e-164
2.70105e-163
9.92195e-163
3.20918e-162
9.24186e-162
2.43767e-161
6.0722e-161
1.43815e-160
3.21554e-160
6.73759e-160
1.32215e-159
2.43707e-159
4.24384e-159
7.0288e-159
1.11631e-158
1.71029e-158
2.54091e-158
3.67242e-158
5.17236e-158
7.1054e-158
9.52835e-158
1.24847e-157
1.60006e-157
2.00746e-157
2.46794e-157
2.97648e-157
3.52548e-157
4.10506e-157
4.70366e-157
5.30809e-157
5.90428e-157
6.4779e-157
7.01528e-157
7.50409e-157
7.92399e-157
8.15381e-157
7.15832e-157
1.46362e-157
5.14747e-165
1.00383e-162
1.52991e-155
7.03944e-155
7.97201e-155
7.7623e-155
7.37966e-155
6.93331e-155
6.44017e-155
5.91011e-155
5.35472e-155
4.78639e-155
4.21768e-155
3.66069e-155
3.12645e-155
2.62484e-155
2.16395e-155
1.74977e-155
1.38634e-155
1.07531e-155
8.15611e-156
6.04365e-156
4.37143e-156
3.08402e-156
2.11883e-156
1.41329e-156
9.10798e-157
5.6397e-157
3.32955e-157
1.86281e-157
9.81932e-158
4.85911e-158
2.25638e-158
9.89802e-159
4.13074e-159
1.62973e-159
5.90286e-160
1.90998e-160
5.45732e-161
1.39459e-161
3.25717e-162
6.80146e-163
1.21788e-163
1.84625e-164
2.39599e-165
2.64575e-166
2.45202e-167
1.89577e-168
1.22196e-169
6.57999e-171
2.9716e-172
1.13165e-173
3.6578e-175
1.01072e-176
2.40543e-178
5.22964e-180
1.10665e-181
2.28057e-183
4.57869e-185
8.95814e-187
1.70819e-188
3.17474e-190
5.75043e-192
1.01492e-193
1.74493e-195
2.92129e-197
4.76009e-199
7.54485e-201
1.1625e-202
1.73987e-204
2.52722e-206
3.55929e-208
4.85531e-210
6.40764e-212
8.17055e-214
1.00524e-215
1.19147e-217
1.35822e-219
1.48638e-221
1.55846e-223
1.5621e-225
1.49321e-227
1.3576e-229
1.17051e-231
9.53922e-234
7.32122e-236
5.26978e-238
3.54084e-240
2.20901e-242
1.27169e-244
6.70676e-247
3.21273e-249
1.38349e-251
5.28813e-254
1.76556e-256
5.04238e-259
1.19728e-261
2.26832e-264
3.21378e-267
3.02612e-270
1.42053e-273
2.18705e-273
4.64763e-270
4.91659e-267
3.45512e-264
1.81544e-261
7.61047e-259
2.65235e-256
7.90713e-254
2.05904e-251
4.75927e-249
9.88938e-247
1.86655e-244
3.22758e-242
5.15017e-240
7.63066e-238
1.05542e-235
1.36914e-233
1.67272e-231
1.93173e-229
2.11566e-227
2.20395e-225
2.18965e-223
2.07977e-221
1.89268e-219
1.6536e-217
1.38955e-215
1.12495e-213
8.78755e-212
6.63272e-210
4.84347e-208
3.42584e-206
2.34954e-204
1.56393e-202
1.0112e-200
6.35583e-199
3.88607e-197
2.31257e-195
1.34008e-193
7.56452e-192
4.16068e-190
2.23026e-188
1.16516e-186
5.93247e-185
2.94332e-183
1.42256e-181
6.69506e-180
3.06654e-178
1.28131e-176
4.59742e-175
1.4058e-173
3.63767e-172
7.91712e-171
1.44252e-169
2.19382e-168
2.78189e-167
2.94522e-166
2.62117e-165
1.99033e-164
1.29638e-163
7.15576e-163
3.39603e-162
1.44449e-161
5.62052e-161
1.95586e-160
6.0151e-160
1.65455e-159
4.1811e-159
9.99829e-159
2.27517e-158
4.89141e-158
9.86941e-158
1.86982e-157
3.33837e-157
5.64985e-157
9.11817e-157
1.41407e-156
2.11902e-156
3.08324e-156
4.3693e-156
6.03963e-156
8.14986e-156
1.07448e-155
1.38537e-155
1.74882e-155
2.16322e-155
2.62459e-155
3.12709e-155
3.6627e-155
4.22166e-155
4.79301e-155
5.36458e-155
5.92373e-155
6.45788e-155
6.95528e-155
7.4057e-155
7.79085e-155
7.995e-155
7.02113e-155
1.48456e-155
8.96706e-163
1.46672e-160
1.2781e-153
5.71176e-153
6.47669e-153
6.32522e-153
6.03629e-153
5.69757e-153
5.32179e-153
4.91554e-153
4.48686e-153
4.04456e-153
3.59777e-153
3.15552e-153
2.72622e-153
2.31776e-153
1.93695e-153
1.58926e-153
1.27895e-153
1.00854e-153
7.78369e-154
5.87333e-154
4.32933e-154
3.11528e-154
2.18527e-154
1.49015e-154
9.83475e-155
6.25104e-155
3.79983e-155
2.19778e-155
1.20218e-155
6.19021e-156
2.9945e-156
1.36851e-156
5.95045e-157
2.45057e-157
9.30096e-158
3.17236e-158
9.59483e-159
2.59929e-159
6.44759e-160
1.43379e-160
2.74137e-161
4.4448e-162
6.18834e-163
7.34471e-164
7.31181e-165
6.06596e-166
4.18984e-167
2.41285e-168
1.16232e-169
4.70682e-171
1.61219e-172
4.70336e-174
1.17731e-175
2.67093e-177
5.88709e-179
1.26158e-180