/*--------------------------------*- C++ -*----------------------------------*\
| =========                 |                                                 |
| \\      /  F ield         | OpenFOAM: The Open Source CFD Toolbox           |
|  \\    /   O peration     | Version:  2412                                  |
|   \\  /    A nd           | Website:  www.openfoam.com                      |
|    \\/     M anipulation  |                                                 |
\*---------------------------------------------------------------------------*/
FoamFile
{
    version     2.0;
    format      ascii;
    arch        "LSB;label=32;scalar=64";
    class       volScalarField;
    location    "1.15";
    object      p;
}
// * * * * * * * * * * * * * * * * * * * * * * * * * * * * * * * * * * * * * //

dimensions      [1 -1 -2 0 0 0 0];

internalField   nonuniform List<scalar> 
40000
(
0
-1.32572e-05
-0.000140703
-0.000393722
-0.000773202
-0.00128069
-0.0019159
-0.0026772
-0.00356305
-0.00457284
-0.00570617
-0.00696224
-0.00833984
-0.00983763
-0.0114543
-0.0131886
-0.0150391
-0.0170045
-0.0190829
-0.0212726
-0.0235719
-0.0259787
-0.0284911
-0.0311069
-0.0338239
-0.0366398
-0.039552
-0.0425582
-0.0456557
-0.0488419
-0.0521138
-0.0554687
-0.0589034
-0.062415
-0.0660002
-0.0696559
-0.0733786
-0.0771649
-0.0810113
-0.0849142
-0.0888699
-0.0928747
-0.0969248
-0.101016
-0.105145
-0.109308
-0.1135
-0.117717
-0.121955
-0.12621
-0.130478
-0.134754
-0.139034
-0.143313
-0.147588
-0.151854
-0.156106
-0.160339
-0.164551
-0.168735
-0.172888
-0.177005
-0.181082
-0.185114
-0.189097
-0.193027
-0.196899
-0.20071
-0.204454
-0.208129
-0.211729
-0.215251
-0.21869
-0.222044
-0.225308
-0.228479
-0.231553
-0.234526
-0.237395
-0.240158
-0.24281
-0.245349
-0.247772
-0.250076
-0.252259
-0.254317
-0.25625
-0.258053
-0.259727
-0.261267
-0.262673
-0.263943
-0.265076
-0.26607
-0.266924
-0.267638
-0.268209
-0.268639
-0.268925
-0.269069
-0.269069
-0.268925
-0.268639
-0.26821
-0.267638
-0.266925
-0.26607
-0.265076
-0.263944
-0.262673
-0.261267
-0.259727
-0.258054
-0.25625
-0.254318
-0.25226
-0.250077
-0.247773
-0.24535
-0.242811
-0.240159
-0.237397
-0.234528
-0.231555
-0.228481
-0.22531
-0.222046
-0.218693
-0.215253
-0.211731
-0.208131
-0.204457
-0.200713
-0.196902
-0.19303
-0.1891
-0.185117
-0.181084
-0.177008
-0.17289
-0.168737
-0.164553
-0.160342
-0.156108
-0.151856
-0.14759
-0.143315
-0.139036
-0.134756
-0.13048
-0.126212
-0.121957
-0.117719
-0.113502
-0.10931
-0.105147
-0.101018
-0.0969267
-0.0928766
-0.0888717
-0.0849159
-0.081013
-0.0771665
-0.0733803
-0.0696577
-0.0660021
-0.062417
-0.0589054
-0.0554706
-0.0521156
-0.0488435
-0.0456573
-0.0425597
-0.0395534
-0.0366409
-0.0338248
-0.0311076
-0.0284915
-0.025979
-0.0235719
-0.0212725
-0.0190824
-0.0170037
-0.015038
-0.0131871
-0.0114524
-0.00983523
-0.00833707
-0.00695906
-0.00570225
-0.00456793
-0.00355668
-0.00266936
-0.00190703
-0.0012697
-0.000758264
-0.000372909
-0.000114012
1.68023e-05
2.42273e-05
-3.924
-3.924
-3.92413
-3.92438
-3.92476
-3.92527
-3.9259
-3.92666
-3.92755
-3.92856
-3.92969
-3.93095
-3.93233
-3.93383
-3.93544
-3.93718
-3.93903
-3.94099
-3.94307
-3.94526
-3.94756
-3.94997
-3.95248
-3.9551
-3.95782
-3.96063
-3.96354
-3.96655
-3.96965
-3.97284
-3.97611
-3.97946
-3.9829
-3.98641
-3.99
-3.99365
-3.99738
-4.00116
-4.00501
-4.00891
-4.01287
-4.01688
-4.02093
-4.02502
-4.02915
-4.03331
-4.0375
-4.04172
-4.04596
-4.05022
-4.05448
-4.05876
-4.06304
-4.06732
-4.0716
-4.07586
-4.08011
-4.08435
-4.08856
-4.09274
-4.0969
-4.10101
-4.10509
-4.10912
-4.11311
-4.11704
-4.12091
-4.12472
-4.12847
-4.13214
-4.13574
-4.13926
-4.1427
-4.14605
-4.14932
-4.15249
-4.15556
-4.15854
-4.16141
-4.16417
-4.16682
-4.16936
-4.17178
-4.17409
-4.17627
-4.17833
-4.18026
-4.18206
-4.18373
-4.18528
-4.18668
-4.18795
-4.18908
-4.19008
-4.19093
-4.19165
-4.19222
-4.19265
-4.19293
-4.19308
-4.19308
-4.19293
-4.19265
-4.19222
-4.19165
-4.19093
-4.19008
-4.18908
-4.18795
-4.18668
-4.18528
-4.18374
-4.18206
-4.18026
-4.17833
-4.17627
-4.17409
-4.17178
-4.16936
-4.16682
-4.16417
-4.16141
-4.15854
-4.15556
-4.15249
-4.14932
-4.14606
-4.1427
-4.13926
-4.13574
-4.13214
-4.12847
-4.12472
-4.12091
-4.11704
-4.11311
-4.10913
-4.10509
-4.10102
-4.0969
-4.09275
-4.08856
-4.08435
-4.08012
-4.07586
-4.0716
-4.06732
-4.06304
-4.05876
-4.05449
-4.05022
-4.04596
-4.04172
-4.03751
-4.03331
-4.02915
-4.02502
-4.02093
-4.01688
-4.01287
-4.00892
-4.00501
-4.00117
-3.99738
-3.99366
-3.99
-3.98641
-3.9829
-3.97947
-3.97611
-3.97284
-3.96965
-3.96655
-3.96355
-3.96063
-3.95782
-3.9551
-3.95248
-3.94997
-3.94756
-3.94526
-3.94307
-3.94099
-3.93903
-3.93718
-3.93544
-3.93382
-3.93232
-3.93095
-3.92969
-3.92855
-3.92754
-3.92666
-3.92589
-3.92526
-3.92474
-3.92436
-3.9241
-3.92397
-3.92397
-7.84787
-7.84787
-7.848
-7.84825
-7.84864
-7.84915
-7.84978
-7.85054
-7.85143
-7.85244
-7.85358
-7.85483
-7.85621
-7.85771
-7.85933
-7.86107
-7.86292
-7.86489
-7.86697
-7.86916
-7.87146
-7.87387
-7.87638
-7.879
-7.88172
-7.88454
-7.88746
-7.89047
-7.89357
-7.89676
-7.90003
-7.90339
-7.90683
-7.91034
-7.91393
-7.91759
-7.92132
-7.92511
-7.92896
-7.93287
-7.93683
-7.94084
-7.94489
-7.94899
-7.95312
-7.95729
-7.96149
-7.96571
-7.96995
-7.97421
-7.97848
-7.98276
-7.98705
-7.99133
-7.99561
-7.99988
-8.00414
-8.00838
-8.01259
-8.01678
-8.02094
-8.02506
-8.02914
-8.03318
-8.03717
-8.0411
-8.04498
-8.04879
-8.05254
-8.05622
-8.05982
-8.06335
-8.06679
-8.07015
-8.07342
-8.07659
-8.07967
-8.08264
-8.08552
-8.08828
-8.09094
-8.09348
-8.0959
-8.09821
-8.10039
-8.10245
-8.10439
-8.10619
-8.10787
-8.10941
-8.11082
-8.11209
-8.11322
-8.11422
-8.11507
-8.11579
-8.11636
-8.11679
-8.11708
-8.11722
-8.11722
-8.11708
-8.11679
-8.11636
-8.11579
-8.11507
-8.11422
-8.11322
-8.11209
-8.11082
-8.10941
-8.10787
-8.10619
-8.10439
-8.10246
-8.10039
-8.09821
-8.0959
-8.09348
-8.09094
-8.08828
-8.08552
-8.08265
-8.07967
-8.07659
-8.07342
-8.07015
-8.06679
-8.06335
-8.05983
-8.05622
-8.05254
-8.0488
-8.04498
-8.0411
-8.03717
-8.03318
-8.02915
-8.02506
-8.02094
-8.01679
-8.0126
-8.00838
-8.00414
-7.99989
-7.99561
-7.99134
-7.98705
-7.98277
-7.97848
-7.97421
-7.96995
-7.96571
-7.96149
-7.95729
-7.95312
-7.94899
-7.94489
-7.94084
-7.93683
-7.93287
-7.92896
-7.92511
-7.92132
-7.9176
-7.91394
-7.91035
-7.90683
-7.90339
-7.90003
-7.89676
-7.89357
-7.89047
-7.88746
-7.88454
-7.88172
-7.879
-7.87638
-7.87387
-7.87146
-7.86916
-7.86697
-7.86488
-7.86292
-7.86106
-7.85933
-7.85771
-7.85621
-7.85483
-7.85357
-7.85244
-7.85142
-7.85054
-7.84977
-7.84913
-7.84862
-7.84824
-7.84798
-7.84785
-7.84784
-11.7716
-11.7716
-11.7717
-11.772
-11.7724
-11.7729
-11.7735
-11.7743
-11.7752
-11.7762
-11.7773
-11.7786
-11.78
-11.7815
-11.7831
-11.7848
-11.7867
-11.7887
-11.7907
-11.7929
-11.7953
-11.7977
-11.8002
-11.8028
-11.8055
-11.8084
-11.8113
-11.8143
-11.8174
-11.8206
-11.8239
-11.8272
-11.8307
-11.8342
-11.8378
-11.8415
-11.8452
-11.849
-11.8529
-11.8568
-11.8607
-11.8648
-11.8688
-11.8729
-11.8771
-11.8812
-11.8854
-11.8897
-11.8939
-11.8982
-11.9025
-11.9068
-11.9111
-11.9154
-11.9196
-11.9239
-11.9282
-11.9324
-11.9367
-11.9409
-11.945
-11.9492
-11.9532
-11.9573
-11.9613
-11.9652
-11.9691
-11.9729
-11.9767
-11.9804
-11.984
-11.9875
-11.991
-11.9943
-11.9976
-12.0008
-12.0039
-12.0069
-12.0097
-12.0125
-12.0152
-12.0177
-12.0202
-12.0225
-12.0247
-12.0267
-12.0287
-12.0305
-12.0321
-12.0337
-12.0351
-12.0364
-12.0375
-12.0385
-12.0394
-12.0401
-12.0407
-12.0411
-12.0414
-12.0415
-12.0415
-12.0414
-12.0411
-12.0407
-12.0401
-12.0394
-12.0385
-12.0375
-12.0364
-12.0351
-12.0337
-12.0321
-12.0305
-12.0287
-12.0267
-12.0247
-12.0225
-12.0202
-12.0177
-12.0152
-12.0125
-12.0097
-12.0069
-12.0039
-12.0008
-11.9976
-11.9943
-11.991
-11.9875
-11.984
-11.9804
-11.9767
-11.9729
-11.9691
-11.9652
-11.9613
-11.9573
-11.9532
-11.9492
-11.945
-11.9409
-11.9367
-11.9324
-11.9282
-11.9239
-11.9196
-11.9154
-11.9111
-11.9068
-11.9025
-11.8982
-11.8939
-11.8897
-11.8854
-11.8812
-11.8771
-11.8729
-11.8688
-11.8648
-11.8607
-11.8568
-11.8529
-11.849
-11.8452
-11.8415
-11.8378
-11.8342
-11.8307
-11.8272
-11.8239
-11.8206
-11.8174
-11.8143
-11.8113
-11.8084
-11.8055
-11.8028
-11.8002
-11.7977
-11.7953
-11.7929
-11.7907
-11.7887
-11.7867
-11.7848
-11.7831
-11.7815
-11.78
-11.7786
-11.7773
-11.7762
-11.7752
-11.7743
-11.7735
-11.7729
-11.7724
-11.772
-11.7717
-11.7716
-11.7716
-15.6952
-15.6952
-15.6954
-15.6956
-15.696
-15.6965
-15.6972
-15.6979
-15.6988
-15.6998
-15.701
-15.7022
-15.7036
-15.7051
-15.7068
-15.7085
-15.7104
-15.7123
-15.7144
-15.7166
-15.7189
-15.7214
-15.7239
-15.7265
-15.7292
-15.7321
-15.735
-15.738
-15.7411
-15.7443
-15.7476
-15.751
-15.7545
-15.758
-15.7616
-15.7653
-15.769
-15.7728
-15.7767
-15.7806
-15.7846
-15.7886
-15.7927
-15.7968
-15.801
-15.8052
-15.8094
-15.8136
-15.8179
-15.8222
-15.8265
-15.8308
-15.8351
-15.8394
-15.8437
-15.848
-15.8522
-15.8565
-15.8607
-15.865
-15.8691
-15.8733
-15.8774
-15.8814
-15.8855
-15.8894
-15.8933
-15.8971
-15.9009
-15.9046
-15.9082
-15.9118
-15.9152
-15.9186
-15.9219
-15.9251
-15.9282
-15.9312
-15.9341
-15.9369
-15.9395
-15.9421
-15.9445
-15.9468
-15.949
-15.9511
-15.9531
-15.9549
-15.9566
-15.9581
-15.9595
-15.9608
-15.962
-15.963
-15.9638
-15.9645
-15.9651
-15.9655
-15.9658
-15.966
-15.966
-15.9658
-15.9655
-15.9651
-15.9645
-15.9638
-15.963
-15.962
-15.9608
-15.9595
-15.9581
-15.9566
-15.9549
-15.9531
-15.9511
-15.949
-15.9469
-15.9445
-15.9421
-15.9395
-15.9369
-15.9341
-15.9312
-15.9282
-15.9251
-15.9219
-15.9186
-15.9152
-15.9118
-15.9082
-15.9046
-15.9009
-15.8971
-15.8933
-15.8894
-15.8855
-15.8814
-15.8774
-15.8733
-15.8691
-15.865
-15.8607
-15.8565
-15.8522
-15.848
-15.8437
-15.8394
-15.8351
-15.8308
-15.8265
-15.8222
-15.8179
-15.8136
-15.8094
-15.8052
-15.801
-15.7968
-15.7927
-15.7886
-15.7846
-15.7806
-15.7767
-15.7728
-15.769
-15.7653
-15.7616
-15.758
-15.7545
-15.751
-15.7476
-15.7443
-15.7411
-15.738
-15.735
-15.7321
-15.7292
-15.7265
-15.7239
-15.7214
-15.7189
-15.7166
-15.7144
-15.7123
-15.7104
-15.7085
-15.7068
-15.7051
-15.7036
-15.7022
-15.701
-15.6998
-15.6988
-15.6979
-15.6972
-15.6965
-15.696
-15.6956
-15.6954
-15.6952
-15.6952
-19.6187
-19.6188
-19.6189
-19.6191
-19.6195
-19.62
-19.6207
-19.6215
-19.6223
-19.6234
-19.6245
-19.6258
-19.6272
-19.6287
-19.6303
-19.632
-19.6339
-19.6359
-19.638
-19.6402
-19.6425
-19.6449
-19.6475
-19.6501
-19.6529
-19.6557
-19.6586
-19.6617
-19.6648
-19.668
-19.6713
-19.6747
-19.6782
-19.6817
-19.6853
-19.689
-19.6928
-19.6966
-19.7005
-19.7044
-19.7084
-19.7125
-19.7165
-19.7207
-19.7248
-19.729
-19.7333
-19.7375
-19.7418
-19.7461
-19.7504
-19.7548
-19.7591
-19.7634
-19.7677
-19.772
-19.7763
-19.7806
-19.7849
-19.7891
-19.7933
-19.7975
-19.8016
-19.8057
-19.8097
-19.8137
-19.8176
-19.8214
-19.8252
-19.8289
-19.8326
-19.8361
-19.8396
-19.843
-19.8463
-19.8495
-19.8526
-19.8556
-19.8585
-19.8613
-19.864
-19.8666
-19.869
-19.8714
-19.8736
-19.8757
-19.8776
-19.8794
-19.8811
-19.8827
-19.8841
-19.8854
-19.8865
-19.8875
-19.8884
-19.8891
-19.8897
-19.8901
-19.8904
-19.8906
-19.8906
-19.8904
-19.8901
-19.8897
-19.8891
-19.8884
-19.8875
-19.8865
-19.8854
-19.8841
-19.8827
-19.8811
-19.8794
-19.8776
-19.8757
-19.8736
-19.8714
-19.869
-19.8666
-19.864
-19.8613
-19.8585
-19.8556
-19.8526
-19.8495
-19.8463
-19.843
-19.8396
-19.8361
-19.8326
-19.8289
-19.8252
-19.8214
-19.8176
-19.8137
-19.8097
-19.8057
-19.8016
-19.7975
-19.7933
-19.7891
-19.7849
-19.7806
-19.7763
-19.772
-19.7677
-19.7634
-19.7591
-19.7548
-19.7504
-19.7461
-19.7418
-19.7375
-19.7333
-19.729
-19.7248
-19.7207
-19.7165
-19.7125
-19.7084
-19.7044
-19.7005
-19.6966
-19.6928
-19.689
-19.6853
-19.6817
-19.6782
-19.6747
-19.6713
-19.668
-19.6648
-19.6617
-19.6586
-19.6557
-19.6529
-19.6501
-19.6475
-19.6449
-19.6425
-19.6402
-19.638
-19.6359
-19.6339
-19.632
-19.6303
-19.6287
-19.6272
-19.6258
-19.6245
-19.6234
-19.6223
-19.6214
-19.6207
-19.62
-19.6195
-19.6191
-19.6189
-19.6187
-19.6187
-23.5421
-23.5421
-23.5423
-23.5425
-23.5429
-23.5434
-23.5441
-23.5448
-23.5457
-23.5468
-23.5479
-23.5492
-23.5506
-23.5521
-23.5537
-23.5555
-23.5574
-23.5593
-23.5615
-23.5637
-23.566
-23.5684
-23.571
-23.5736
-23.5764
-23.5792
-23.5822
-23.5852
-23.5884
-23.5916
-23.5949
-23.5983
-23.6018
-23.6053
-23.609
-23.6127
-23.6165
-23.6203
-23.6242
-23.6282
-23.6322
-23.6362
-23.6403
-23.6445
-23.6487
-23.6529
-23.6572
-23.6614
-23.6657
-23.6701
-23.6744
-23.6787
-23.6831
-23.6874
-23.6918
-23.6961
-23.7004
-23.7047
-23.709
-23.7133
-23.7175
-23.7217
-23.7258
-23.7299
-23.734
-23.738
-23.7419
-23.7458
-23.7496
-23.7533
-23.757
-23.7606
-23.7641
-23.7675
-23.7708
-23.774
-23.7771
-23.7802
-23.7831
-23.7859
-23.7886
-23.7912
-23.7937
-23.796
-23.7982
-23.8003
-23.8023
-23.8041
-23.8058
-23.8074
-23.8088
-23.8101
-23.8113
-23.8123
-23.8132
-23.8139
-23.8145
-23.8149
-23.8152
-23.8153
-23.8153
-23.8152
-23.8149
-23.8145
-23.8139
-23.8132
-23.8123
-23.8113
-23.8101
-23.8088
-23.8074
-23.8058
-23.8041
-23.8023
-23.8003
-23.7982
-23.796
-23.7937
-23.7912
-23.7886
-23.7859
-23.7831
-23.7802
-23.7772
-23.774
-23.7708
-23.7675
-23.7641
-23.7606
-23.757
-23.7533
-23.7496
-23.7458
-23.7419
-23.738
-23.734
-23.7299
-23.7258
-23.7217
-23.7175
-23.7133
-23.709
-23.7047
-23.7004
-23.6961
-23.6918
-23.6874
-23.6831
-23.6787
-23.6744
-23.6701
-23.6657
-23.6614
-23.6572
-23.6529
-23.6487
-23.6445
-23.6403
-23.6362
-23.6322
-23.6282
-23.6242
-23.6203
-23.6165
-23.6127
-23.609
-23.6054
-23.6018
-23.5983
-23.5949
-23.5916
-23.5884
-23.5852
-23.5822
-23.5792
-23.5764
-23.5736
-23.571
-23.5684
-23.566
-23.5637
-23.5615
-23.5593
-23.5574
-23.5555
-23.5537
-23.5521
-23.5506
-23.5492
-23.5479
-23.5468
-23.5457
-23.5448
-23.5441
-23.5434
-23.5429
-23.5425
-23.5423
-23.5421
-23.5421
-27.4654
-27.4654
-27.4655
-27.4658
-27.4662
-27.4667
-27.4673
-27.4681
-27.469
-27.47
-27.4712
-27.4725
-27.4739
-27.4754
-27.477
-27.4788
-27.4807
-27.4827
-27.4848
-27.487
-27.4894
-27.4918
-27.4944
-27.497
-27.4998
-27.5027
-27.5056
-27.5087
-27.5119
-27.5151
-27.5184
-27.5218
-27.5253
-27.5289
-27.5326
-27.5363
-27.5401
-27.544
-27.5479
-27.5519
-27.5559
-27.56
-27.5641
-27.5683
-27.5725
-27.5767
-27.581
-27.5853
-27.5897
-27.594
-27.5984
-27.6027
-27.6071
-27.6115
-27.6158
-27.6202
-27.6245
-27.6289
-27.6332
-27.6375
-27.6417
-27.6459
-27.6501
-27.6542
-27.6583
-27.6623
-27.6663
-27.6702
-27.674
-27.6778
-27.6815
-27.6851
-27.6886
-27.692
-27.6954
-27.6986
-27.7018
-27.7048
-27.7078
-27.7106
-27.7133
-27.7159
-27.7184
-27.7208
-27.723
-27.7251
-27.7271
-27.729
-27.7307
-27.7323
-27.7337
-27.735
-27.7362
-27.7372
-27.7381
-27.7388
-27.7394
-27.7398
-27.7401
-27.7403
-27.7403
-27.7401
-27.7398
-27.7394
-27.7388
-27.7381
-27.7372
-27.7362
-27.735
-27.7337
-27.7323
-27.7307
-27.729
-27.7271
-27.7251
-27.723
-27.7208
-27.7184
-27.7159
-27.7133
-27.7106
-27.7078
-27.7048
-27.7018
-27.6986
-27.6954
-27.692
-27.6886
-27.6851
-27.6815
-27.6778
-27.674
-27.6702
-27.6663
-27.6623
-27.6583
-27.6542
-27.6501
-27.6459
-27.6417
-27.6375
-27.6332
-27.6289
-27.6245
-27.6202
-27.6158
-27.6115
-27.6071
-27.6027
-27.5984
-27.594
-27.5897
-27.5853
-27.581
-27.5767
-27.5725
-27.5683
-27.5641
-27.56
-27.5559
-27.5519
-27.5479
-27.544
-27.5401
-27.5363
-27.5326
-27.5289
-27.5253
-27.5218
-27.5184
-27.5151
-27.5119
-27.5087
-27.5056
-27.5027
-27.4998
-27.497
-27.4944
-27.4918
-27.4894
-27.487
-27.4848
-27.4827
-27.4807
-27.4788
-27.477
-27.4754
-27.4739
-27.4725
-27.4712
-27.47
-27.469
-27.4681
-27.4673
-27.4667
-27.4662
-27.4658
-27.4655
-27.4654
-27.4654
-31.3885
-31.3885
-31.3887
-31.3889
-31.3893
-31.3898
-31.3905
-31.3913
-31.3922
-31.3932
-31.3944
-31.3957
-31.3971
-31.3986
-31.4002
-31.402
-31.4039
-31.4059
-31.408
-31.4103
-31.4126
-31.4151
-31.4177
-31.4204
-31.4231
-31.426
-31.429
-31.4321
-31.4352
-31.4385
-31.4419
-31.4453
-31.4488
-31.4524
-31.4561
-31.4598
-31.4637
-31.4675
-31.4715
-31.4755
-31.4796
-31.4837
-31.4878
-31.492
-31.4963
-31.5005
-31.5048
-31.5092
-31.5135
-31.5179
-31.5223
-31.5267
-31.5311
-31.5355
-31.5399
-31.5443
-31.5487
-31.553
-31.5574
-31.5617
-31.566
-31.5702
-31.5744
-31.5786
-31.5827
-31.5867
-31.5907
-31.5947
-31.5985
-31.6023
-31.606
-31.6097
-31.6132
-31.6167
-31.6201
-31.6233
-31.6265
-31.6296
-31.6326
-31.6354
-31.6382
-31.6408
-31.6433
-31.6457
-31.6479
-31.6501
-31.6521
-31.6539
-31.6557
-31.6573
-31.6587
-31.66
-31.6612
-31.6622
-31.6631
-31.6639
-31.6644
-31.6649
-31.6652
-31.6653
-31.6653
-31.6652
-31.6649
-31.6644
-31.6639
-31.6631
-31.6622
-31.6612
-31.66
-31.6587
-31.6573
-31.6557
-31.6539
-31.6521
-31.6501
-31.6479
-31.6457
-31.6433
-31.6408
-31.6382
-31.6354
-31.6326
-31.6296
-31.6265
-31.6233
-31.6201
-31.6167
-31.6132
-31.6097
-31.606
-31.6023
-31.5985
-31.5947
-31.5907
-31.5867
-31.5827
-31.5786
-31.5744
-31.5702
-31.566
-31.5617
-31.5574
-31.553
-31.5487
-31.5443
-31.5399
-31.5355
-31.5311
-31.5267
-31.5223
-31.5179
-31.5135
-31.5092
-31.5048
-31.5005
-31.4963
-31.492
-31.4878
-31.4837
-31.4796
-31.4755
-31.4715
-31.4675
-31.4637
-31.4598
-31.4561
-31.4524
-31.4488
-31.4453
-31.4419
-31.4385
-31.4352
-31.4321
-31.429
-31.426
-31.4231
-31.4204
-31.4177
-31.4151
-31.4126
-31.4103
-31.408
-31.4059
-31.4039
-31.402
-31.4002
-31.3986
-31.3971
-31.3957
-31.3944
-31.3932
-31.3922
-31.3913
-31.3905
-31.3898
-31.3893
-31.3889
-31.3887
-31.3885
-31.3885
-35.3115
-35.3116
-35.3117
-35.3119
-35.3123
-35.3129
-35.3135
-35.3143
-35.3152
-35.3163
-35.3174
-35.3187
-35.3201
-35.3217
-35.3233
-35.3251
-35.327
-35.329
-35.3312
-35.3334
-35.3358
-35.3383
-35.3409
-35.3436
-35.3464
-35.3493
-35.3523
-35.3554
-35.3586
-35.3618
-35.3652
-35.3687
-35.3722
-35.3758
-35.3795
-35.3833
-35.3872
-35.3911
-35.395
-35.3991
-35.4032
-35.4073
-35.4115
-35.4157
-35.42
-35.4243
-35.4287
-35.433
-35.4374
-35.4418
-35.4462
-35.4507
-35.4551
-35.4596
-35.464
-35.4684
-35.4728
-35.4772
-35.4816
-35.486
-35.4903
-35.4946
-35.4988
-35.503
-35.5071
-35.5112
-35.5153
-35.5192
-35.5231
-35.5269
-35.5307
-35.5344
-35.538
-35.5415
-35.5449
-35.5482
-35.5514
-35.5545
-35.5575
-35.5604
-35.5631
-35.5658
-35.5683
-35.5707
-35.573
-35.5751
-35.5772
-35.5791
-35.5808
-35.5824
-35.5839
-35.5852
-35.5864
-35.5874
-35.5883
-35.5891
-35.5897
-35.5901
-35.5904
-35.5906
-35.5906
-35.5904
-35.5901
-35.5897
-35.5891
-35.5883
-35.5874
-35.5864
-35.5852
-35.5839
-35.5824
-35.5808
-35.5791
-35.5772
-35.5751
-35.573
-35.5707
-35.5683
-35.5658
-35.5631
-35.5604
-35.5575
-35.5545
-35.5514
-35.5482
-35.5449
-35.5415
-35.538
-35.5344
-35.5307
-35.527
-35.5231
-35.5192
-35.5153
-35.5112
-35.5071
-35.503
-35.4988
-35.4946
-35.4903
-35.486
-35.4816
-35.4772
-35.4728
-35.4684
-35.464
-35.4596
-35.4551
-35.4507
-35.4462
-35.4418
-35.4374
-35.433
-35.4287
-35.4243
-35.42
-35.4157
-35.4115
-35.4073
-35.4032
-35.3991
-35.395
-35.3911
-35.3872
-35.3833
-35.3795
-35.3758
-35.3722
-35.3687
-35.3652
-35.3618
-35.3586
-35.3554
-35.3523
-35.3493
-35.3464
-35.3436
-35.3409
-35.3383
-35.3358
-35.3334
-35.3312
-35.329
-35.327
-35.3251
-35.3233
-35.3217
-35.3201
-35.3187
-35.3174
-35.3163
-35.3152
-35.3143
-35.3135
-35.3129
-35.3123
-35.3119
-35.3117
-35.3115
-35.3115
-39.2344
-39.2344
-39.2346
-39.2348
-39.2352
-39.2358
-39.2364
-39.2372
-39.2381
-39.2392
-39.2404
-39.2417
-39.2431
-39.2446
-39.2463
-39.2481
-39.25
-39.2521
-39.2542
-39.2565
-39.2589
-39.2614
-39.264
-39.2667
-39.2695
-39.2724
-39.2754
-39.2786
-39.2818
-39.2851
-39.2885
-39.292
-39.2955
-39.2992
-39.3029
-39.3067
-39.3106
-39.3145
-39.3185
-39.3226
-39.3267
-39.3309
-39.3351
-39.3394
-39.3437
-39.3481
-39.3524
-39.3568
-39.3613
-39.3657
-39.3702
-39.3746
-39.3791
-39.3836
-39.3881
-39.3926
-39.397
-39.4014
-39.4059
-39.4103
-39.4146
-39.4189
-39.4232
-39.4274
-39.4316
-39.4358
-39.4398
-39.4438
-39.4478
-39.4517
-39.4554
-39.4592
-39.4628
-39.4663
-39.4697
-39.4731
-39.4763
-39.4795
-39.4825
-39.4854
-39.4882
-39.4909
-39.4935
-39.4959
-39.4982
-39.5004
-39.5024
-39.5043
-39.5061
-39.5077
-39.5092
-39.5105
-39.5117
-39.5128
-39.5137
-39.5144
-39.5151
-39.5155
-39.5158
-39.516
-39.516
-39.5158
-39.5155
-39.5151
-39.5144
-39.5137
-39.5128
-39.5117
-39.5105
-39.5092
-39.5077
-39.5061
-39.5043
-39.5024
-39.5004
-39.4982
-39.4959
-39.4935
-39.4909
-39.4882
-39.4854
-39.4825
-39.4795
-39.4763
-39.4731
-39.4697
-39.4663
-39.4628
-39.4592
-39.4554
-39.4517
-39.4478
-39.4438
-39.4398
-39.4358
-39.4316
-39.4274
-39.4232
-39.4189
-39.4146
-39.4103
-39.4059
-39.4014
-39.397
-39.3926
-39.3881
-39.3836
-39.3791
-39.3746
-39.3702
-39.3657
-39.3613
-39.3568
-39.3524
-39.3481
-39.3437
-39.3394
-39.3351
-39.3309
-39.3267
-39.3226
-39.3185
-39.3145
-39.3106
-39.3067
-39.3029
-39.2992
-39.2955
-39.292
-39.2885
-39.2851
-39.2818
-39.2786
-39.2754
-39.2724
-39.2695
-39.2667
-39.264
-39.2614
-39.2589
-39.2565
-39.2542
-39.2521
-39.25
-39.2481
-39.2463
-39.2446
-39.2431
-39.2417
-39.2404
-39.2392
-39.2381
-39.2372
-39.2364
-39.2358
-39.2352
-39.2348
-39.2346
-39.2344
-39.2344
-43.1572
-43.1572
-43.1573
-43.1576
-43.158
-43.1585
-43.1592
-43.16
-43.1609
-43.162
-43.1632
-43.1645
-43.1659
-43.1675
-43.1692
-43.171
-43.1729
-43.175
-43.1771
-43.1794
-43.1818
-43.1843
-43.187
-43.1897
-43.1925
-43.1955
-43.1985
-43.2017
-43.2049
-43.2082
-43.2117
-43.2152
-43.2188
-43.2225
-43.2262
-43.2301
-43.234
-43.2379
-43.242
-43.2461
-43.2502
-43.2545
-43.2587
-43.263
-43.2674
-43.2718
-43.2762
-43.2806
-43.2851
-43.2896
-43.2941
-43.2986
-43.3031
-43.3077
-43.3122
-43.3167
-43.3212
-43.3257
-43.3301
-43.3346
-43.339
-43.3434
-43.3477
-43.352
-43.3562
-43.3604
-43.3645
-43.3685
-43.3725
-43.3764
-43.3803
-43.384
-43.3877
-43.3913
-43.3947
-43.3981
-43.4014
-43.4046
-43.4076
-43.4106
-43.4134
-43.4161
-43.4187
-43.4212
-43.4235
-43.4257
-43.4278
-43.4297
-43.4315
-43.4332
-43.4347
-43.436
-43.4372
-43.4383
-43.4392
-43.44
-43.4406
-43.4411
-43.4414
-43.4415
-43.4415
-43.4414
-43.4411
-43.4406
-43.44
-43.4392
-43.4383
-43.4372
-43.436
-43.4347
-43.4332
-43.4315
-43.4297
-43.4278
-43.4257
-43.4235
-43.4212
-43.4187
-43.4161
-43.4134
-43.4106
-43.4076
-43.4046
-43.4014
-43.3981
-43.3947
-43.3913
-43.3877
-43.384
-43.3803
-43.3764
-43.3725
-43.3685
-43.3645
-43.3604
-43.3562
-43.352
-43.3477
-43.3434
-43.339
-43.3346
-43.3301
-43.3257
-43.3212
-43.3167
-43.3122
-43.3077
-43.3031
-43.2986
-43.2941
-43.2896
-43.2851
-43.2806
-43.2762
-43.2718
-43.2674
-43.263
-43.2587
-43.2545
-43.2502
-43.2461
-43.242
-43.2379
-43.234
-43.2301
-43.2262
-43.2225
-43.2188
-43.2152
-43.2117
-43.2082
-43.2049
-43.2017
-43.1985
-43.1955
-43.1925
-43.1897
-43.187
-43.1843
-43.1818
-43.1794
-43.1771
-43.175
-43.1729
-43.171
-43.1692
-43.1675
-43.1659
-43.1645
-43.1632
-43.162
-43.1609
-43.16
-43.1592
-43.1585
-43.158
-43.1576
-43.1573
-43.1572
-43.1572
-47.0798
-47.0798
-47.08
-47.0803
-47.0807
-47.0812
-47.0819
-47.0827
-47.0836
-47.0847
-47.0859
-47.0872
-47.0886
-47.0902
-47.0919
-47.0937
-47.0957
-47.0977
-47.0999
-47.1022
-47.1047
-47.1072
-47.1098
-47.1126
-47.1155
-47.1184
-47.1215
-47.1247
-47.1279
-47.1313
-47.1348
-47.1383
-47.142
-47.1457
-47.1495
-47.1533
-47.1573
-47.1613
-47.1654
-47.1695
-47.1737
-47.178
-47.1823
-47.1866
-47.191
-47.1954
-47.1999
-47.2044
-47.2089
-47.2135
-47.218
-47.2226
-47.2271
-47.2317
-47.2363
-47.2409
-47.2454
-47.2499
-47.2545
-47.2589
-47.2634
-47.2678
-47.2722
-47.2765
-47.2808
-47.285
-47.2892
-47.2933
-47.2973
-47.3013
-47.3052
-47.309
-47.3127
-47.3163
-47.3198
-47.3233
-47.3266
-47.3298
-47.3329
-47.3359
-47.3388
-47.3415
-47.3441
-47.3466
-47.349
-47.3512
-47.3533
-47.3553
-47.3571
-47.3588
-47.3603
-47.3617
-47.3629
-47.364
-47.3649
-47.3657
-47.3663
-47.3668
-47.3671
-47.3672
-47.3672
-47.3671
-47.3668
-47.3663
-47.3657
-47.3649
-47.364
-47.3629
-47.3617
-47.3603
-47.3588
-47.3571
-47.3553
-47.3533
-47.3512
-47.349
-47.3466
-47.3441
-47.3415
-47.3388
-47.3359
-47.3329
-47.3298
-47.3266
-47.3233
-47.3198
-47.3163
-47.3127
-47.309
-47.3052
-47.3013
-47.2973
-47.2933
-47.2892
-47.285
-47.2808
-47.2765
-47.2722
-47.2678
-47.2634
-47.2589
-47.2545
-47.2499
-47.2454
-47.2409
-47.2363
-47.2317
-47.2271
-47.2226
-47.218
-47.2135
-47.2089
-47.2044
-47.1999
-47.1954
-47.191
-47.1866
-47.1823
-47.178
-47.1737
-47.1695
-47.1654
-47.1613
-47.1573
-47.1533
-47.1495
-47.1457
-47.142
-47.1383
-47.1348
-47.1313
-47.1279
-47.1247
-47.1215
-47.1184
-47.1155
-47.1126
-47.1098
-47.1072
-47.1047
-47.1022
-47.0999
-47.0977
-47.0957
-47.0937
-47.0919
-47.0902
-47.0886
-47.0872
-47.0858
-47.0847
-47.0836
-47.0827
-47.0819
-47.0812
-47.0807
-47.0802
-47.08
-47.0798
-47.0798
-51.0023
-51.0024
-51.0025
-51.0028
-51.0032
-51.0037
-51.0044
-51.0052
-51.0061
-51.0072
-51.0084
-51.0097
-51.0112
-51.0128
-51.0145
-51.0164
-51.0183
-51.0204
-51.0226
-51.0249
-51.0274
-51.0299
-51.0326
-51.0354
-51.0383
-51.0413
-51.0444
-51.0476
-51.0509
-51.0543
-51.0578
-51.0614
-51.065
-51.0688
-51.0726
-51.0765
-51.0805
-51.0846
-51.0887
-51.0929
-51.0971
-51.1014
-51.1058
-51.1102
-51.1146
-51.1191
-51.1236
-51.1281
-51.1327
-51.1373
-51.1419
-51.1465
-51.1512
-51.1558
-51.1604
-51.165
-51.1696
-51.1742
-51.1788
-51.1833
-51.1878
-51.1923
-51.1968
-51.2011
-51.2055
-51.2098
-51.214
-51.2181
-51.2222
-51.2262
-51.2302
-51.234
-51.2378
-51.2415
-51.245
-51.2485
-51.2519
-51.2551
-51.2583
-51.2613
-51.2642
-51.267
-51.2697
-51.2722
-51.2746
-51.2769
-51.279
-51.281
-51.2828
-51.2845
-51.2861
-51.2875
-51.2887
-51.2898
-51.2908
-51.2915
-51.2922
-51.2926
-51.293
-51.2931
-51.2931
-51.293
-51.2926
-51.2922
-51.2915
-51.2908
-51.2898
-51.2887
-51.2875
-51.2861
-51.2845
-51.2828
-51.281
-51.279
-51.2769
-51.2746
-51.2722
-51.2697
-51.267
-51.2642
-51.2613
-51.2583
-51.2551
-51.2519
-51.2485
-51.245
-51.2415
-51.2378
-51.234
-51.2302
-51.2262
-51.2222
-51.2181
-51.214
-51.2098
-51.2055
-51.2011
-51.1968
-51.1923
-51.1878
-51.1833
-51.1788
-51.1742
-51.1696
-51.165
-51.1604
-51.1558
-51.1512
-51.1465
-51.1419
-51.1373
-51.1327
-51.1281
-51.1236
-51.1191
-51.1146
-51.1102
-51.1058
-51.1014
-51.0971
-51.0929
-51.0887
-51.0846
-51.0805
-51.0765
-51.0726
-51.0688
-51.065
-51.0614
-51.0578
-51.0543
-51.0509
-51.0476
-51.0444
-51.0413
-51.0383
-51.0354
-51.0326
-51.0299
-51.0274
-51.0249
-51.0226
-51.0204
-51.0183
-51.0164
-51.0145
-51.0128
-51.0112
-51.0097
-51.0084
-51.0072
-51.0061
-51.0052
-51.0044
-51.0037
-51.0032
-51.0028
-51.0025
-51.0024
-51.0023
-54.9247
-54.9247
-54.9249
-54.9252
-54.9256
-54.9261
-54.9268
-54.9276
-54.9286
-54.9296
-54.9309
-54.9322
-54.9337
-54.9353
-54.937
-54.9389
-54.9409
-54.943
-54.9452
-54.9475
-54.95
-54.9526
-54.9553
-54.9581
-54.961
-54.964
-54.9672
-54.9704
-54.9738
-54.9772
-54.9807
-54.9843
-54.988
-54.9918
-54.9957
-54.9997
-55.0037
-55.0078
-55.012
-55.0162
-55.0205
-55.0248
-55.0292
-55.0337
-55.0382
-55.0427
-55.0473
-55.0519
-55.0565
-55.0611
-55.0658
-55.0705
-55.0752
-55.0798
-55.0845
-55.0892
-55.0939
-55.0985
-55.1032
-55.1078
-55.1123
-55.1169
-55.1214
-55.1258
-55.1302
-55.1346
-55.1388
-55.1431
-55.1472
-55.1513
-55.1553
-55.1592
-55.163
-55.1667
-55.1703
-55.1739
-55.1773
-55.1806
-55.1838
-55.1869
-55.1898
-55.1927
-55.1954
-55.1979
-55.2004
-55.2027
-55.2048
-55.2068
-55.2087
-55.2104
-55.212
-55.2134
-55.2147
-55.2158
-55.2168
-55.2176
-55.2182
-55.2187
-55.219
-55.2192
-55.2192
-55.219
-55.2187
-55.2182
-55.2176
-55.2168
-55.2158
-55.2147
-55.2134
-55.212
-55.2104
-55.2087
-55.2068
-55.2048
-55.2027
-55.2004
-55.1979
-55.1954
-55.1927
-55.1898
-55.1869
-55.1838
-55.1806
-55.1773
-55.1739
-55.1703
-55.1667
-55.163
-55.1592
-55.1553
-55.1513
-55.1472
-55.1431
-55.1388
-55.1346
-55.1302
-55.1258
-55.1214
-55.1169
-55.1123
-55.1078
-55.1032
-55.0985
-55.0939
-55.0892
-55.0845
-55.0798
-55.0752
-55.0705
-55.0658
-55.0611
-55.0565
-55.0519
-55.0473
-55.0427
-55.0382
-55.0337
-55.0292
-55.0248
-55.0205
-55.0162
-55.012
-55.0078
-55.0037
-54.9997
-54.9957
-54.9918
-54.988
-54.9843
-54.9807
-54.9772
-54.9738
-54.9704
-54.9672
-54.964
-54.961
-54.9581
-54.9553
-54.9526
-54.95
-54.9475
-54.9452
-54.943
-54.9409
-54.9389
-54.937
-54.9353
-54.9337
-54.9322
-54.9309
-54.9296
-54.9286
-54.9276
-54.9268
-54.9261
-54.9256
-54.9252
-54.9249
-54.9247
-54.9247
-58.847
-58.847
-58.8471
-58.8474
-58.8478
-58.8484
-58.8491
-58.8499
-58.8509
-58.8519
-58.8532
-58.8545
-58.856
-58.8576
-58.8594
-58.8613
-58.8633
-58.8654
-58.8677
-58.87
-58.8725
-58.8751
-58.8779
-58.8807
-58.8836
-58.8867
-58.8899
-58.8931
-58.8965
-58.9
-58.9036
-58.9072
-58.911
-58.9148
-58.9187
-58.9227
-58.9268
-58.9309
-58.9352
-58.9394
-58.9438
-58.9482
-58.9526
-58.9571
-58.9617
-58.9663
-58.9709
-58.9756
-58.9802
-58.985
-58.9897
-58.9944
-58.9992
-59.0039
-59.0087
-59.0134
-59.0181
-59.0229
-59.0276
-59.0322
-59.0369
-59.0415
-59.046
-59.0505
-59.055
-59.0594
-59.0638
-59.068
-59.0722
-59.0764
-59.0804
-59.0844
-59.0883
-59.0921
-59.0957
-59.0993
-59.1028
-59.1062
-59.1094
-59.1125
-59.1155
-59.1184
-59.1212
-59.1238
-59.1263
-59.1286
-59.1308
-59.1329
-59.1348
-59.1365
-59.1381
-59.1396
-59.1408
-59.142
-59.143
-59.1438
-59.1444
-59.1449
-59.1452
-59.1454
-59.1454
-59.1452
-59.1449
-59.1444
-59.1438
-59.143
-59.142
-59.1408
-59.1396
-59.1381
-59.1365
-59.1348
-59.1329
-59.1308
-59.1286
-59.1263
-59.1238
-59.1212
-59.1184
-59.1155
-59.1125
-59.1094
-59.1062
-59.1028
-59.0993
-59.0957
-59.0921
-59.0883
-59.0844
-59.0804
-59.0764
-59.0722
-59.068
-59.0638
-59.0594
-59.055
-59.0505
-59.046
-59.0415
-59.0369
-59.0322
-59.0276
-59.0229
-59.0181
-59.0134
-59.0087
-59.0039
-58.9992
-58.9944
-58.9897
-58.985
-58.9802
-58.9756
-58.9709
-58.9663
-58.9617
-58.9571
-58.9526
-58.9482
-58.9438
-58.9394
-58.9352
-58.9309
-58.9268
-58.9227
-58.9187
-58.9148
-58.911
-58.9072
-58.9036
-58.9
-58.8965
-58.8931
-58.8899
-58.8867
-58.8836
-58.8807
-58.8779
-58.8751
-58.8725
-58.87
-58.8677
-58.8654
-58.8633
-58.8613
-58.8594
-58.8576
-58.856
-58.8545
-58.8532
-58.8519
-58.8509
-58.8499
-58.8491
-58.8484
-58.8478
-58.8474
-58.8471
-58.847
-58.847
-62.7691
-62.7691
-62.7693
-62.7695
-62.77
-62.7705
-62.7712
-62.7721
-62.773
-62.7741
-62.7754
-62.7767
-62.7782
-62.7799
-62.7816
-62.7835
-62.7856
-62.7877
-62.79
-62.7924
-62.7949
-62.7976
-62.8003
-62.8032
-62.8062
-62.8093
-62.8125
-62.8158
-62.8192
-62.8227
-62.8263
-62.83
-62.8338
-62.8377
-62.8417
-62.8457
-62.8498
-62.854
-62.8583