/*--------------------------------*- C++ -*----------------------------------*\
| =========                 |                                                 |
| \\      /  F ield         | OpenFOAM: The Open Source CFD Toolbox           |
|  \\    /   O peration     | Version:  2412                                  |
|   \\  /    A nd           | Website:  www.openfoam.com                      |
|    \\/     M anipulation  |                                                 |
\*---------------------------------------------------------------------------*/
FoamFile
{
    version     2.0;
    format      ascii;
    arch        "LSB;label=32;scalar=64";
    class       volScalarField;
    location    "1.15";
    object      p_rgh;
}
// * * * * * * * * * * * * * * * * * * * * * * * * * * * * * * * * * * * * * //

dimensions      [1 -1 -2 0 0 0 0];

internalField   nonuniform List<scalar> 
40000
(
1.962
1.96199
1.96186
1.96161
1.96123
1.96072
1.96008
1.95932
1.95844
1.95743
1.95629
1.95504
1.95366
1.95216
1.95055
1.94881
1.94696
1.945
1.94292
1.94073
1.93843
1.93602
1.93351
1.93089
1.92818
1.92536
1.92245
1.91944
1.91634
1.91316
1.90989
1.90653
1.9031
1.89959
1.896
1.89234
1.88862
1.88484
1.88099
1.87709
1.87313
1.86913
1.86508
1.86098
1.85685
1.85269
1.8485
1.84428
1.84005
1.83579
1.83152
1.82725
1.82297
1.81869
1.81441
1.81015
1.80589
1.80166
1.79745
1.79326
1.78911
1.78499
1.78092
1.77689
1.7729
1.76897
1.7651
1.76129
1.75755
1.75387
1.75027
1.74675
1.74331
1.73996
1.73669
1.73352
1.73045
1.72747
1.7246
1.72184
1.71919
1.71665
1.71423
1.71192
1.70974
1.70768
1.70575
1.70395
1.70227
1.70073
1.69933
1.69806
1.69692
1.69593
1.69508
1.69436
1.69379
1.69336
1.69307
1.69293
1.69293
1.69307
1.69336
1.69379
1.69436
1.69508
1.69593
1.69692
1.69806
1.69933
1.70073
1.70227
1.70395
1.70575
1.70768
1.70974
1.71192
1.71423
1.71665
1.71919
1.72184
1.7246
1.72747
1.73045
1.73352
1.73669
1.73995
1.74331
1.74675
1.75027
1.75387
1.75754
1.76129
1.7651
1.76897
1.7729
1.77688
1.78092
1.78499
1.78911
1.79326
1.79745
1.80166
1.80589
1.81014
1.81441
1.81868
1.82296
1.82724
1.83152
1.83579
1.84004
1.84428
1.8485
1.85269
1.85685
1.86098
1.86507
1.86912
1.87313
1.87708
1.88099
1.88483
1.88862
1.89234
1.896
1.89958
1.90309
1.90653
1.90988
1.91316
1.91634
1.91944
1.92245
1.92536
1.92818
1.93089
1.93351
1.93602
1.93843
1.94073
1.94292
1.945
1.94696
1.94881
1.95055
1.95216
1.95366
1.95504
1.9563
1.95743
1.95844
1.95933
1.96009
1.96073
1.96124
1.96163
1.96189
1.96202
1.96202
1.962
1.962
1.96187
1.96162
1.96124
1.96073
1.9601
1.95934
1.95845
1.95744
1.95631
1.95505
1.95367
1.95217
1.95056
1.94882
1.94697
1.94501
1.94293
1.94074
1.93844
1.93603
1.93352
1.9309
1.92818
1.92537
1.92246
1.91945
1.91635
1.91316
1.90989
1.90654
1.9031
1.89959
1.896
1.89235
1.88862
1.88484
1.88099
1.87709
1.87313
1.86912
1.86507
1.86098
1.85685
1.85269
1.8485
1.84428
1.84004
1.83578
1.83152
1.82724
1.82296
1.81868
1.8144
1.81014
1.80589
1.80165
1.79744
1.79326
1.7891
1.78499
1.78091
1.77688
1.77289
1.76896
1.76509
1.76128
1.75753
1.75386
1.75026
1.74674
1.7433
1.73995
1.73668
1.73351
1.73044
1.72746
1.72459
1.72183
1.71918
1.71664
1.71422
1.71191
1.70973
1.70767
1.70574
1.70394
1.70227
1.70072
1.69932
1.69805
1.69692
1.69592
1.69507
1.69435
1.69378
1.69335
1.69307
1.69292
1.69292
1.69307
1.69335
1.69378
1.69435
1.69507
1.69592
1.69692
1.69805
1.69932
1.70072
1.70226
1.70394
1.70574
1.70767
1.70973
1.71191
1.71422
1.71664
1.71918
1.72183
1.72459
1.72746
1.73044
1.73351
1.73668
1.73994
1.7433
1.74674
1.75026
1.75386
1.75753
1.76128
1.76509
1.76896
1.77289
1.77687
1.78091
1.78498
1.7891
1.79325
1.79744
1.80165
1.80588
1.81014
1.8144
1.81868
1.82296
1.82724
1.83151
1.83578
1.84004
1.84428
1.84849
1.85269
1.85685
1.86098
1.86507
1.86912
1.87313
1.87708
1.88099
1.88483
1.88862
1.89234
1.896
1.89959
1.9031
1.90653
1.90989
1.91316
1.91635
1.91945
1.92245
1.92537
1.92818
1.9309
1.93352
1.93603
1.93844
1.94074
1.94293
1.94501
1.94697
1.94882
1.95056
1.95218
1.95368
1.95505
1.95631
1.95745
1.95846
1.95934
1.96011
1.96074
1.96126
1.96164
1.9619
1.96203
1.96203
1.96213
1.96213
1.962
1.96175
1.96136
1.96085
1.96022
1.95946
1.95857
1.95756
1.95642
1.95517
1.95379
1.95229
1.95067
1.94893
1.94708
1.94511
1.94303
1.94084
1.93854
1.93613
1.93362
1.931
1.92828
1.92546
1.92254
1.91953
1.91643
1.91324
1.90997
1.90661
1.90317
1.89966
1.89607
1.89241
1.88868
1.88489
1.88104
1.87713
1.87317
1.86916
1.86511
1.86101
1.85688
1.85271
1.84851
1.84429
1.84005
1.83579
1.83152
1.82724
1.82295
1.81867
1.81439
1.81012
1.80586
1.80162
1.79741
1.79322
1.78906
1.78494
1.78086
1.77682
1.77283
1.7689
1.76502
1.76121
1.75746
1.75378
1.75018
1.74665
1.74321
1.73985
1.73658
1.73341
1.73033
1.72736
1.72448
1.72172
1.71906
1.71652
1.7141
1.71179
1.70961
1.70755
1.70561
1.70381
1.70213
1.70059
1.69918
1.69791
1.69678
1.69578
1.69493
1.69421
1.69364
1.69321
1.69292
1.69278
1.69278
1.69292
1.69321
1.69364
1.69421
1.69493
1.69578
1.69678
1.69791
1.69918
1.70059
1.70213
1.70381
1.70561
1.70754
1.70961
1.71179
1.7141
1.71652
1.71906
1.72172
1.72448
1.72735
1.73033
1.73341
1.73658
1.73985
1.74321
1.74665
1.75017
1.75378
1.75746
1.7612
1.76502
1.7689
1.77283
1.77682
1.78085
1.78494
1.78906
1.79321
1.7974
1.80162
1.80586
1.81011
1.81439
1.81866
1.82295
1.82723
1.83152
1.83579
1.84005
1.84429
1.84851
1.85271
1.85688
1.86101
1.86511
1.86916
1.87317
1.87713
1.88104
1.88489
1.88868
1.8924
1.89606
1.89965
1.90317
1.90661
1.90997
1.91324
1.91643
1.91953
1.92254
1.92546
1.92828
1.931
1.93362
1.93613
1.93854
1.94084
1.94303
1.94512
1.94708
1.94894
1.95067
1.95229
1.95379
1.95517
1.95643
1.95756
1.95858
1.95946
1.96023
1.96087
1.96138
1.96176
1.96202
1.96215
1.96216
1.96239
1.96238
1.96225
1.962
1.96161
1.9611
1.96046
1.9597
1.95881
1.9578
1.95666
1.9554
1.95402
1.95252
1.9509
1.94916
1.94731
1.94533
1.94325
1.94105
1.93875
1.93634
1.93382
1.93119
1.92847
1.92565
1.92272
1.91971
1.9166
1.91341
1.91013
1.90676
1.90332
1.8998
1.8962
1.89253
1.8888
1.885
1.88115
1.87723
1.87326
1.86925
1.86518
1.86108
1.85694
1.85276
1.84856
1.84433
1.84008
1.83581
1.83153
1.82724
1.82294
1.81865
1.81436
1.81008
1.80582
1.80157
1.79734
1.79315
1.78898
1.78485
1.78076
1.77671
1.77272
1.76877
1.76489
1.76107
1.75731
1.75362
1.75001
1.74648
1.74303
1.73966
1.73639
1.7332
1.73012
1.72714
1.72426
1.72149
1.71883
1.71628
1.71385
1.71153
1.70935
1.70728
1.70534
1.70353
1.70185
1.70031
1.6989
1.69762
1.69648
1.69549
1.69463
1.69391
1.69334
1.69291
1.69262
1.69248
1.69248
1.69262
1.69291
1.69334
1.69391
1.69463
1.69549
1.69648
1.69762
1.6989
1.70031
1.70185
1.70353
1.70534
1.70728
1.70934
1.71153
1.71385
1.71628
1.71882
1.72148
1.72426
1.72714
1.73012
1.7332
1.73638
1.73966
1.74302
1.74647
1.75001
1.75362
1.75731
1.76106
1.76489
1.76877
1.77271
1.77671
1.78076
1.78485
1.78898
1.79314
1.79734
1.80157
1.80581
1.81008
1.81436
1.81865
1.82294
1.82723
1.83152
1.83581
1.84007
1.84433
1.84856
1.85276
1.85694
1.86108
1.86518
1.86924
1.87326
1.87723
1.88114
1.885
1.8888
1.89253
1.8962
1.89979
1.90332
1.90676
1.91013
1.91341
1.9166
1.91971
1.92272
1.92564
1.92847
1.93119
1.93382
1.93634
1.93875
1.94106
1.94325
1.94534
1.94731
1.94916
1.9509
1.95252
1.95403
1.95541
1.95667
1.95781
1.95882
1.95971
1.96047
1.96111
1.96162
1.96201
1.96227
1.9624
1.96241
1.96276
1.96275
1.96262
1.96237
1.96198
1.96147
1.96083
1.96007
1.95917
1.95816
1.95702
1.95576
1.95437
1.95287
1.95124
1.9495
1.94764
1.94566
1.94358
1.94137
1.93906
1.93664
1.93412
1.93149
1.92876
1.92593
1.923
1.91998
1.91686
1.91366
1.91037
1.90699
1.90354
1.90001
1.8964
1.89273
1.88898
1.88518
1.88131
1.87738
1.8734
1.86937
1.8653
1.86118
1.85703
1.85284
1.84863
1.84438
1.84012
1.83584
1.83154
1.82724
1.82293
1.81863
1.81433
1.81003
1.80575
1.80149
1.79725
1.79304
1.78886
1.78472
1.78061
1.77656
1.77255
1.76859
1.76469
1.76086
1.75709
1.75339
1.74976
1.74622
1.74275
1.73938
1.73609
1.7329
1.7298
1.72681
1.72392
1.72114
1.71847
1.71591
1.71347
1.71115
1.70895
1.70688
1.70493
1.70312
1.70143
1.69988
1.69846
1.69719
1.69604
1.69504
1.69418
1.69347
1.69289
1.69246
1.69217
1.69202
1.69202
1.69217
1.69246
1.69289
1.69346
1.69418
1.69504
1.69604
1.69719
1.69846
1.69988
1.70143
1.70312
1.70493
1.70688
1.70895
1.71115
1.71347
1.71591
1.71847
1.72114
1.72392
1.72681
1.7298
1.7329
1.73609
1.73937
1.74275
1.74621
1.74976
1.75338
1.75708
1.76085
1.76469
1.76859
1.77254
1.77655
1.78061
1.78472
1.78886
1.79304
1.79725
1.80149
1.80575
1.81003
1.81432
1.81863
1.82293
1.82724
1.83154
1.83584
1.84012
1.84438
1.84862
1.85284
1.85703
1.86118
1.8653
1.86937
1.8734
1.87738
1.88131
1.88517
1.88898
1.89273
1.8964
1.90001
1.90354
1.90699
1.91037
1.91366
1.91686
1.91997
1.923
1.92593
1.92876
1.93149
1.93412
1.93664
1.93906
1.94137
1.94358
1.94567
1.94764
1.9495
1.95125
1.95287
1.95438
1.95576
1.95702
1.95816
1.95918
1.96007
1.96084
1.96148
1.96199
1.96238
1.96264
1.96277
1.96278
1.96326
1.96325
1.96312
1.96286
1.96247
1.96196
1.96132
1.96055
1.95966
1.95864
1.95749
1.95623
1.95484
1.95333
1.9517
1.94995
1.94808
1.9461
1.94401
1.9418
1.93948
1.93705
1.93452
1.93188
1.92914
1.9263
1.92336
1.92033
1.9172
1.91399
1.91069
1.9073
1.90384
1.90029
1.89668
1.89299
1.88923
1.88541
1.88152
1.87758
1.87359
1.86955
1.86546
1.86133
1.85716
1.85295
1.84872
1.84446
1.84018
1.83588
1.83157
1.82725
1.82292
1.8186
1.81428
1.80997
1.80567
1.80139
1.79714
1.79291
1.78871
1.78455
1.78043
1.77635
1.77232
1.76835
1.76443
1.76058
1.75679
1.75307
1.74943
1.74587
1.74239
1.739
1.7357
1.73249
1.72938
1.72637
1.72347
1.72067
1.71799
1.71542
1.71297
1.71064
1.70843
1.70635
1.70439
1.70256
1.70087
1.69931
1.69789
1.6966
1.69546
1.69445
1.69359
1.69286
1.69229
1.69185
1.69156
1.69142
1.69142
1.69156
1.69185
1.69229
1.69286
1.69359
1.69445
1.69546
1.6966
1.69789
1.69931
1.70087
1.70256
1.70439
1.70634
1.70843
1.71064
1.71297
1.71542
1.71799
1.72067
1.72347
1.72637
1.72938
1.73249
1.7357
1.739
1.74239
1.74587
1.74943
1.75307
1.75679
1.76058
1.76443
1.76834
1.77232
1.77635
1.78042
1.78454
1.78871
1.7929
1.79713
1.80139
1.80567
1.80997
1.81428
1.8186
1.82292
1.82725
1.83157
1.83588
1.84018
1.84446
1.84872
1.85295
1.85716
1.86132
1.86546
1.86955
1.87359
1.87758
1.88152
1.88541
1.88923
1.89298
1.89667
1.90029
1.90384
1.9073
1.91069
1.91399
1.9172
1.92033
1.92336
1.9263
1.92914
1.93188
1.93452
1.93705
1.93948
1.9418
1.94401
1.9461
1.94809
1.94995
1.9517
1.95333
1.95484
1.95623
1.9575
1.95864
1.95966
1.96056
1.96133
1.96197
1.96248
1.96287
1.96313
1.96326
1.96327
1.96388
1.96386
1.96373
1.96347
1.96309
1.96257
1.96193
1.96115
1.96026
1.95923
1.95809
1.95682
1.95542
1.95391
1.95227
1.95051
1.94864
1.94665
1.94455
1.94233
1.94
1.93756
1.93502
1.93237
1.92962
1.92677
1.92382
1.92077
1.91763
1.91441
1.91109
1.90769
1.90421
1.90065
1.89702
1.89331
1.88954
1.8857
1.8818
1.87784
1.87383
1.86977
1.86566
1.86151
1.85732
1.85309
1.84884
1.84456
1.84026
1.83594
1.8316
1.82726
1.82291
1.81857
1.81423
1.80989
1.80557
1.80127
1.79699
1.79274
1.78852
1.78433
1.78019
1.77609
1.77204
1.76804
1.76411
1.76023
1.75642
1.75269
1.74902
1.74544
1.74194
1.73853
1.73521
1.73198
1.72885
1.72583
1.7229
1.72009
1.71739
1.71481
1.71234
1.71
1.70777
1.70568
1.70371
1.70187
1.70017
1.6986
1.69717
1.69587
1.69472
1.69371
1.69284
1.69211
1.69153
1.69109
1.6908
1.69065
1.69065
1.6908
1.69109
1.69153
1.69211
1.69284
1.69371
1.69472
1.69587
1.69717
1.6986
1.70017
1.70187
1.70371
1.70568
1.70777
1.70999
1.71234
1.71481
1.71739
1.72009
1.7229
1.72582
1.72885
1.73198
1.7352
1.73853
1.74194
1.74544
1.74902
1.75268
1.75642
1.76023
1.7641
1.76804
1.77204
1.77609
1.78019
1.78433
1.78852
1.79274
1.79699
1.80127
1.80557
1.80989
1.81422
1.81857
1.82291
1.82726
1.8316
1.83593
1.84025
1.84456
1.84884
1.85309
1.85731
1.8615
1.86566
1.86976
1.87383
1.87784
1.8818
1.8857
1.88954
1.89331
1.89702
1.90065
1.90421
1.90769
1.91109
1.9144
1.91763
1.92077
1.92382
1.92677
1.92962
1.93237
1.93502
1.93756
1.94
1.94233
1.94455
1.94665
1.94864
1.95052
1.95227
1.95391
1.95542
1.95682
1.95809
1.95924
1.96026
1.96116
1.96193
1.96258
1.96309
1.96348
1.96374
1.96387
1.96389
1.96461
1.9646
1.96447
1.96421
1.96382
1.9633
1.96265
1.96188
1.96098
1.95995
1.9588
1.95752
1.95612
1.9546
1.95295
1.95119
1.94931
1.94731
1.94519
1.94297
1.94063
1.93818
1.93562
1.93296
1.93019
1.92733
1.92436
1.9213
1.91815
1.91491
1.91157
1.90816
1.90466
1.90108
1.89743
1.8937
1.88991
1.88605
1.88213
1.87815
1.87411
1.87003
1.8659
1.86172
1.85751
1.85326
1.84898
1.84468
1.84035
1.836
1.83165
1.82728
1.8229
1.81853
1.81416
1.8098
1.80546
1.80113
1.79682
1.79254
1.78829
1.78408
1.77991
1.77578
1.77171
1.76768
1.76372
1.75982
1.75598
1.75222
1.74853
1.74492
1.7414
1.73796
1.73462
1.73137
1.72822
1.72517
1.72223
1.71939
1.71668
1.71407
1.71159
1.70922
1.70698
1.70487
1.70289
1.70104
1.69932
1.69774
1.6963
1.695
1.69383
1.69281
1.69194
1.6912
1.69062
1.69018
1.68988
1.68974
1.68974
1.68988
1.69018
1.69062
1.6912
1.69194
1.69281
1.69383
1.695
1.6963
1.69774
1.69932
1.70104
1.70289
1.70487
1.70698
1.70922
1.71159
1.71407
1.71667
1.71939
1.72223
1.72517
1.72822
1.73137
1.73462
1.73796
1.7414
1.74492
1.74853
1.75222
1.75598
1.75981
1.76372
1.76768
1.7717
1.77578
1.77991
1.78408
1.78829
1.79254
1.79682
1.80112
1.80545
1.8098
1.81416
1.81853
1.8229
1.82728
1.83164
1.836
1.84035
1.84468
1.84898
1.85326
1.85751
1.86172
1.8659
1.87003
1.87411
1.87815
1.88213
1.88605
1.88991
1.8937
1.89743
1.90108
1.90466
1.90816
1.91157
1.9149
1.91815
1.9213
1.92436
1.92733
1.93019
1.93296
1.93562
1.93818
1.94063
1.94297
1.94519
1.94731
1.94931
1.95119
1.95296
1.9546
1.95612
1.95752
1.9588
1.95996
1.96098
1.96189
1.96266
1.96331
1.96383
1.96422
1.96448
1.96461
1.96462
1.96548
1.96546
1.96533
1.96507
1.96468
1.96416
1.96351
1.96273
1.96182
1.96079
1.95963
1.95834
1.95694
1.9554
1.95375
1.95198
1.95009
1.94808
1.94595
1.94371
1.94136
1.9389
1.93633
1.93365
1.93087
1.92799
1.925
1.92193
1.91875
1.91549
1.91214
1.9087
1.90518
1.90158
1.89791
1.89416
1.89034
1.88646
1.88251
1.87851
1.87445
1.87034
1.86618
1.86198
1.85774
1.85346
1.84915
1.84482
1.84046
1.83609
1.8317
1.8273
1.82289
1.81849
1.81409
1.8097
1.80532
1.80096
1.79662
1.79231
1.78803
1.78379
1.77958
1.77542
1.77132
1.76726
1.76327
1.75933
1.75547
1.75167
1.74796
1.74432
1.74077
1.7373
1.73393
1.73065
1.72748
1.7244
1.72144
1.71858
1.71584
1.71321
1.7107
1.70832
1.70606
1.70393
1.70193
1.70007
1.69833
1.69674
1.69528
1.69397
1.6928
1.69177
1.69088
1.69014
1.68955
1.68911
1.68881
1.68866
1.68866
1.68881
1.68911
1.68955
1.69014
1.69088
1.69177
1.6928
1.69397
1.69528
1.69674
1.69833
1.70006
1.70193
1.70393
1.70606
1.70832
1.7107
1.71321
1.71583
1.71858
1.72143
1.7244
1.72747
1.73065
1.73393
1.7373
1.74076
1.74432
1.74795
1.75167
1.75547
1.75933
1.76326
1.76726
1.77131
1.77542
1.77958
1.78378
1.78803
1.79231
1.79662
1.80096
1.80532
1.8097
1.81409
1.81849
1.82289
1.8273
1.83169
1.83608
1.84046
1.84482
1.84915
1.85346
1.85773
1.86198
1.86618
1.87034
1.87445
1.87851
1.88251
1.88646
1.89034
1.89416
1.89791
1.90158
1.90518
1.9087
1.91214
1.91549
1.91875
1.92193
1.925
1.92799
1.93087
1.93365
1.93633
1.9389
1.94136
1.94371
1.94595
1.94808
1.95009
1.95198
1.95375
1.95541
1.95694
1.95835
1.95963
1.96079
1.96182
1.96273
1.96351
1.96416
1.96468
1.96508
1.96534
1.96547
1.96548
1.96646
1.96645
1.96632
1.96605
1.96566
1.96513
1.96448
1.96369
1.96278
1.96174
1.96058
1.95929
1.95787
1.95633
1.95466
1.95288
1.95098
1.94895
1.94682
1.94456
1.9422
1.93972
1.93713
1.93444
1.93164
1.92874
1.92574
1.92264
1.91944
1.91616
1.91279
1.90933
1.90578
1.90216
1.89846
1.89468
1.89084
1.88693
1.88295
1.87892
1.87483
1.87069
1.8665
1.86227
1.858
1.85369
1.84935
1.84498
1.84059
1.83618
1.83176
1.82732
1.82288
1.81844
1.81401
1.80958
1.80517
1.80077
1.79639
1.79205
1.78773
1.78345
1.77921
1.77501
1.77087
1.76678
1.76275
1.75878
1.75488
1.75105
1.7473
1.74363
1.74004
1.73655
1.73314
1.72983
1.72663
1.72352
1.72053
1.71764
1.71487
1.71222
1.70969
1.70728
1.705
1.70285
1.70083
1.69895
1.6972
1.69559
1.69412
1.69279
1.69161
1.69057
1.68967
1.68893
1.68833
1.68788
1.68758
1.68743
1.68743
1.68758
1.68788
1.68833
1.68893
1.68967
1.69057
1.6916
1.69279
1.69412
1.69559
1.6972
1.69895
1.70083
1.70285
1.705
1.70728
1.70969
1.71222
1.71487
1.71764
1.72053
1.72352
1.72662
1.72983
1.73314
1.73654
1.74004
1.74363
1.7473
1.75105
1.75488
1.75878
1.76275
1.76678
1.77087
1.77501
1.77921
1.78345
1.78773
1.79204
1.79639
1.80077
1.80516
1.80958
1.81401
1.81844
1.82288
1.82732
1.83175
1.83618
1.84059
1.84498
1.84935
1.85369
1.858
1.86227
1.8665
1.87069
1.87483
1.87892
1.88295
1.88693
1.89084
1.89468
1.89846
1.90216
1.90578
1.90932
1.91279
1.91616
1.91944
1.92264
1.92574
1.92874
1.93164
1.93444
1.93713
1.93972
1.9422
1.94456
1.94682
1.94896
1.95098
1.95288
1.95467
1.95633
1.95787
1.95929
1.96058
1.96175
1.96279
1.9637
1.96448
1.96514
1.96566
1.96606
1.96632
1.96645
1.96647
1.96757
1.96756
1.96743
1.96716
1.96676
1.96623
1.96557
1.96479
1.96387
1.96282
1.96165
1.96035
1.95892
1.95737
1.95569
1.9539
1.95198
1.94994
1.94779
1.94552
1.94314
1.94064
1.93804
1.93533
1.93251
1.92958
1.92656
1.92344
1.92022
1.91692
1.91352
1.91003
1.90646
1.90281
1.89908
1.89528
1.8914
1.88746
1.88345
1.87939
1.87527
1.87109
1.86687
1.8626
1.85829
1.85395
1.84957
1.84517
1.84074
1.83629
1.83183
1.82735
1.82287
1.81839
1.81392
1.80945
1.80499
1.80056
1.79614
1.79175
1.78739
1.78307
1.77879
1.77455
1.77037
1.76624
1.76216
1.75816
1.75422
1.75035
1.74656
1.74285
1.73923
1.73569
1.73225
1.72891
1.72567
1.72253
1.7195
1.71659
1.71379
1.71111
1.70855
1.70612
1.70381
1.70163
1.69959
1.69769
1.69592
1.69429
1.6928
1.69146
1.69026
1.68921
1.68831
1.68755
1.68695
1.68649
1.68619
1.68604
1.68604
1.68619
1.68649
1.68695
1.68755
1.68831
1.68921
1.69026
1.69146
1.6928
1.69429
1.69592
1.69769
1.69959
1.70163
1.70381
1.70611
1.70855
1.71111
1.71379
1.71659
1.7195
1.72253
1.72567
1.72891
1.73225
1.73569
1.73922
1.74285
1.74656
1.75035
1.75421
1.75815
1.76216
1.76623
1.77036
1.77455
1.77879
1.78307
1.78739
1.79175
1.79614
1.80055
1.80499
1.80945
1.81392
1.81839
1.82287
1.82735
1.83182
1.83629
1.84073
1.84516
1.84957
1.85395
1.85829
1.8626
1.86687
1.87109
1.87527
1.87939
1.88345
1.88746
1.8914
1.89527
1.89908
1.90281
1.90646
1.91003
1.91352
1.91692
1.92022
1.92344
1.92656
1.92958
1.93251
1.93533
1.93804
1.94064
1.94314
1.94552
1.94779
1.94995
1.95198
1.9539
1.9557
1.95737
1.95892
1.96035
1.96165
1.96282
1.96387
1.96479
1.96558
1.96624
1.96677
1.96716
1.96743
1.96756
1.96757
1.96881
1.96879
1.96866
1.96839
1.96799
1.96746
1.96679
1.966
1.96507
1.96402
1.96284
1.96153
1.96009
1.95853
1.95684
1.95503
1.9531
1.95105
1.94888
1.94659
1.94419
1.94167
1.93905
1.93631
1.93347
1.93053
1.92748
1.92434
1.92109
1.91776
1.91433
1.91082
1.90722
1.90353
1.89977
1.89594
1.89203
1.88805
1.88401
1.87991
1.87575
1.87154
1.86728
1.86297
1.85862
1.85424
1.84982
1.84537
1.8409
1.83641
1.8319
1.82739
1.82286
1.81834
1.81382
1.8093
1.8048
1.80032
1.79586
1.79142
1.78702
1.78265
1.77832
1.77404
1.76981
1.76563
1.76151
1.75746
1.75348
1.74957
1.74573
1.74198
1.73832
1.73474
1.73126
1.72788
1.7246
1.72143
1.71836
1.71541
1.71258
1.70986
1.70728
1.70481
1.70248
1.70028
1.69821
1.69628
1.69449
1.69284
1.69133
1.68997
1.68876
1.6877
1.68678
1.68602
1.6854
1.68494
1.68464
1.68448
1.68448
1.68464
1.68494
1.6854
1.68602
1.68678
1.6877
1.68876
1.68997
1.69133
1.69284
1.69449
1.69628
1.69821
1.70027
1.70248
1.70481
1.70727
1.70986
1.71258
1.71541
1.71836
1.72142
1.7246
1.72788
1.73126
1.73474
1.73831
1.74198
1.74573
1.74957
1.75348
1.75746
1.76151
1.76563
1.76981
1.77404
1.77832
1.78265
1.78701
1.79142
1.79585
1.80032
1.8048
1.8093
1.81382
1.81834
1.82286
1.82739
1.8319
1.83641
1.8409
1.84537
1.84982
1.85424
1.85862
1.86297
1.86728
1.87154
1.87575
1.87991
1.88401
1.88805
1.89203
1.89594
1.89977
1.90353
1.90721
1.91081
1.91433
1.91776
1.92109
1.92434
1.92748
1.93053
1.93347
1.93631
1.93905
1.94167
1.94419
1.94659
1.94888
1.95105
1.9531
1.95503
1.95684
1.95853
1.96009
1.96153
1.96284
1.96402
1.96508
1.966
1.9668
1.96746
1.96799
1.96839
1.96866
1.9688
1.96881
1.97017
1.97015
1.97002
1.96975
1.96934
1.96881
1.96814
1.96734
1.9664
1.96534
1.96415
1.96283
1.96138
1.9598
1.9581
1.95628
1.95433
1.95226
1.95008
1.94777
1.94535
1.94281
1.94016
1.93741
1.93454
1.93157
1.9285
1.92532
1.92205
1.91869
1.91523
1.91168
1.90805
1.90433
1.90054
1.89667
1.89272
1.88871
1.88463
1.88049
1.87629
1.87204
1.86773
1.86338
1.85899
1.85456
1.8501
1.8456
1.84109
1.83655
1.83199
1.82743
1.82286
1.81828
1.81371
1.80915
1.80459
1.80006
1.79555
1.79106
1.7866
1.78219
1.77781
1.77347
1.76919
1.76497
1.7608
1.7567
1.75266
1.7487
1.74482
1.74102
1.73731
1.73369
1.73017
1.72674
1.72342
1.7202
1.7171
1.71411
1.71124
1.70849
1.70587
1.70337
1.70101
1.69877
1.69668
1.69472
1.69291
1.69124
1.68971
1.68833
1.6871
1.68602
1.68509
1.68432
1.6837
1.68323
1.68292
1.68277
1.68277
1.68292
1.68323
1.6837
1.68432
1.68509
1.68602
1.6871
1.68833
1.68971
1.69124
1.69291
1.69472
1.69668
1.69877
1.701
1.70337
1.70587
1.70849
1.71124
1.71411
1.7171
1.7202
1.72342
1.72674
1.73017
1.73369
1.73731
1.74102
1.74482
1.7487
1.75266
1.75669
1.7608
1.76496
1.76919
1.77347
1.77781
1.78218
1.7866
1.79106
1.79554
1.80006
1.80459
1.80914
1.81371
1.81828
1.82285
1.82743
1.83199
1.83655
1.84108
1.8456
1.85009
1.85456
1.85899
1.86338
1.86773
1.87203
1.87629
1.88049
1.88463
1.88871
1.89272
1.89667
1.90054
1.90433
1.90805
1.91168
1.91523
1.91869
1.92205
1.92532
1.9285
1.93157
1.93454
1.93741
1.94016
1.94281
1.94535
1.94777
1.95008
1.95226
1.95433
1.95628
1.95811
1.95981
1.96138
1.96283
1.96415
1.96534
1.96641
1.96734
1.96814
1.96881
1.96935
1.96975
1.97002
1.97015
1.97017
1.97165
1.97164
1.9715
1.97123
1.97082
1.97028
1.96961
1.9688
1.96786
1.96679
1.96558
1.96425
1.96279
1.9612
1.95949
1.95765
1.95568
1.95359
1.95139
1.94906
1.94662
1.94406
1.94138
1.9386
1.93571
1.93271
1.92961
1.92641
1.9231
1.91971
1.91621
1.91263
1.90896
1.90521
1.90138
1.89747
1.89348
1.88943
1.88531
1.88112
1.87688
1.87258
1.86823
1.86383
1.85939
1.85491
1.8504
1.84586
1.84129
1.8367
1.83209
1.82747
1.82285
1.81822
1.81359
1.80897
1.80437
1.79978
1.79521
1.79067
1.78615
1.78168
1.77725
1.77286
1.76852
1.76424
1.76002
1.75586
1.75177
1.74776
1.74383
1.73998
1.73621
1.73254
1.72897
1.7255
1.72213
1.71887
1.71572
1.71269
1.70978
1.70699
1.70432
1.70179
1.69939
1.69713
1.695
1.69302
1.69117
1.68948
1.68793
1.68653
1.68528
1.68419
1.68325
1.68246
1.68183
1.68136
1.68104
1.68088
1.68088
1.68104
1.68136
1.68183
1.68246
1.68325
1.68419
1.68528
1.68653
1.68793
1.68948
1.69117
1.69302
1.695
1.69713
1.69939
1.70179
1.70432
1.70699
1.70977
1.71269
1.71572
1.71887
1.72213
1.72549
1.72897
1.73254
1.73621
1.73997
1.74382
1.74776
1.75177
1.75586
1.76001
1.76424
1.76852
1.77286
1.77724
1.78168
1.78615
1.79066
1.79521
1.79977
1.80437
1.80897
1.81359
1.81822
1.82285
1.82747
1.83209
1.8367
1.84129
1.84585
1.8504
1.85491
1.85939
1.86383
1.86823
1.87258
1.87688
1.88112
1.8853
1.88943
1.89348
1.89747
1.90138
1.90521
1.90896
1.91263
1.91621
1.9197
1.9231
1.92641
1.92961
1.93271
1.93571
1.9386
1.94138
1.94406
1.94662
1.94906
1.95139
1.95359
1.95568
1.95765
1.95949
1.9612
1.96279
1.96425
1.96559
1.96679
1.96786
1.9688
1.96961
1.97029
1.97083
1.97123
1.97151
1.97164
1.97165
1.97327
1.97325
1.97312
1.97284
1.97243
1.97188
1.9712
1.97039
1.96944
1.96836
1.96714
1.9658
1.96432
1.96272
1.96099
1.95913
1.95715
1.95504
1.95281
1.95046
1.94799
1.94541
1.94271
1.9399
1.93698
1.93395
1.93082
1.92758
1.92425
1.92081
1.91728
1.91367
1.90996
1.90617
1.90229
1.89834
1.89431
1.89021
1.88604
1.88181
1.87752
1.87317
1.86877
1.86432
1.85983
1.8553
1.85073
1.84613
1.84151
1.83686
1.8322
1.82752
1.82284
1.81815
1.81347
1.80879
1.80412
1.79947
1.79484
1.79024
1.78567
1.78113
1.77664
1.77219
1.76779
1.76345
1.75917
1.75495
1.7508
1.74673
1.74274
1.73884
1.73502
1.73129
1.72767
1.72414
1.72072
1.71741
1.71421
1.71114
1.70818
1.70535
1.70264
1.70007
1.69763
1.69533
1.69317
1.69116
1.68929
1.68756
1.68599
1.68457
1.6833
1.68219
1.68123
1.68043
1.67979
1.67931
1.67899
1.67883
1.67883
1.67899
1.67931
1.67979
1.68043
1.68123
1.68219
1.6833
1.68457
1.68599
1.68756
1.68929
1.69116
1.69317
1.69533
1.69763
1.70007
1.70264
1.70535
1.70818
1.71113
1.71421
1.71741
1.72072
1.72414
1.72766
1.73129
1.73502
1.73883
1.74274
1.74673
1.7508
1.75495
1.75916
1.76344
1.76779
1.77218
1.77663
1.78113
1.78566
1.79024
1.79484
1.79947
1.80412
1.80879
1.81347
1.81815
1.82284
1.82752
1.8322
1.83686
1.84151
1.84613
1.85073
1.8553
1.85983
1.86432
1.86877
1.87317
1.87752
1.88181
1.88604
1.89021
1.89431
1.89834
1.90229
1.90616
1.90996
1.91366
1.91728
1.92081
1.92425
1.92758
1.93082
1.93395
1.93698
1.9399
1.94271
1.94541
1.94799
1.95046
1.95281
1.95504
1.95715
1.95913
1.96099
1.96272
1.96433
1.9658
1.96715
1.96836
1.96944
1.97039
1.97121
1.97189
1.97243
1.97285
1.97312
1.97326
1.97327
1.97501
1.975
1.97486
1.97458
1.97417
1.97362
1.97293
1.9721
1.97115
1.97005
1.96883
1.96747
1.96598
1.96436
1.96261
1.96073
1.95873
1.9566
1.95435
1.95198
1.94948
1.94687
1.94414
1.9413
1.93835
1.93529
1.93212
1.92885
1.92548
1.92201
1.91844
1.91478
1.91103
1.9072
1.90328
1.89928
1.89521
1.89106
1.88684
1.88256
1.87822
1.87381
1.86936
1.86486
1.86031
1.85572
1.85109
1.84644
1.84175
1.83705
1.83232
1.82758
1.82283
1.81808
1.81333
1.80859
1.80386
1.79914
1.79445
1.78978
1.78514
1.78054
1.77598
1.77146
1.767
1.76259
1.75825
1.75397
1.74976
1.74562
1.74157
1.7376
1.73372
1.72994
1.72625
1.72267
1.7192
1.71583
1.71259
1.70946
1.70645
1.70357
1.70082
1.69821
1.69573
1.69339
1.6912
1.68914
1.68724
1.68549
1.68389
1.68244
1.68115
1.68002
1.67905
1.67823
1.67758
1.67709
1.67677
1.6766
1.6766
1.67677
1.67709
1.67758
1.67823
1.67905
1.68002
1.68115
1.68244
1.68389
1.68549
1.68724
1.68914
1.69119
1.69339
1.69573
1.69821
1.70082
1.70357
1.70645
1.70946
1.71258
1.71583
1.7192
1.72267
1.72625
1.72994
1.73372
1.7376
1.74157
1.74562
1.74975
1.75396
1.75824
1.76259
1.767
1.77146
1.77598
1.78054
1.78514
1.78978
1.79445
1.79914
1.80386
1.80859
1.81333
1.81808
1.82283
1.82758
1.83232
1.83704
1.84175
1.84643
1.85109
1.85572
1.86031
1.86486
1.86936
1.87381
1.87821
1.88256
1.88684
1.89106
1.8952
1.89928
1.90328
1.9072
1.91103
1.91478
1.91844
1.92201
1.92548
1.92885
1.93212
1.93529
1.93835
1.9413
1.94414
1.94687
1.94948
1.95198
1.95435
1.9566
1.95873
1.96073
1.96261
1.96436
1.96598
1.96747
1.96883
1.97006
1.97115
1.97211
1.97293
1.97362
1.97417
1.97459
1.97486
1.975
1.97501
1.97689
1.97687
1.97674
1.97645
1.97603
1.97548
1.97478
1.97395
1.97298
1.97188
1.97064
1.96927
1.96776
1.96612
1.96435
1.96246
1.96043
1.95828
1.956
1.9536
1.95108
1.94844
1.94569
1.94281
1.93983
1.93673
1.93353
1.93022
1.92681
1.9233
1.91969
1.91599
1.91219
1.90831
1.90434
1.9003
1.89617
1.89197
1.8877
1.88337
1.87897
1.87451
1.87
1.86543
1.86082
1.85617
1.85149
1.84677
1.84202
1.83724
1.83245
1.82765
1.82283
1.81801
1.81319
1.80838
1.80358
1.79879
1.79402
1.78928
1.78458
1.7799
1.77527
1.77068
1.76615
1.76167
1.75726
1.75291
1.74863
1.74443
1.74031
1.73627
1.73233
1.72848
1.72473
1.72109
1.71756
1.71413
1.71083
1.70765
1.70459
1.70166
1.69886
1.6962
1.69368
1.6913
1.68906
1.68697
1.68504
1.68325
1.68162
1.68015
1.67884
1.67768
1.67669
1.67586
1.6752
1.6747
1.67437
1.6742
1.6742
1.67437
1.6747
1.6752
1.67586
1.67669
1.67768
1.67883
1.68015
1.68162
1.68325
1.68503
1.68697
1.68906
1.6913
1.69368
1.6962
1.69886
1.70166
1.70459
1.70765
1.71083
1.71413
1.71756
1.72109
1.72473
1.72848
1.73233
1.73627
1.74031
1.74443
1.74863
1.75291
1.75726
1.76167
1.76615
1.77068
1.77527
1.7799
1.78457
1.78928
1.79402
1.79879
1.80358
1.80838
1.81319
1.81801
1.82283
1.82764
1.83245
1.83724
1.84201
1.84676
1.85148
1.85617
1.86082
1.86543
1.86999
1.87451
1.87896
1.88336
1.8877
1.89197
1.89617
1.9003
1.90434
1.90831
1.91219
1.91599
1.91969
1.9233
1.92681
1.93022
1.93353
1.93673
1.93983
1.94281
1.94569
1.94844
1.95108
1.9536
1.956
1.95828
1.96043
1.96246
1.96435
1.96612
1.96776
1.96927
1.97064
1.97188
1.97298
1.97395
1.97478
1.97548
1.97604
1.97646
1.97674
1.97688
1.97689
1.97889
1.97888
1.97874
1.97846
1.97803
1.97747
1.97676
1.97592
1.97494
1.97383
1.97258
1.97119
1.96966
1.96801
1.96622
1.9643
1.96225
1.96008
1.95778
1.95535
1.9528
1.95013
1.94734
1.94443
1.94141
1.93828
1.93504
1.93169
1.92824
1.92468
1.92103
1.91728
1.91344
1.9095
1.90549
1.90139
1.89721
1.89295
1.88863
1.88423
1.87977
1.87525
1.87068
1.86605
1.86138
1.85666
1.85191
1.84712
1.8423
1.83746
1.83259
1.82772
1.82283
1.81794
1.81304
1.80816
1.80328
1.79842
1.79357
1.78876
1.78397
1.77922
1.77451
1.76985
1.76524
1.76069
1.7562
1.75177
1.74742
1.74315
1.73896
1.73485
1.73084
1.72692
1.7231
1.7194
1.7158
1.71231
1.70895
1.7057
1.70259
1.6996
1.69675
1.69404
1.69147
1.68905
1.68677
1.68464
1.68267
1.68085
1.67919
1.67768
1.67635
1.67517
1.67416
1.67332
1.67264
1.67213
1.67179
1.67162
1.67162
1.67179
1.67213
1.67264
1.67332
1.67416
1.67517
1.67635
1.67768
1.67919
1.68085
1.68267
1.68464
1.68677
1.68905
1.69147
1.69404
1.69675
1.6996
1.70259
1.7057
1.70895
1.71231
1.7158
1.71939
1.7231
1.72692
1.73084
1.73485
1.73895
1.74315
1.74742
1.75177
1.7562
1.76069
1.76524
1.76985
1.77451
1.77922
1.78397
1.78876
1.79357
1.79841
1.80328
1.80815
1.81304
1.81793
1.82283
1.82771
1.83259
1.83746
1.8423
1.84712
1.85191
1.85666
1.86138
1.86605
1.87068
1.87525
1.87977
1.88423
1.88862
1.89295
1.89721
1.90138
1.90549
1.9095
1.91343
1.91728
1.92103
1.92468
1.92823
1.93169
1.93504
1.93828
1.94141
1.94443
1.94734
1.95013
1.9528
1.95535
1.95778
1.96008
1.96225
1.9643
1.96622
1.96801
1.96967
1.97119
1.97258
1.97383
1.97495
1.97592
1.97677
1.97747
1.97803
1.97846
1.97874
1.97888
1.9789
1.98103
1.98102
1.98088
1.98059
1.98016
1.97959
1.97888
1.97803
1.97704
1.97591
1.97464
1.97324
1.9717
1.97002
1.96821
1.96627
1.9642
1.962
1.95967
1.95721
1.95463
1.95193
1.9491
1.94616
1.9431
1.93993
1.93665
1.93326
1.92976
1.92616
1.92246
1.91866
1.91476
1.91078
1.90671
1.90255
1.89831
1.894
1.88961
1.88516
1.88064
1.87605
1.87141
1.86672
1.86197
1.85719
1.85236
1.8475
1.84261
1.83769
1.83275
1.8278
1.82283
1.81786
1.81289
1.80792
1.80296
1.79802
1.79309
1.7882
1.78333
1.7785
1.77371
1.76896
1.76427
1.75964
1.75507
1.75056
1.74613
1.74178
1.73751
1.73333
1.72924
1.72525
1.72136
1.71758
1.71391
1.71036
1.70693
1.70363
1.70045
1.69741
1.6945
1.69174
1.68911