/*--------------------------------*- C++ -*----------------------------------*\
| =========                 |                                                 |
| \\      /  F ield         | OpenFOAM: The Open Source CFD Toolbox           |
|  \\    /   O peration     | Version:  2412                                  |
|   \\  /    A nd           | Website:  www.openfoam.com                      |
|    \\/     M anipulation  |                                                 |
\*---------------------------------------------------------------------------*/
FoamFile
{
    version     2.0;
    format      ascii;
    arch        "LSB;label=32;scalar=64";
    class       surfaceScalarField;
    location    "1.15";
    object      phi;
}
// * * * * * * * * * * * * * * * * * * * * * * * * * * * * * * * * * * * * * //

dimensions      [0 3 -1 0 0 0 0];

oriented        oriented;

internalField   nonuniform List<scalar> 
79600
(
2.20796e-11
-2.20312e-11
5.39017e-11
-3.18225e-11
8.90061e-11
-3.5111e-11
1.25564e-10
-3.65597e-11
1.62761e-10
-3.71867e-11
2.0011e-10
-3.73395e-11
2.37349e-10
-3.72407e-11
2.74382e-10
-3.70392e-11
3.11166e-10
-3.67883e-11
3.47685e-10
-3.65174e-11
3.83921e-10
-3.6233e-11
4.19854e-10
-3.59314e-11
4.55464e-10
-3.56104e-11
4.90731e-10
-3.5268e-11
5.25633e-10
-3.4903e-11
5.60148e-10
-3.45144e-11
5.9425e-10
-3.41013e-11
6.27913e-10
-3.36631e-11
6.61113e-10
-3.31992e-11
6.93824e-10
-3.27091e-11
7.26017e-10
-3.21922e-11
7.57667e-10
-3.16483e-11
7.88746e-10
-3.10772e-11
8.19225e-10
-3.04786e-11
8.49079e-10
-2.98526e-11
8.78278e-10
-2.9199e-11
9.06797e-10
-2.85177e-11
9.34606e-10
-2.78088e-11
9.61679e-10
-2.70723e-11
9.87987e-10
-2.63083e-11
1.0135e-09
-2.55166e-11
1.0382e-09
-2.46972e-11
1.06205e-09
-2.38502e-11
1.08503e-09
-2.29755e-11
1.1071e-09
-2.20733e-11
1.12825e-09
-2.11438e-11
1.14843e-09
-2.01873e-11
1.16764e-09
-1.92041e-11
1.18583e-09
-1.81943e-11
1.20299e-09
-1.7158e-11
1.21908e-09
-1.60957e-11
1.23409e-09
-1.50077e-11
1.24799e-09
-1.38946e-11
1.26074e-09
-1.2757e-11
1.27234e-09
-1.15955e-11
1.28275e-09
-1.04108e-11
1.29195e-09
-9.20368e-12
1.29992e-09
-7.975e-12
1.30665e-09
-6.7258e-12
1.31211e-09
-5.45706e-12
1.31628e-09
-4.16955e-12
1.31914e-09
-2.86368e-12
1.32068e-09
-1.539e-12
1.32088e-09
-1.96507e-13
1.31971e-09
1.16865e-12
1.31717e-09
2.53611e-12
1.31326e-09
3.91111e-12
1.30796e-09
5.29315e-12
1.30128e-09
6.68211e-12
1.29321e-09
8.07691e-12
1.28373e-09
9.47609e-12
1.27285e-09
1.08779e-11
1.26057e-09
1.22805e-11
1.24689e-09
1.36821e-11
1.23181e-09
1.50807e-11
1.21533e-09
1.64744e-11
1.19747e-09
1.78611e-11
1.17823e-09
1.92385e-11
1.15763e-09
2.06045e-11
1.13567e-09
2.19568e-11
1.11238e-09
2.32936e-11
1.08776e-09
2.46128e-11
1.06185e-09
2.59123e-11
1.03466e-09
2.71899e-11
1.00622e-09
2.84433e-11
9.76549e-10
2.96703e-11
9.4568e-10
3.08686e-11
9.13644e-10
3.20362e-11
8.80472e-10
3.31712e-11
8.46201e-10
3.42714e-11
8.10867e-10
3.53348e-11
7.74508e-10
3.63592e-11
7.37167e-10
3.73423e-11
6.98885e-10
3.82822e-11
6.59708e-10
3.9177e-11
6.19684e-10
4.0025e-11
5.78859e-10
4.08244e-11
5.37286e-10
4.15739e-11
4.95014e-10
4.22717e-11
4.52098e-10
4.29166e-11
4.08592e-10
4.35071e-11
3.64551e-10
4.4042e-11
3.20031e-10
4.45201e-11
2.7509e-10
4.49404e-11
2.29787e-10
4.53021e-11
1.84182e-10
4.56047e-11
1.38334e-10
4.58476e-11
9.23039e-11
4.60301e-11
4.61531e-11
4.61516e-11
-5.67457e-14
4.62109e-11
-4.62667e-11
4.6211e-11
-9.24182e-11
4.61519e-11
-1.38449e-10
4.60305e-11
-1.84298e-10
4.58478e-11
-2.29904e-10
4.56045e-11
-2.75207e-10
4.53015e-11
-3.20148e-10
4.49395e-11
-3.64667e-10
4.45192e-11
-4.08708e-10
4.40413e-11
-4.52215e-10
4.3507e-11
-4.95131e-10
4.29172e-11
-5.37403e-10
4.22727e-11
-5.78978e-10
4.1575e-11
-6.19804e-10
4.08257e-11
-6.5983e-10
4.00261e-11
-6.99008e-10
3.9178e-11
-7.37291e-10
3.82834e-11
-7.74634e-10
3.73441e-11
-8.10994e-10
3.63614e-11
-8.46331e-10
3.53375e-11
-8.80605e-10
3.42748e-11
-9.13779e-10
3.3175e-11
-9.45819e-10
3.20397e-11
-9.76693e-10
3.0872e-11
-1.00637e-09
2.96737e-11
-1.03481e-09
2.8447e-11
-1.06201e-09
2.71944e-11
-1.08792e-09
2.59171e-11
-1.11254e-09
2.46176e-11
-1.13584e-09
2.32987e-11
-1.15781e-09
2.19621e-11
-1.17842e-09
2.06096e-11
-1.19766e-09
1.92437e-11
-1.21553e-09
1.78674e-11
-1.23201e-09
1.64822e-11
-1.2471e-09
1.50895e-11
-1.26079e-09
1.36918e-11
-1.27308e-09
1.22914e-11
-1.28397e-09
1.08897e-11
-1.29346e-09
9.48857e-12
-1.30155e-09
8.08956e-12
-1.30824e-09
6.6941e-12
-1.31355e-09
5.30462e-12
-1.31747e-09
3.92151e-12
-1.32001e-09
2.5447e-12
-1.32119e-09
1.17589e-12
-1.32099e-09
-1.90153e-13
-1.31946e-09
-1.53297e-12
-1.3166e-09
-2.85714e-12
-1.31244e-09
-4.1621e-12
-1.30699e-09
-5.44806e-12
-1.30028e-09
-6.71401e-12
-1.29232e-09
-7.96025e-12
-1.28313e-09
-9.18645e-12
-1.27274e-09
-1.03915e-11
-1.26116e-09
-1.15746e-11
-1.24843e-09
-1.27351e-11
-1.23456e-09
-1.38728e-11
-1.21957e-09
-1.49865e-11
-1.20349e-09
-1.60752e-11
-1.18636e-09
-1.71385e-11
-1.16818e-09
-1.81754e-11
-1.149e-09
-1.91856e-11
-1.12883e-09
-2.01685e-11
-1.1077e-09
-2.11237e-11
-1.08565e-09
-2.20512e-11
-1.0627e-09
-2.29515e-11
-1.03888e-09
-2.38252e-11
-1.01421e-09
-2.46712e-11
-9.88716e-10
-2.54898e-11
-9.62436e-10
-2.62811e-11
-9.35389e-10
-2.70448e-11
-9.07608e-10
-2.77799e-11
-8.79122e-10
-2.84858e-11
-8.4996e-10
-2.91626e-11
-8.20152e-10
-2.98098e-11
-7.89723e-10
-3.0429e-11
-7.58703e-10
-3.10218e-11
-7.27111e-10
-3.15879e-11
-6.94982e-10
-3.2128e-11
-6.62337e-10
-3.26427e-11
-6.29208e-10
-3.31305e-11
-5.9562e-10
-3.35888e-11
-5.61602e-10
-3.40181e-11
-5.27184e-10
-3.44182e-11
-4.9239e-10
-3.47904e-11
-4.57254e-10
-3.51373e-11
-4.21794e-10
-3.54593e-11
-3.86037e-10
-3.57564e-11
-3.50009e-10
-3.60282e-11
-3.13733e-10
-3.62738e-11
-2.77242e-10
-3.64916e-11
-2.40561e-10
-3.66813e-11
-2.03719e-10
-3.68415e-11
-1.66749e-10
-3.69696e-11
-1.29693e-10
-3.70554e-11
-9.26499e-11
-3.70442e-11
-5.60236e-11
-3.66255e-11
-2.19912e-11
-3.40343e-11
-2.19894e-11
3.61243e-11
-5.81558e-11
8.82692e-11
-8.39573e-11
1.42381e-10
-8.92195e-11
1.96974e-10
-9.11676e-11
2.51916e-10
-9.21398e-11
3.07016e-10
-9.24362e-11
3.62105e-10
-9.23211e-11
4.17051e-10
-9.19809e-11
4.71768e-10
-9.15066e-11
5.2619e-10
-9.09425e-11
5.80264e-10
-9.03081e-11
6.33943e-10
-8.96097e-11
6.87184e-10
-8.88499e-11
7.39945e-10
-8.80286e-11
7.92186e-10
-8.71446e-11
8.43869e-10
-8.6197e-11
8.94953e-10
-8.51848e-11
9.45399e-10
-8.41078e-11
9.95168e-10
-8.29653e-11
1.04422e-09
-8.17565e-11
1.09251e-09
-8.04806e-11
1.14e-09
-7.91369e-11
1.18665e-09
-7.77249e-11
1.23242e-09
-7.62443e-11
1.27726e-09
-7.46949e-11
1.32114e-09
-7.30765e-11
1.36401e-09
-7.13888e-11
1.40583e-09
-6.96317e-11
1.44657e-09
-6.78052e-11
1.48617e-09
-6.59091e-11
1.52459e-09
-6.39435e-11
1.56181e-09
-6.19083e-11
1.59776e-09
-5.98037e-11
1.63242e-09
-5.76298e-11
1.66573e-09
-5.53868e-11
1.69766e-09
-5.30752e-11
1.72817e-09
-5.06953e-11
1.75721e-09
-4.82478e-11
1.78475e-09
-4.5733e-11
1.81074e-09
-4.31518e-11
1.83515e-09
-4.05049e-11
1.85794e-09
-3.77935e-11
1.87906e-09
-3.50187e-11
1.89848e-09
-3.21819e-11
1.91617e-09
-2.92846e-11
1.93209e-09
-2.63284e-11
1.9462e-09
-2.33153e-11
1.95847e-09
-2.02475e-11
1.96887e-09
-1.71273e-11
1.97737e-09
-1.3957e-11
1.98394e-09
-1.07389e-11
1.98855e-09
-7.47537e-12
1.99118e-09
-4.16882e-12
1.99181e-09
-8.21986e-13
1.99041e-09
2.56336e-12
1.98697e-09
5.97801e-12
1.98146e-09
9.41948e-12
1.97387e-09
1.28847e-11
1.96418e-09
1.63705e-11
1.95238e-09
1.98731e-11
1.93847e-09
2.33883e-11
1.92244e-09
2.69119e-11
1.90428e-09
3.04395e-11
1.88399e-09
3.39664e-11
1.86159e-09
3.74877e-11
1.83706e-09
4.09983e-11
1.81043e-09
4.44929e-11
1.7817e-09
4.7966e-11
1.75089e-09
5.14123e-11
1.71802e-09
5.48266e-11
1.68311e-09
5.82035e-11
1.64619e-09
6.15377e-11
1.60728e-09
6.48235e-11
1.56641e-09
6.80552e-11
1.52363e-09
7.1227e-11
1.47896e-09
7.43333e-11
1.43246e-09
7.73687e-11
1.38417e-09
8.03279e-11
1.33414e-09
8.32054e-11
1.28241e-09
8.59958e-11
1.22906e-09
8.86934e-11
1.17413e-09
9.12927e-11
1.11768e-09
9.37883e-11
1.05979e-09
9.61752e-11
1.00052e-09
9.84486e-11
9.39939e-10
1.00604e-10
8.78126e-10
1.02637e-10
8.15157e-10
1.04544e-10
7.5111e-10
1.0632e-10
6.86066e-10
1.07961e-10
6.20109e-10
1.09464e-10
5.53325e-10
1.10826e-10
4.858e-10
1.12045e-10
4.17623e-10
1.13116e-10
3.48885e-10
1.14039e-10
2.79679e-10
1.14811e-10
2.10096e-10
1.15431e-10
1.4023e-10
1.15897e-10
7.01753e-11
1.16208e-10
2.57907e-14
1.16361e-10
-7.0124e-11
1.16361e-10
-1.4018e-10
1.16207e-10
-2.10047e-10
1.15896e-10
-2.79631e-10
1.1543e-10
-3.48838e-10
1.1481e-10
-4.17576e-10
1.14038e-10
-4.85753e-10
1.13116e-10
-5.53278e-10
1.12045e-10
-6.20062e-10
1.10827e-10
-6.8602e-10
1.09465e-10
-7.51064e-10
1.07963e-10
-8.15112e-10
1.06321e-10
-8.78083e-10
1.04546e-10
-9.39897e-10
1.02639e-10
-1.00048e-09
1.00607e-10
-1.05975e-09
9.84515e-11
-1.11764e-09
9.61782e-11
-1.17409e-09
9.37918e-11
-1.22902e-09
9.12969e-11
-1.28238e-09
8.8698e-11
-1.33411e-09
8.6001e-11
-1.38415e-09
8.32115e-11
-1.43244e-09
8.03342e-11
-1.47894e-09
7.73753e-11
-1.52361e-09
7.43403e-11
-1.5664e-09
7.12341e-11
-1.60727e-09
6.80628e-11
-1.64618e-09
6.48318e-11
-1.68311e-09
6.15463e-11
-1.71803e-09
5.82125e-11
-1.7509e-09
5.48363e-11
-1.78172e-09
5.14227e-11
-1.81045e-09
4.79769e-11
-1.83709e-09
4.4505e-11
-1.86162e-09
4.10125e-11
-1.88403e-09
3.75038e-11
-1.90432e-09
3.39839e-11
-1.92249e-09
3.04587e-11
-1.93853e-09
2.69326e-11
-1.95245e-09
2.34098e-11
-1.96426e-09
1.98952e-11
-1.97395e-09
1.63921e-11
-1.98155e-09
1.29052e-11
-1.98707e-09
9.43871e-12
-1.99052e-09
5.99506e-12
-1.99192e-09
2.57822e-12
-1.9913e-09
-8.08153e-13
-1.98868e-09
-4.15555e-12
-1.98407e-09
-7.46132e-12
-1.97751e-09
-1.07228e-11
-1.96902e-09
-1.39383e-11
-1.95863e-09
-1.71053e-11
-1.94637e-09
-2.02214e-11
-1.93227e-09
-2.32851e-11
-1.91636e-09
-2.62949e-11
-1.89869e-09
-2.92489e-11
-1.87928e-09
-3.2145e-11
-1.85817e-09
-3.49813e-11
-1.8354e-09
-3.77568e-11
-1.81101e-09
-4.04693e-11
-1.78503e-09
-4.31173e-11
-1.7575e-09
-4.56992e-11
-1.72848e-09
-4.8214e-11
-1.69798e-09
-5.06611e-11
-1.66607e-09
-5.30392e-11
-1.63277e-09
-5.53491e-11
-1.59813e-09
-5.75899e-11
-1.5622e-09
-5.97619e-11
-1.525e-09
-6.18643e-11
-1.48659e-09
-6.3898e-11
-1.44701e-09
-6.58627e-11
-1.4063e-09
-6.77571e-11
-1.3645e-09
-6.95817e-11
-1.32165e-09
-7.13354e-11
-1.27779e-09
-7.30161e-11
-1.23298e-09
-7.46253e-11
-1.18724e-09
-7.6164e-11
-1.14063e-09
-7.76361e-11
-1.09317e-09
-7.90404e-11
-1.04492e-09
-8.03807e-11
-9.95906e-10
-8.16536e-11
-9.4618e-10
-8.2858e-11
-8.95775e-10
-8.39928e-11
-8.44735e-10
-8.5057e-11
-7.93099e-10
-8.60517e-11
-7.40907e-10
-8.69795e-11
-6.88202e-10
-8.78433e-11
-6.35018e-10
-8.86428e-11
-5.81394e-10
-8.93784e-11
-5.27372e-10
-9.00506e-11
-4.72986e-10
-9.06574e-11
-4.18281e-10
-9.11972e-11
-3.63292e-10
-9.16705e-11
-3.08057e-10
-9.20762e-11
-2.52615e-10
-9.24134e-11
-1.96998e-10
-9.26704e-11
-1.41284e-10
-9.27589e-11
-8.59126e-11
-9.19946e-11
-3.38123e-11
-8.61339e-11
-5.57989e-11
3.78157e-11
-9.59781e-11
9.45043e-11
-1.40643e-10
1.53278e-10
-1.47978e-10
2.11862e-10
-1.49746e-10
2.70279e-10
-1.50563e-10
3.28617e-10
-1.50781e-10
3.86875e-10
-1.50579e-10
4.44983e-10
-1.50085e-10
5.02869e-10
-1.4939e-10
5.6047e-10
-1.48542e-10
6.17726e-10
-1.47566e-10
6.74587e-10
-1.46471e-10
7.31002e-10
-1.45266e-10
7.86926e-10
-1.43952e-10
8.42312e-10
-1.4253e-10
8.97117e-10
-1.41001e-10
9.51297e-10
-1.39364e-10
1.00481e-09
-1.37619e-10
1.05761e-09
-1.35765e-10
1.10966e-09
-1.33801e-10
1.16091e-09
-1.31727e-10
1.21131e-09
-1.29542e-10
1.26083e-09
-1.27244e-10
1.30942e-09
-1.24834e-10
1.35704e-09
-1.22312e-10
1.40364e-09
-1.19676e-10
1.44918e-09
-1.16927e-10
1.49361e-09
-1.14063e-10
1.53689e-09
-1.11086e-10
1.57898e-09
-1.07994e-10
1.61982e-09
-1.04788e-10
1.65938e-09
-1.01468e-10
1.69761e-09
-9.80339e-11
1.73447e-09
-9.44858e-11
1.76991e-09
-9.08243e-11
1.80388e-09
-8.70499e-11
1.83635e-09
-8.31633e-11
1.86727e-09
-7.91652e-11
1.89659e-09
-7.50568e-11
1.92427e-09
-7.08392e-11
1.95028e-09
-6.65139e-11
1.97457e-09
-6.20826e-11
1.9971e-09
-5.7547e-11
2.01782e-09
-5.29095e-11
2.03671e-09
-4.81724e-11
2.05372e-09
-4.33384e-11
2.06882e-09
-3.84106e-11
2.08196e-09
-3.33924e-11
2.09312e-09
-2.82874e-11
2.10226e-09
-2.30995e-11
2.10936e-09
-1.78326e-11
2.11437e-09
-1.24911e-11
2.11728e-09
-7.07994e-12
2.11807e-09
-1.60495e-12
2.1167e-09
3.92965e-12
2.11316e-09
9.51888e-12
2.10742e-09
1.51569e-11
2.09947e-09
2.08373e-11
2.08928e-09
2.65535e-11
2.07686e-09
3.22988e-11
2.06218e-09
3.80664e-11
2.04524e-09
4.38492e-11
2.02605e-09
4.96397e-11
2.00458e-09
5.54303e-11
1.98086e-09
6.12128e-11
1.95488e-09
6.69789e-11
1.92665e-09
7.272e-11
1.89619e-09
7.84274e-11
1.86351e-09
8.40925e-11
1.82862e-09
8.97064e-11
1.79157e-09
9.52603e-11
1.75236e-09
1.00745e-10
1.71103e-09
1.06151e-10
1.66762e-09
1.11469e-10
1.62215e-09
1.1669e-10
1.57468e-09
1.21804e-10
1.52525e-09
1.26802e-10
1.4739e-09
1.31676e-10
1.42069e-09
1.36416e-10
1.36568e-09
1.41013e-10
1.30892e-09
1.45457e-10
1.25047e-09
1.4974e-10
1.19041e-09
1.53852e-10
1.1288e-09
1.57787e-10
1.06571e-09
1.61535e-10
1.00122e-09
1.6509e-10
9.35417e-10
1.68443e-10
8.68372e-10
1.71589e-10
8.00173e-10
1.74519e-10
7.30907e-10
1.77227e-10
6.60663e-10
1.79709e-10
5.89532e-10
1.81957e-10
5.17607e-10
1.83969e-10
4.44985e-10
1.85739e-10
3.71761e-10
1.87263e-10
2.98034e-10
1.88538e-10
2.23903e-10
1.89562e-10
1.49469e-10
1.90331e-10
7.48319e-11
1.90845e-10
9.21209e-14
1.91101e-10
-7.46479e-11
1.911e-10
-1.49286e-10
1.90843e-10
-2.23721e-10
1.9033e-10
-2.97852e-10
1.8956e-10
-3.7158e-10
1.88538e-10
-4.44804e-10
1.87263e-10
-5.17426e-10
1.85739e-10
-5.89351e-10
1.8397e-10
-6.60482e-10
1.81959e-10
-7.30727e-10
1.79711e-10
-7.99994e-10
1.7723e-10
-8.68193e-10
1.74521e-10
-9.35239e-10
1.71592e-10
-1.00105e-09
1.68447e-10
-1.06553e-09
1.65094e-10
-1.12862e-09
1.6154e-10
-1.19023e-09
1.57791e-10
-1.2503e-09
1.53857e-10
-1.30874e-09
1.49744e-10
-1.3655e-09
1.45462e-10
-1.42052e-09
1.41018e-10
-1.47373e-09
1.36422e-10
-1.52508e-09
1.31683e-10
-1.57452e-09
1.2681e-10
-1.62199e-09
1.21812e-10
-1.66746e-09
1.16699e-10
-1.71087e-09
1.11478e-10
-1.7522e-09
1.06161e-10
-1.79141e-09
1.00756e-10
-1.82847e-09
9.52721e-11
-1.86336e-09
8.97188e-11
-1.89604e-09
8.41058e-11
-1.92651e-09
7.84416e-11
-1.95474e-09
7.2735e-11
-1.98072e-09
6.69955e-11
-2.00445e-09
6.12314e-11
-2.02591e-09
5.54507e-11
-2.04511e-09
4.9662e-11
-2.06205e-09
4.3873e-11
-2.07673e-09
3.80909e-11
-2.08916e-09
3.23238e-11
-2.09935e-09
2.65784e-11
-2.1073e-09
2.08611e-11
-2.11304e-09
1.51797e-11
-2.11659e-09
9.54039e-12
-2.11796e-09
3.94977e-12
-2.11718e-09
-1.58568e-12
-2.11427e-09
-7.06099e-12
-2.10926e-09
-1.24717e-11
-2.10217e-09
-1.78112e-11
-2.09304e-09
-2.30755e-11
-2.08188e-09
-2.82605e-11
-2.06874e-09
-3.33618e-11
-2.05365e-09
-3.83761e-11
-2.03665e-09
-4.33006e-11
-2.01776e-09
-4.81325e-11
-1.99704e-09
-5.28686e-11
-1.97451e-09
-5.75056e-11
-1.95023e-09
-6.20414e-11
-1.92423e-09
-6.64732e-11
-1.89654e-09
-7.07989e-11
-1.86723e-09
-7.5017e-11
-1.83631e-09
-7.91252e-11
-1.80385e-09
-8.31226e-11
-1.76988e-09
-8.70077e-11
-1.73445e-09
-9.0781e-11
-1.6976e-09
-9.44408e-11
-1.65938e-09
-9.79865e-11
-1.61982e-09
-1.01419e-10
-1.57898e-09
-1.04737e-10
-1.5369e-09
-1.07941e-10
-1.49363e-09
-1.11031e-10
-1.4492e-09
-1.14007e-10
-1.40367e-09
-1.16866e-10
-1.35708e-09
-1.19609e-10
-1.30946e-09
-1.22237e-10
-1.26087e-09
-1.2475e-10
-1.21136e-09
-1.27152e-10
-1.16095e-09
-1.29444e-10
-1.1097e-09
-1.31627e-10
-1.05766e-09
-1.33698e-10
-1.00486e-09
-1.35657e-10
-9.51343e-10
-1.37505e-10
-8.97156e-10
-1.39241e-10
-8.42339e-10
-1.40867e-10
-7.86934e-10
-1.42385e-10
-7.30984e-10
-1.43795e-10
-6.74527e-10
-1.45098e-10
-6.17608e-10
-1.46296e-10
-5.60269e-10
-1.47389e-10
-5.02548e-10
-1.48376e-10
-4.44491e-10
-1.49257e-10
-3.8613e-10
-1.50031e-10
-3.27507e-10
-1.50698e-10
-2.68661e-10
-1.5126e-10
-2.0963e-10
-1.51701e-10
-1.50498e-10
-1.51891e-10
-9.17371e-11
-1.50758e-10
-3.63698e-11
-1.415e-10
-9.21694e-11
3.72441e-11
-1.33225e-10
9.42365e-11
-1.97649e-10
1.54163e-10
-2.07899e-10
2.13891e-10
-2.09464e-10
2.73238e-10
-2.09907e-10
3.32342e-10
-2.09887e-10
3.91249e-10
-2.09489e-10
4.49946e-10
-2.08782e-10
5.08394e-10
-2.07837e-10
5.66543e-10
-2.0669e-10
6.24341e-10
-2.05364e-10
6.81741e-10
-2.03872e-10
7.38695e-10
-2.0222e-10
7.95156e-10
-2.00413e-10
8.51079e-10
-1.98453e-10
9.06419e-10
-1.96341e-10
9.61132e-10
-1.94077e-10
1.01517e-09
-1.91661e-10
1.0685e-09
-1.89093e-10
1.12107e-09
-1.8637e-10
1.17284e-09
-1.83493e-10
1.22376e-09
-1.80461e-10
1.27379e-09
-1.77274e-10
1.32289e-09
-1.73929e-10
1.37101e-09
-1.70428e-10
1.4181e-09
-1.66768e-10
1.46412e-09
-1.6295e-10
1.50903e-09
-1.58973e-10
1.55278e-09
-1.54837e-10
1.59533e-09
-1.50541e-10
1.63663e-09
-1.46086e-10
1.67663e-09
-1.41471e-10
1.71529e-09
-1.36697e-10
1.75257e-09
-1.31764e-10
1.78842e-09
-1.26673e-10
1.82279e-09
-1.21424e-10
1.85565e-09
-1.16018e-10
1.88694e-09
-1.10457e-10
1.91662e-09
-1.04741e-10
1.94466e-09
-9.88732e-11
1.971e-09
-9.28547e-11
1.9956e-09
-8.6688e-11
2.01843e-09
-8.03759e-11
2.03944e-09
-7.39212e-11
2.05859e-09
-6.73273e-11
2.07585e-09
-6.05978e-11
2.09118e-09
-5.37371e-11
2.10454e-09
-4.67496e-11
2.11589e-09
-3.96404e-11
2.1252e-09
-3.24147e-11
2.13245e-09
-2.50781e-11
2.13759e-09
-1.76368e-11
2.14061e-09
-1.00975e-11
2.14148e-09
-2.46802e-12
2.14016e-09
5.24566e-12
2.13664e-09
1.30367e-11
2.1309e-09
2.08969e-11
2.12292e-09
2.88177e-11
2.11268e-09
3.67899e-11
2.10018e-09
4.4804e-11
2.0854e-09
5.28504e-11
2.06833e-09
6.0919e-11
2.04897e-09
6.89993e-11
2.02732e-09
7.70806e-11
2.00338e-09
8.51514e-11
1.97716e-09
9.32004e-11
1.94866e-09
1.01216e-10
1.91791e-09
1.09185e-10
1.8849e-09
1.17097e-10
1.84967e-09
1.24939e-10
1.81223e-09
1.32697e-10
1.77261e-09
1.4036e-10
1.73085e-09
1.47914e-10
1.68697e-09
1.55345e-10
1.64102e-09
1.62642e-10
1.59303e-09
1.69791e-10
1.54306e-09
1.76779e-10
1.49114e-09
1.83592e-10
1.43734e-09
1.90219e-10
1.38171e-09
1.96646e-10
1.32431e-09
2.0286e-10
1.2652e-09
2.08849e-10
1.20445e-09
2.14601e-10
1.14213e-09
2.20105e-10
1.07832e-09
2.25349e-10
1.01309e-09
2.30322e-10
9.46518e-10
2.35014e-10
8.78691e-10
2.39416e-10
8.09693e-10
2.43516e-10
7.39613e-10
2.47307e-10
6.68541e-10
2.50781e-10
5.96569e-10
2.53929e-10
5.23793e-10
2.56745e-10
4.50309e-10
2.59223e-10
3.76215e-10
2.61357e-10
3.01611e-10
2.63143e-10
2.26596e-10
2.64576e-10
1.51274e-10
2.65653e-10
7.57455e-11
2.66372e-10
1.14079e-13
2.66732e-10
-7.55175e-11
2.66732e-10
-1.51046e-10
2.66372e-10
-2.26369e-10
2.65653e-10
-3.01383e-10
2.64576e-10
-3.75988e-10
2.63143e-10
-4.50083e-10
2.61358e-10
-5.23567e-10
2.59225e-10
-5.96344e-10
2.56747e-10
-6.68315e-10
2.53931e-10
-7.39388e-10
2.50784e-10
-8.09468e-10
2.4731e-10
-8.78466e-10
2.4352e-10
-9.46294e-10
2.3942e-10
-1.01287e-09
2.35019e-10
-1.0781e-09
2.30327e-10
-1.14191e-09
2.25354e-10
-1.20423e-09
2.20111e-10
-1.26498e-09
2.14607e-10
-1.32409e-09
2.08854e-10
-1.38149e-09
2.02865e-10
-1.43712e-09
1.96651e-10
-1.49093e-09
1.90225e-10
-1.54284e-09
1.83599e-10
-1.59282e-09
1.76786e-10
-1.64081e-09
1.69799e-10
-1.68676e-09
1.62652e-10
-1.73064e-09
1.55356e-10
-1.77241e-09
1.47925e-10
-1.81202e-09
1.40373e-10
-1.84946e-09
1.32711e-10
-1.8847e-09
1.24953e-10
-1.9177e-09
1.17112e-10
-1.94846e-09
1.09201e-10
-1.97696e-09
1.01233e-10
-2.00318e-09
9.32188e-11
-2.02712e-09
8.51716e-11
-2.04877e-09
7.71025e-11
-2.06813e-09
6.90227e-11
-2.0852e-09
6.09435e-11
-2.09998e-09
5.28754e-11
-2.11249e-09
4.48295e-11
-2.12273e-09
3.68158e-11
-2.13071e-09
2.88433e-11
-2.13645e-09
2.09219e-11
-2.13997e-09
1.30611e-11
-2.14129e-09
5.2693e-12
-2.14043e-09
-2.44499e-12
-2.13742e-09
-1.00746e-11
-2.13227e-09
-1.76135e-11
-2.12503e-09
-2.50532e-11
-2.11572e-09
-3.23873e-11
-2.10437e-09
-3.96104e-11
-2.09102e-09
-4.67168e-11
-2.07569e-09
-5.37013e-11
-2.05843e-09
-6.05594e-11
-2.03928e-09
-6.72868e-11
-2.01827e-09
-7.38796e-11
-1.99544e-09
-8.03338e-11
-1.97084e-09
-8.66456e-11
-1.9445e-09
-9.2812e-11
-1.91647e-09
-9.88303e-11
-1.88678e-09
-1.04699e-10
-1.85549e-09
-1.10414e-10
-1.82264e-09
-1.15975e-10
-1.78827e-09
-1.2138e-10
-1.75242e-09
-1.26628e-10
-1.71515e-09
-1.31717e-10
-1.67648e-09
-1.36648e-10
-1.63648e-09
-1.41421e-10
-1.59518e-09
-1.46033e-10
-1.55264e-09
-1.50487e-10
-1.50889e-09
-1.54781e-10
-1.46398e-09
-1.58915e-10
-1.41795e-09
-1.62889e-10
-1.37086e-09
-1.66702e-10
-1.32274e-09
-1.70356e-10
-1.27364e-09
-1.73851e-10
-1.2236e-09
-1.7719e-10
-1.17267e-09
-1.80374e-10
-1.12089e-09
-1.83404e-10
-1.06831e-09
-1.86278e-10
-1.01496e-09
-1.88999e-10
-9.60899e-10
-1.91565e-10
-9.06161e-10
-1.93978e-10
-8.5079e-10
-1.96239e-10
-7.94827e-10
-1.98348e-10
-7.38313e-10
-2.00307e-10
-6.81292e-10
-2.02118e-10
-6.23804e-10
-2.0378e-10
-5.65894e-10
-2.05299e-10
-5.07601e-10
-2.06669e-10
-4.48967e-10
-2.07893e-10
-3.90027e-10
-2.08971e-10
-3.30824e-10
-2.09901e-10
-2.71394e-10
-2.10687e-10
-2.11786e-10
-2.11309e-10
-1.52081e-10
-2.1159e-10
-9.27704e-11
-2.1007e-10
-3.68881e-11
-1.97375e-10
-1.29058e-10
3.69121e-11
-1.70127e-10
9.35714e-11
-2.54321e-10
1.53694e-10
-2.68028e-10
2.13884e-10
-2.6965e-10
2.73708e-10
-2.69725e-10
3.33217e-10
-2.69394e-10
3.92455e-10
-2.68729e-10
4.51435e-10
-2.67764e-10
5.10132e-10
-2.66535e-10
5.68509e-10
-2.65068e-10
6.26524e-10
-2.63379e-10
6.84134e-10
-2.61481e-10
7.41292e-10
-2.59379e-10
7.97956e-10
-2.57077e-10
8.54081e-10
-2.54578e-10
9.09623e-10
-2.51883e-10
9.64537e-10
-2.48992e-10
1.01878e-09
-2.45906e-10
1.07231e-09
-2.42622e-10
1.12509e-09
-2.39142e-10
1.17706e-09
-2.35463e-10
1.22818e-09
-2.31585e-10
1.27842e-09
-2.27507e-10
1.32772e-09
-2.23228e-10
1.37603e-09
-2.18747e-10
1.42333e-09
-2.14063e-10
1.46956e-09
-2.09176e-10
1.51467e-09
-2.04085e-10
1.55862e-09
-1.98789e-10
1.60137e-09
-1.93289e-10
1.64287e-09
-1.87584e-10
1.68307e-09
-1.81673e-10
1.72193e-09
-1.75558e-10
1.7594e-09
-1.69239e-10
1.79545e-09
-1.62715e-10
1.83001e-09
-1.55989e-10
1.86305e-09
-1.49062e-10
1.89453e-09
-1.41935e-10
1.9244e-09
-1.34609e-10
1.95261e-09
-1.27087e-10
1.97913e-09
-1.19371e-10
2.0039e-09
-1.11465e-10
2.0269e-09
-1.03372e-10
2.04807e-09
-9.50949e-11
2.06738e-09
-8.66387e-11
2.08479e-09
-7.80081e-11
2.10026e-09
-6.92081e-11
2.11376e-09
-6.02447e-11
2.12524e-09
-5.11242e-11
2.13468e-09
-4.18531e-11
2.14204e-09
-3.24386e-11
2.14729e-09
-2.28886e-11
2.15041e-09
-1.32115e-11
2.15136e-09
-3.41672e-12
2.15011e-09
6.48777e-12
2.14666e-09
1.64922e-11
2.14097e-09
2.65861e-11
2.13303e-09
3.67587e-11
2.12282e-09
4.69986e-11
2.11033e-09
5.72936e-11
2.09555e-09
6.76311e-11
2.07847e-09
7.79981e-11
2.05909e-09
8.83811e-11
2.03741e-09
9.87662e-11
2.01342e-09
1.09139e-10
1.98714e-09
1.19485e-10
1.95856e-09
1.29789e-10
1.92771e-09
1.40036e-10
1.8946e-09
1.50209e-10
1.85924e-09
1.60292e-10
1.82167e-09
1.7027e-10
1.7819e-09
1.80126e-10
1.73998e-09
1.89842e-10
1.69592e-09
1.99402e-10
1.64977e-09
2.0879e-10
1.60157e-09
2.17988e-10
1.55137e-09
2.2698e-10
1.49922e-09
2.35748e-10
1.44516e-09
2.44276e-10
1.38926e-09
2.52546e-10
1.33158e-09
2.60544e-10
1.27217e-09
2.68253e-10
1.21112e-09
2.75658e-10
1.14848e-09
2.82744e-10
1.08433e-09
2.89496e-10
1.01875e-09
2.95899e-10
9.51828e-10
3.01941e-10
8.83634e-10
3.07609e-10
8.1426e-10
3.1289e-10
7.43795e-10
3.17772e-10
6.7233e-10
3.22246e-10
5.99958e-10
3.26302e-10
5.26774e-10
3.29929e-10
4.52876e-10
3.33121e-10
3.78363e-10
3.3587e-10
3.03335e-10
3.3817e-10
2.27893e-10
3.40016e-10
1.52141e-10
3.41404e-10
7.61821e-11
3.42332e-10
1.18963e-13
3.42796e-10
-7.59444e-11
3.42796e-10
-1.51904e-10
3.42333e-10
-2.27656e-10
3.41406e-10
-3.03098e-10
3.40018e-10
-3.78126e-10
3.38172e-10
-4.5264e-10
3.35872e-10
-5.26538e-10
3.33123e-10
-5.99722e-10
3.29931e-10
-6.72095e-10
3.26304e-10
-7.4356e-10
3.2225e-10
-8.14026e-10
3.17776e-10
-8.834e-10
3.12894e-10
-9.51594e-10
3.07614e-10
-1.01852e-09
3.01947e-10
-1.0841e-09
2.95905e-10
-1.14825e-09
2.89502e-10
-1.21088e-09
2.82751e-10
-1.27194e-09
2.75665e-10
-1.33135e-09
2.6826e-10
-1.38903e-09
2.60551e-10
-1.44493e-09
2.52552e-10
-1.49899e-09
2.44281e-10
-1.55115e-09
2.35754e-10
-1.60135e-09
2.26987e-10
-1.64955e-09
2.17997e-10
-1.6957e-09
2.08801e-10
-1.73975e-09
1.99415e-10
-1.78168e-09
1.89855e-10
-1.82145e-09
1.8014e-10
-1.85903e-09
1.70285e-10
-1.89438e-09
1.60307e-10
-1.9275e-09
1.50225e-10
-1.95835e-09
1.40053e-10
-1.98692e-09
1.29808e-10
-2.01321e-09
1.19506e-10
-2.0372e-09
1.09161e-10
-2.05888e-09
9.87892e-11
-2.07826e-09
8.84048e-11
-2.09534e-09
7.80225e-11
-2.11012e-09
6.76563e-11
-2.12261e-09
5.73195e-11
-2.13282e-09
4.70254e-11
-2.14076e-09
3.67859e-11
-2.14645e-09
2.66129e-11
-2.14991e-09
1.65187e-11
-2.15115e-09
6.51382e-12
-2.15021e-09
-3.39091e-12
-2.14709e-09
-1.31856e-11
-2.14185e-09
-2.28619e-11
-2.13449e-09
-3.24106e-11
-2.12505e-09
-4.1823e-11
-2.11357e-09
-5.10919e-11
-2.10008e-09
-6.02102e-11
-2.08461e-09
-6.91715e-11
-2.0672e-09
-7.79694e-11
-2.04789e-09
-8.6598e-11
-2.02672e-09
-9.50527e-11
-2.00372e-09
-1.03329e-10
-1.97894e-09
-1.11422e-10
-1.95243e-09
-1.19327e-10
-1.92422e-09
-1.27043e-10
-1.89435e-09
-1.34565e-10
-1.86287e-09
-1.41891e-10
-1.82983e-09
-1.49018e-10
-1.79527e-09
-1.55945e-10
-1.75923e-09
-1.62669e-10
-1.72175e-09
-1.6919e-10
-1.68289e-09
-1.75509e-10
-1.64269e-09
-1.81623e-10
-1.60119e-09
-1.87532e-10
-1.55844e-09
-1.93236e-10
-1.51449e-09
-1.98735e-10
-1.46937e-09
-2.04029e-10
-1.42314e-09
-2.09116e-10
-1.37584e-09
-2.14001e-10
-1.32752e-09
-2.1868e-10
-1.27821e-09
-2.23157e-10
-1.22797e-09
-2.27433e-10
-1.17683e-09
-2.31509e-10
-1.12485e-09
-2.35387e-10
-1.07206e-09
-2.39066e-10
-1.01851e-09
-2.42547e-10
-9.64244e-10
-2.45832e-10
-9.09303e-10
-2.4892e-10
-8.53727e-10
-2.51814e-10
-7.97561e-10
-2.54514e-10
-7.40844e-10
-2.57021e-10
-6.83619e-10
-2.59341e-10
-6.25931e-10
-2.6147e-10
-5.67818e-10
-2.63411e-10
-5.09322e-10
-2.65166e-10
-4.50486e-10
-2.66732e-10
-3.91342e-10
-2.68112e-10
-3.31938e-10
-2.69307e-10
-2.72309e-10
-2.70315e-10
-2.12505e-10
-2.71116e-10
-1.52611e-10
-2.71483e-10
-9.31217e-11
-2.69563e-10
-3.70746e-11
-2.53417e-10
-1.66132e-10
3.68516e-11
-2.0697e-10
9.33667e-11
-3.10836e-10
1.53541e-10
-3.2821e-10
2.13966e-10
-3.30078e-10
2.74104e-10
-3.29862e-10
3.33928e-10
-3.29217e-10
3.93463e-10
-3.28264e-10
4.5271e-10
-3.27013e-10
5.11652e-10
-3.25478e-10
5.70259e-10
-3.23675e-10
6.28492e-10
-3.21613e-10
6.86311e-10
-3.19301e-10
7.43676e-10
-3.16744e-10
8.00543e-10
-3.13945e-10
8.5687e-10
-3.10905e-10
9.12612e-10
-3.07627e-10
9.67729e-10
-3.04109e-10
1.02217e-09
-3.00352e-10
1.07591e-09
-2.96355e-10
1.12888e-09
-2.92116e-10
1.18106e-09
-2.87636e-10
1.23239e-09
-2.82913e-10
1.28283e-09
-2.77946e-10
1.33234e-09
-2.72733e-10
1.38086e-09
-2.67274e-10
1.42837e-09
-2.61567e-10
1.4748e-09
-2.55611e-10
1.52012e-09
-2.49406e-10
1.56428e-09
-2.42951e-10
1.60724e-09
-2.36246e-10
1.64895e-09
-2.2929e-10
1.68936e-09
-2.22084e-10
1.72843e-09
-2.14627e-10
1.76611e-09
-2.0692e-10
1.80236e-09
-1.98964e-10
1.83713e-09
-1.9076e-10
1.87037e-09
-1.82309e-10
1.90205e-09
-1.73614e-10
1.93212e-09
-1.64675e-10
1.96053e-09
-1.55497e-10
1.98724e-09
-1.46081e-10
2.0122e-09
-1.36432e-10
2.03538e-09
-1.26553e-10
2.05674e-09
-1.1645e-10
2.07623e-09
-1.06127e-10
2.09381e-09
-9.55895e-11
2.10944e-09
-8.48445e-11
2.1231e-09
-7.38988e-11
2.13473e-09
-6.276e-11
2.14432e-09
-5.1436e-11
2.15181e-09
-3.99356e-11
2.15719e-09
-2.82681e-11
2.16043e-09
-1.64439e-11
2.16148e-09
-4.4741e-12
2.16034e-09
7.63116e-12
2.15697e-09
1.98596e-11
2.15136e-09
3.21985e-11
2.14348e-09
4.4635e-11
2.13333e-09
5.71548e-11
2.12088e-09
6.97433e-11
2.10613e-09
8.2385e-11
2.08906e-09
9.50639e-11
2.06968e-09
1.07764e-10
2.04798e-09
1.20467e-10
2.02396e-09
1.33158e-10
1.99763e-09
1.45816e-10
1.96899e-09
1.58425e-10
1.93807e-09
1.70964e-10
1.90486e-09
1.83415e-10
1.8694e-09
1.95757e-10
1.8317e-09
2.07971e-10
1.79179e-09
2.20036e-10
1.7497e-09
2.31931e-10
1.70546e-09
2.43638e-10
1.65912e-09
2.55133e-10
1.61071e-09
2.66397e-10
1.56028e-09
2.77409e-10
1.50788e-09
2.88148e-10
1.45356e-09
2.98593e-10
1.39738e-09
3.08724e-10
1.3394e-09
3.18523e-10
1.27969e-09
3.27968e-10
1.21831e-09
3.37041e-10
1.15533e-09
3.45723e-10
1.09083e-09
3.53997e-10
1.02488e-09
3.61844e-10
9.57575e-10
3.69249e-10
8.88989e-10
3.76195e-10
8.19212e-10
3.82667e-10
7.48332e-10
3.88653e-10
6.76441e-10
3.94137e-10
6.03636e-10
3.99108e-10
5.3001e-10
4.03555e-10
4.55663e-10
4.07468e-10
3.80695e-10
4.10838e-10
3.05207e-10
4.13658e-10
2.29302e-10
4.15922e-10
1.53082e-10
4.17624e-10
7.66538e-11
4.18761e-10
1.20222e-13
4.1933e-10
-7.64136e-11
4.19331e-10
-1.52843e-10
4.18762e-10
-2.29062e-10
4.17626e-10
-3.04968e-10
4.15924e-10
-3.80457e-10
4.1366e-10
-4.55425e-10
4.1084e-10
-5.29772e-10
4.0747e-10
-6.03398e-10
4.03558e-10
-6.76204e-10
3.99111e-10
-7.48095e-10
3.94141e-10
-8.18975e-10
3.88657e-10
-8.88753e-10
3.82672e-10
-9.5734e-10
3.762e-10
-1.02465e-09
3.69255e-10
-1.09059e-09
3.6185e-10
-1.15509e-09
3.54003e-10
-1.21807e-09
3.4573e-10
-1.27946e-09
3.37048e-10
-1.33917e-09
3.27975e-10
-1.39715e-09
3.1853e-10
-1.45333e-09
3.08732e-10
-1.50765e-09
2.986e-10
-1.56005e-09
2.88156e-10
-1.61048e-09
2.77418e-10
-1.65889e-09
2.66408e-10
-1.70523e-09
2.55145e-10
-1.74947e-09
2.43651e-10
-1.79156e-09
2.31945e-10
-1.83147e-09
2.2005e-10
-1.86918e-09
2.07986e-10
-1.90464e-09
1.95773e-10
-1.93785e-09
1.83432e-10
-1.96878e-09
1.70983e-10
-1.99741e-09
1.58445e-10
-2.02375e-09
1.45838e-10
-2.04776e-09
1.3318e-10
-2.06947e-09
1.20491e-10
-2.08885e-09
1.07788e-10
-2.10591e-09
9.5089e-11
-2.12067e-09
8.24111e-11
-2.13312e-09
6.97703e-11
-2.14327e-09
5.71827e-11
-2.15115e-09
4.46634e-11
-2.15676e-09
3.22269e-11
-2.16013e-09
1.98878e-11
-2.16128e-09
7.65923e-12
-2.16022e-09
-4.44585e-12
-2.15699e-09
-1.64153e-11
-2.15161e-09
-2.82384e-11
-2.14412e-09
-3.99046e-11
-2.13454e-09
-5.14035e-11
-2.12291e-09
-6.27258e-11
-2.10925e-09
-7.3863e-11
-2.09362e-09
-8.48068e-11
-2.07604e-09
-9.55497e-11
-2.05655e-09
-1.06085e-10
-2.0352e-09
-1.16407e-10
-2.01202e-09
-1.2651e-10
-1.98705e-09
-1.36388e-10
-1.96034e-09
-1.46037e-10
-1.93193e-09
-1.55453e-10
-1.90187e-09
-1.64631e-10
-1.87019e-09
-1.73569e-10
-1.83694e-09
-1.82264e-10
-1.80217e-09
-1.90714e-10
-1.76592e-09
-1.98917e-10
-1.72824e-09
-2.06872e-10
-1.68917e-09
-2.14578e-10
-1.64876e-09
-2.22034e-10
-1.60705e-09
-2.2924e-10
-1.5641e-09
-2.36195e-10
-1.51993e-09
-2.42898e-10
-1.47461e-09
-2.49351e-10
-1.42817e-09