/*--------------------------------*- C++ -*----------------------------------*\
| =========                 |                                                 |
| \\      /  F ield         | OpenFOAM: The Open Source CFD Toolbox           |
|  \\    /   O peration     | Version:  2412                                  |
|   \\  /    A nd           | Website:  www.openfoam.com                      |
|    \\/     M anipulation  |                                                 |
\*---------------------------------------------------------------------------*/
FoamFile
{
    version     2.0;
    format      ascii;
    arch        "LSB;label=32;scalar=64";
    class       volVectorField;
    location    "1.15";
    object      U;
}
// * * * * * * * * * * * * * * * * * * * * * * * * * * * * * * * * * * * * * //

dimensions      [0 1 -1 0 0 0 0];

internalField   nonuniform List<vector> 
40000
(
(8.97502e-06 -7.80495e-06 0)
(3.75396e-05 -9.93768e-06 0)
(7.12441e-05 -1.15825e-05 0)
(0.00010696 -1.23941e-05 0)
(0.000144057 -1.26689e-05 0)
(0.000181418 -1.2736e-05 0)
(0.000218738 -1.26833e-05 0)
(0.000255883 -1.25932e-05 0)
(0.000292796 -1.24888e-05 0)
(0.000329454 -1.23839e-05 0)
(0.000365836 -1.22798e-05 0)
(0.000401923 -1.21719e-05 0)
(0.000437699 -1.20585e-05 0)
(0.000473141 -1.19387e-05 0)
(0.00050823 -1.18117e-05 0)
(0.000542941 -1.1677e-05 0)
(0.000577253 -1.15339e-05 0)
(0.000611139 -1.13823e-05 0)
(0.000644575 -1.1222e-05 0)
(0.000677534 -1.10528e-05 0)
(0.00070999 -1.08744e-05 0)
(0.000741915 -1.06868e-05 0)
(0.000773284 -1.04899e-05 0)
(0.000804067 -1.02836e-05 0)
(0.000834237 -1.0068e-05 0)
(0.000863768 -9.84299e-06 0)
(0.000892631 -9.60865e-06 0)
(0.000920799 -9.36499e-06 0)
(0.000948244 -9.11206e-06 0)
(0.000974938 -8.84986e-06 0)
(0.00100086 -8.57841e-06 0)
(0.00102597 -8.29766e-06 0)
(0.00105024 -8.00761e-06 0)
(0.00107366 -7.70827e-06 0)
(0.00109619 -7.39974e-06 0)
(0.0011178 -7.08214e-06 0)
(0.00113847 -6.75557e-06 0)
(0.00115817 -6.42013e-06 0)
(0.00117688 -6.07587e-06 0)
(0.00119456 -5.72284e-06 0)
(0.00121119 -5.36114e-06 0)
(0.00122674 -4.99095e-06 0)
(0.0012412 -4.61249e-06 0)
(0.00125452 -4.22596e-06 0)
(0.0012667 -3.83157e-06 0)
(0.00127771 -3.42954e-06 0)
(0.00128752 -3.02015e-06 0)
(0.00129611 -2.60374e-06 0)
(0.00130347 -2.1807e-06 0)
(0.00130956 -1.75134e-06 0)
(0.00131438 -1.31586e-06 0)
(0.00131789 -8.74185e-07 0)
(0.0013201 -4.2549e-07 0)
(0.00132097 3.13667e-08 0)
(0.00132049 4.9189e-07 0)
(0.00131863 9.55319e-07 0)
(0.00131541 1.41956e-06 0)
(0.00131081 1.88501e-06 0)
(0.00130482 2.35215e-06 0)
(0.00129744 2.82084e-06 0)
(0.00128867 3.29066e-06 0)
(0.00127849 3.76104e-06 0)
(0.00126691 4.23136e-06 0)
(0.00125393 4.70102e-06 0)
(0.00123955 5.1694e-06 0)
(0.00122377 5.63584e-06 0)
(0.0012066 6.09963e-06 0)
(0.00118805 6.56001e-06 0)
(0.00116813 7.01623e-06 0)
(0.00114684 7.4676e-06 0)
(0.00112422 7.91348e-06 0)
(0.00110026 8.35327e-06 0)
(0.00107499 8.7863e-06 0)
(0.00104844 9.21188e-06 0)
(0.00102062 9.62922e-06 0)
(0.000991557 1.00376e-05 0)
(0.000961284 1.04362e-05 0)
(0.000929826 1.08246e-05 0)
(0.000897217 1.1202e-05 0)
(0.000863491 1.15678e-05 0)
(0.000828682 1.19214e-05 0)
(0.00079283 1.2262e-05 0)
(0.000755974 1.25889e-05 0)
(0.000718156 1.29015e-05 0)
(0.00067942 1.3199e-05 0)
(0.000639812 1.34809e-05 0)
(0.00059938 1.37468e-05 0)
(0.000558174 1.39961e-05 0)
(0.000516244 1.42285e-05 0)
(0.000473642 1.44433e-05 0)
(0.000430423 1.46401e-05 0)
(0.000386641 1.48186e-05 0)
(0.000342353 1.49784e-05 0)
(0.000297614 1.5119e-05 0)
(0.000252484 1.52403e-05 0)
(0.000207021 1.53422e-05 0)
(0.000161286 1.54245e-05 0)
(0.000115339 1.54869e-05 0)
(6.924e-05 1.55293e-05 0)
(2.30524e-05 1.55506e-05 0)
(-2.3166e-05 1.55507e-05 0)
(-6.9354e-05 1.55294e-05 0)
(-0.000115454 1.5487e-05 0)
(-0.000161402 1.54245e-05 0)
(-0.000207138 1.53419e-05 0)
(-0.000252601 1.52398e-05 0)
(-0.000297731 1.51182e-05 0)
(-0.000342469 1.49775e-05 0)
(-0.000386758 1.48177e-05 0)
(-0.00043054 1.46395e-05 0)
(-0.000473759 1.44429e-05 0)
(-0.000516361 1.42283e-05 0)
(-0.000558292 1.3996e-05 0)
(-0.0005995 1.37468e-05 0)
(-0.000639933 1.34808e-05 0)
(-0.000679542 1.31988e-05 0)
(-0.000718279 1.29015e-05 0)
(-0.000756099 1.25893e-05 0)
(-0.000792957 1.22627e-05 0)
(-0.000828811 1.19223e-05 0)
(-0.000863622 1.1569e-05 0)
(-0.000897352 1.12033e-05 0)
(-0.000929964 1.08256e-05 0)
(-0.000961425 1.04371e-05 0)
(-0.000991703 1.00384e-05 0)
(-0.00102077 9.63006e-06 0)
(-0.00104859 9.21299e-06 0)
(-0.00107515 8.78747e-06 0)
(-0.00110042 8.35425e-06 0)
(-0.00112438 7.91444e-06 0)
(-0.00114702 7.46854e-06 0)
(-0.00116831 7.01696e-06 0)
(-0.00118823 6.56066e-06 0)
(-0.00120679 6.10071e-06 0)
(-0.00122397 5.63757e-06 0)
(-0.00123975 5.17151e-06 0)
(-0.00125415 4.70348e-06 0)
(-0.00126714 4.23432e-06 0)
(-0.00127873 3.76437e-06 0)
(-0.00128892 3.29435e-06 0)
(-0.0012977 2.82469e-06 0)
(-0.00130509 2.35578e-06 0)
(-0.00131109 1.88854e-06 0)
(-0.0013157 1.42276e-06 0)
(-0.00131893 9.57759e-07 0)
(-0.00132079 4.93713e-07 0)
(-0.00132129 3.27008e-08 0)
(-0.00132042 -4.24497e-07 0)
(-0.00131822 -8.73123e-07 0)
(-0.00131471 -1.31458e-06 0)
(-0.0013099 -1.74958e-06 0)
(-0.00130381 -2.17779e-06 0)
(-0.00129647 -2.59959e-06 0)
(-0.0012879 -3.01497e-06 0)
(-0.0012781 -3.42346e-06 0)
(-0.00126712 -3.82481e-06 0)
(-0.00125496 -4.21878e-06 0)
(-0.00124165 -4.60542e-06 0)
(-0.00122722 -4.98418e-06 0)
(-0.00121168 -5.35475e-06 0)
(-0.00119507 -5.71702e-06 0)
(-0.00117741 -6.07054e-06 0)
(-0.00115873 -6.41522e-06 0)
(-0.00113904 -6.75076e-06 0)
(-0.00111839 -7.07699e-06 0)
(-0.0010968 -7.39391e-06 0)
(-0.0010743 -7.70175e-06 0)
(-0.0010509 -8.00085e-06 0)
(-0.00102665 -8.29054e-06 0)
(-0.00100157 -8.57113e-06 0)
(-0.000975681 -8.84266e-06 0)
(-0.000949013 -9.10512e-06 0)
(-0.000921596 -9.35789e-06 0)
(-0.000893458 -9.60072e-06 0)
(-0.000864631 -9.83353e-06 0)
(-0.000835142 -1.00559e-05 0)
(-0.000805019 -1.02688e-05 0)
(-0.00077429 -1.04729e-05 0)
(-0.00074298 -1.06681e-05 0)
(-0.000711116 -1.08546e-05 0)
(-0.000678725 -1.10329e-05 0)
(-0.000645834 -1.12024e-05 0)
(-0.000612472 -1.13616e-05 0)
(-0.000578666 -1.15106e-05 0)
(-0.000544444 -1.1649e-05 0)
(-0.000509835 -1.17774e-05 0)
(-0.000474866 -1.18973e-05 0)
(-0.000439564 -1.20088e-05 0)
(-0.000403951 -1.21121e-05 0)
(-0.000368055 -1.2207e-05 0)
(-0.0003319 -1.22929e-05 0)
(-0.000295514 -1.2369e-05 0)
(-0.000258924 -1.2435e-05 0)
(-0.000222158 -1.24903e-05 0)
(-0.000185249 -1.25331e-05 0)
(-0.000148229 -1.25573e-05 0)
(-0.000111126 -1.25426e-05 0)
(-7.40916e-05 -1.24141e-05 0)
(-3.83301e-05 -1.16717e-05 0)
(-8.33838e-06 -8.35561e-06 0)
(1.338e-05 -3.9129e-05 0)
(6.21133e-05 -5.67102e-05 0)
(0.000115336 -6.15232e-05 0)
(0.000169448 -6.36047e-05 0)
(0.000224297 -6.45785e-05 0)
(0.000279378 -6.48087e-05 0)
(0.000334516 -6.46514e-05 0)
(0.000389565 -6.43248e-05 0)
(0.000444419 -6.39133e-05 0)
(0.000499007 -6.34584e-05 0)
(0.000553268 -6.29714e-05 0)
(0.000607155 -6.2451e-05 0)
(0.000660625 -6.18956e-05 0)
(0.000713634 -6.13028e-05 0)
(0.000766143 -6.06705e-05 0)
(0.000818113 -5.99969e-05 0)
(0.000869503 -5.92805e-05 0)
(0.000920276 -5.85206e-05 0)
(0.00097039 -5.77162e-05 0)
(0.00101981 -5.68665e-05 0)
(0.00106848 -5.59707e-05 0)
(0.00111638 -5.50283e-05 0)
(0.00116346 -5.40386e-05 0)
(0.00120967 -5.30016e-05 0)
(0.00125499 -5.19169e-05 0)
(0.00129935 -5.07845e-05 0)
(0.00134274 -4.96043e-05 0)
(0.00138509 -4.83761e-05 0)
(0.00142638 -4.71e-05 0)
(0.00146655 -4.5776e-05 0)
(0.00150557 -4.4404e-05 0)
(0.0015434 -4.29839e-05 0)
(0.00157999 -4.15159e-05 0)
(0.0016153 -3.99999e-05 0)
(0.00164929 -3.84361e-05 0)
(0.00168192 -3.6825e-05 0)
(0.00171315 -3.51669e-05 0)
(0.00174293 -3.3462e-05 0)
(0.00177123 -3.17108e-05 0)
(0.001798 -2.99135e-05 0)
(0.00182321 -2.80708e-05 0)
(0.00184681 -2.61835e-05 0)
(0.00186877 -2.42523e-05 0)
(0.00188905 -2.22782e-05 0)
(0.00190762 -2.02624e-05 0)
(0.00192442 -1.82059e-05 0)
(0.00193944 -1.61102e-05 0)
(0.00195264 -1.39768e-05 0)
(0.00196398 -1.18073e-05 0)
(0.00197344 -9.6034e-06 0)
(0.00198098 -7.3666e-06 0)
(0.00198657 -5.09808e-06 0)
(0.0019902 -2.7984e-06 0)
(0.00199183 -4.67088e-07 0)
(0.00199145 1.88951e-06 0)
(0.00198904 4.26531e-06 0)
(0.00198456 6.65621e-06 0)
(0.00197801 9.06143e-06 0)
(0.00196938 1.14797e-05 0)
(0.00195864 1.39089e-05 0)
(0.00194578 1.63464e-05 0)
(0.00193081 1.87892e-05 0)
(0.00191372 2.12343e-05 0)
(0.00189449 2.36783e-05 0)
(0.00187315 2.61181e-05 0)
(0.00184968 2.855e-05 0)
(0.0018241 3.09704e-05 0)
(0.00179642 3.33754e-05 0)
(0.00176665 3.57614e-05 0)
(0.00173481 3.81246e-05 0)
(0.00170091 4.04615e-05 0)
(0.00166499 4.27684e-05 0)
(0.00162706 4.50416e-05 0)
(0.00158717 4.72772e-05 0)
(0.00154534 4.94712e-05 0)
(0.00150161 5.16196e-05 0)
(0.00145602 5.37188e-05 0)
(0.00140861 5.5765e-05 0)
(0.00135944 5.77547e-05 0)
(0.00130855 5.9684e-05 0)
(0.001256 6.15492e-05 0)
(0.00120185 6.33465e-05 0)
(0.00114615 6.50721e-05 0)
(0.00108897 6.67224e-05 0)
(0.00103038 6.82943e-05 0)
(0.000970439 6.97846e-05 0)
(0.00090923 7.11904e-05 0)
(0.000846826 7.25087e-05 0)
(0.000783304 7.37369e-05 0)
(0.000718745 7.48723e-05 0)
(0.00065323 7.59125e-05 0)
(0.000586845 7.68553e-05 0)
(0.000519675 7.76987e-05 0)
(0.00045181 7.8441e-05 0)
(0.000383337 7.90808e-05 0)
(0.00031435 7.96167e-05 0)
(0.00024494 8.00476e-05 0)
(0.0001752 8.03725e-05 0)
(0.000105224 8.059e-05 0)
(3.51089e-05 8.06989e-05 0)
(-3.50575e-05 8.06988e-05 0)
(-0.000105173 8.05897e-05 0)
(-0.00017515 8.03719e-05 0)
(-0.000244891 8.0047e-05 0)
(-0.000314302 7.9616e-05 0)
(-0.00038329 7.90801e-05 0)
(-0.000451763 7.84406e-05 0)
(-0.000519629 7.76986e-05 0)
(-0.000586798 7.68555e-05 0)
(-0.000653184 7.59133e-05 0)
(-0.000718699 7.48738e-05 0)
(-0.000783259 7.37388e-05 0)
(-0.000846782 7.25108e-05 0)
(-0.000909188 7.11927e-05 0)
(-0.000970398 6.97872e-05 0)
(-0.00103034 6.8297e-05 0)
(-0.00108893 6.67253e-05 0)
(-0.00114611 6.50755e-05 0)
(-0.00120181 6.33505e-05 0)
(-0.00125597 6.15536e-05 0)
(-0.00130852 5.96891e-05 0)
(-0.00135941 5.77604e-05 0)
(-0.00140859 5.57708e-05 0)
(-0.001456 5.37247e-05 0)
(-0.00150159 5.1626e-05 0)
(-0.00154533 4.9478e-05 0)
(-0.00158716 4.72848e-05 0)
(-0.00162706 4.505e-05 0)
(-0.00166499 4.2777e-05 0)
(-0.00170091 4.04705e-05 0)
(-0.00173481 3.81342e-05 0)
(-0.00176666 3.57715e-05 0)
(-0.00179644 3.33861e-05 0)
(-0.00182413 3.09825e-05 0)
(-0.00184971 2.85643e-05 0)
(-0.00187318 2.61341e-05 0)
(-0.00189454 2.36959e-05 0)
(-0.00191377 2.12537e-05 0)
(-0.00193087 1.881e-05 0)
(-0.00194585 1.63682e-05 0)
(-0.00195871 1.3931e-05 0)
(-0.00196946 1.1501e-05 0)
(-0.0019781 9.08151e-06 0)
(-0.00198466 6.67466e-06 0)
(-0.00198914 4.28121e-06 0)
(-0.00199156 1.90318e-06 0)
(-0.00199194 -4.54915e-07 0)
(-0.00199032 -2.78688e-06 0)
(-0.0019867 -5.0858e-06 0)
(-0.00198112 -7.35243e-06 0)
(-0.00197358 -9.58656e-06 0)
(-0.00196414 -1.17865e-05 0)
(-0.00195281 -1.39515e-05 0)
(-0.00193962 -1.60807e-05 0)
(-0.00192461 -1.8173e-05 0)
(-0.00190782 -2.02271e-05 0)
(-0.00188927 -2.22415e-05 0)
(-0.001869 -2.42153e-05 0)
(-0.00184706 -2.61472e-05 0)
(-0.00182347 -2.80356e-05 0)
(-0.00179827 -2.98795e-05 0)
(-0.00177152 -3.16775e-05 0)
(-0.00174323 -3.34288e-05 0)
(-0.00171347 -3.51328e-05 0)
(-0.00168225 -3.67888e-05 0)
(-0.00164964 -3.83973e-05 0)
(-0.00161566 -3.99582e-05 0)
(-0.00158037 -4.14719e-05 0)
(-0.0015438 -4.29378e-05 0)
(-0.00150599 -4.43563e-05 0)
(-0.00146699 -4.57275e-05 0)
(-0.00142683 -4.70502e-05 0)
(-0.00138557 -4.83239e-05 0)
(-0.00134324 -4.95476e-05 0)
(-0.00129988 -5.072e-05 0)
(-0.00125554 -5.1842e-05 0)
(-0.00121026 -5.29153e-05 0)
(-0.00116407 -5.39429e-05 0)
(-0.00111703 -5.49242e-05 0)
(-0.00106916 -5.58614e-05 0)
(-0.00102053 -5.67529e-05 0)
(-0.000971151 -5.7597e-05 0)
(-0.00092108 -5.83915e-05 0)
(-0.000870352 -5.91359e-05 0)
(-0.000819008 -5.98305e-05 0)
(-0.000767087 -6.04776e-05 0)
(-0.000714631 -6.10805e-05 0)
(-0.000661679 -6.16396e-05 0)
(-0.000608268 -6.21552e-05 0)
(-0.00055444 -6.26273e-05 0)
(-0.000500231 -6.30539e-05 0)
(-0.00044568 -6.34333e-05 0)
(-0.000390827 -6.37652e-05 0)
(-0.000335708 -6.4048e-05 0)
(-0.000280366 -6.4279e-05 0)
(-0.000224829 -6.44453e-05 0)
(-0.000169094 -6.44673e-05 0)
(-0.000113317 -6.38223e-05 0)
(-5.92395e-05 -5.94799e-05 0)
(-1.15592e-05 -3.82373e-05 0)
(1.30895e-05 -7.66615e-05 0)
(6.57186e-05 -0.000111667 0)
(0.000124043 -0.000117809 0)
(0.000182629 -0.000119773 0)
(0.00024107 -0.000120825 0)
(0.000299423 -0.000121187 0)
(0.000357728 -0.000121081 0)
(0.000415927 -0.000120695 0)
(0.000473941 -0.000120128 0)
(0.0005317 -0.000119432 0)
(0.000589141 -0.000118631 0)
(0.000646211 -0.000117738 0)
(0.00070286 -0.000116757 0)
(0.000759039 -0.000115691 0)
(0.000814702 -0.000114541 0)
(0.000869806 -0.000113304 0)
(0.000924307 -0.000111982 0)
(0.000978161 -0.000110573 0)
(0.00103133 -0.000109077 0)
(0.00108376 -0.000107494 0)
(0.00113541 -0.000105821 0)
(0.00118625 -0.00010406 0)
(0.00123622 -0.000102209 0)
(0.00128528 -0.000100267 0)
(0.00133339 -9.82352e-05 0)
(0.00138051 -9.61124e-05 0)
(0.00142659 -9.38984e-05 0)
(0.00147158 -9.15931e-05 0)
(0.00151544 -8.91962e-05 0)
(0.00155814 -8.67078e-05 0)
(0.00159961 -8.41279e-05 0)
(0.00163982 -8.14565e-05 0)
(0.00167872 -7.86936e-05 0)
(0.00171627 -7.58395e-05 0)
(0.00175243 -7.28945e-05 0)
(0.00178714 -6.9859e-05 0)
(0.00182037 -6.67336e-05 0)
(0.00185207 -6.35189e-05 0)
(0.0018822 -6.02158e-05 0)
(0.00191071 -5.68251e-05 0)
(0.00193757 -5.3348e-05 0)
(0.00196272 -4.9786e-05 0)
(0.00198614 -4.61404e-05 0)
(0.00200777 -4.24131e-05 0)
(0.00202759 -3.8606e-05 0)
(0.00204554 -3.47213e-05 0)
(0.0020616 -3.07615e-05 0)
(0.00207573 -2.67295e-05 0)
(0.00208789 -2.26282e-05 0)
(0.00209804 -1.84606e-05 0)
(0.00210617 -1.42299e-05 0)
(0.00211222 -9.93947e-06 0)
(0.00211619 -5.59301e-06 0)
(0.00211804 -1.1947e-06 0)
(0.00211776 3.25183e-06 0)
(0.00211531 7.74059e-06 0)
(0.00211067 1.2267e-05 0)
(0.00210383 1.68265e-05 0)
(0.00209476 2.14141e-05 0)
(0.00208346 2.60246e-05 0)
(0.00206991 3.06526e-05 0)
(0.00205411 3.52923e-05 0)
(0.00203604 3.99378e-05 0)
(0.00201571 4.4583e-05 0)
(0.00199311 4.92214e-05 0)
(0.00196826 5.38463e-05 0)
(0.00194115 5.84506e-05 0)
(0.00191181 6.30274e-05 0)
(0.00188023 6.75697e-05 0)
(0.00184645 7.20703e-05 0)
(0.00181047 7.65224e-05 0)
(0.00177234 8.09186e-05 0)
(0.00173206 8.52515e-05 0)
(0.00168968 8.95135e-05 0)
(0.00164524 9.36971e-05 0)
(0.00159876 9.77949e-05 0)
(0.0015503 0.0001018 0)
(0.0014999 0.000105705 0)
(0.00144762 0.000109502 0)
(0.00139349 0.000113185 0)
(0.00133759 0.000116746 0)
(0.00127998 0.000120177 0)
(0.00122071 0.000123472 0)
(0.00115986 0.000126624 0)
(0.0010975 0.000129627 0)
(0.0010337 0.000132474 0)
(0.000968539 0.000135161 0)
(0.000902099 0.00013768 0)
(0.000834462 0.000140027 0)
(0.000765714 0.000142196 0)
(0.000695943 0.000144183 0)
(0.000625239 0.000145984 0)
(0.000553695 0.000147594 0)
(0.000481405 0.000149011 0)
(0.000408465 0.000150232 0)
(0.000334973 0.000151254 0)
(0.000261027 0.000152074 0)
(0.000186727 0.000152691 0)
(0.000112174 0.000153103 0)
(3.74715e-05 0.000153308 0)
(-3.72875e-05 0.000153308 0)
(-0.000111991 0.000153101 0)
(-0.000186544 0.000152689 0)
(-0.000260845 0.000152072 0)
(-0.000334791 0.000151252 0)
(-0.000408284 0.00015023 0)
(-0.000481224 0.00014901 0)
(-0.000553515 0.000147593 0)
(-0.000625059 0.000145983 0)
(-0.000695763 0.000144182 0)
(-0.000765535 0.000142195 0)
(-0.000834283 0.000140026 0)
(-0.000901921 0.00013768 0)
(-0.000968362 0.000135161 0)
(-0.00103352 0.000132476 0)
(-0.00109732 0.00012963 0)
(-0.00115969 0.000126627 0)
(-0.00122054 0.000123476 0)
(-0.0012798 0.000120182 0)
(-0.00133742 0.000116751 0)
(-0.00139332 0.000113191 0)
(-0.00144745 0.000109509 0)
(-0.00149974 0.000105712 0)
(-0.00155014 0.000101808 0)
(-0.0015986 9.78031e-05 0)
(-0.00164508 9.37053e-05 0)
(-0.00168953 8.95218e-05 0)
(-0.00173191 8.52605e-05 0)
(-0.00177218 8.09281e-05 0)
(-0.00181032 7.65322e-05 0)
(-0.0018463 7.20806e-05 0)
(-0.00188009 6.75807e-05 0)
(-0.00191166 6.30391e-05 0)
(-0.00194101 5.84634e-05 0)
(-0.00196812 5.3861e-05 0)
(-0.00199298 4.92383e-05 0)
(-0.00201557 4.46017e-05 0)
(-0.00203591 3.99584e-05 0)
(-0.00205398 3.53146e-05 0)
(-0.00206979 3.06759e-05 0)
(-0.00208334 2.60486e-05 0)
(-0.00209464 2.14378e-05 0)
(-0.00210371 1.68491e-05 0)
(-0.00211055 1.22883e-05 0)
(-0.00211519 7.76e-06 0)
(-0.00211764 3.26936e-06 0)
(-0.00211793 -1.17838e-06 0)
(-0.00211609 -5.57734e-06 0)
(-0.00211213 -9.92329e-06 0)
(-0.00210607 -1.42117e-05 0)
(-0.00209796 -1.84397e-05 0)
(-0.0020878 -2.2604e-05 0)
(-0.00207565 -2.67011e-05 0)
(-0.00206153 -3.07287e-05 0)
(-0.00204547 -3.46846e-05 0)
(-0.00202752 -3.85667e-05 0)
(-0.00200771 -4.23721e-05 0)
(-0.00198608 -4.60984e-05 0)
(-0.00196267 -4.9744e-05 0)
(-0.00193752 -5.33066e-05 0)
(-0.00191067 -5.67842e-05 0)
(-0.00188216 -6.01753e-05 0)
(-0.00185204 -6.34784e-05 0)
(-0.00182034 -6.66925e-05 0)
(-0.00178712 -6.98165e-05 0)
(-0.00175241 -7.28509e-05 0)
(-0.00171626 -7.57942e-05 0)
(-0.00167872 -7.86463e-05 0)
(-0.00163982 -8.14071e-05 0)
(-0.00159961 -8.40768e-05 0)
(-0.00155814 -8.66554e-05 0)
(-0.00151546 -8.91419e-05 0)
(-0.0014716 -9.15365e-05 0)
(-0.00142662 -9.38381e-05 0)
(-0.00138055 -9.60449e-05 0)
(-0.00133344 -9.81592e-05 0)
(-0.00128533 -0.000100181 0)
(-0.00123626 -0.000102115 0)
(-0.00118629 -0.000103959 0)
(-0.00113546 -0.000105718 0)
(-0.00108381 -0.000107387 0)
(-0.00103138 -0.000108966 0)
(-0.000978214 -0.000110454 0)
(-0.000924356 -0.000111851 0)
(-0.000869847 -0.000113157 0)
(-0.000814728 -0.000114375 0)
(-0.000759042 -0.000115509 0)
(-0.000702831 -0.000116557 0)
(-0.000646137 -0.000117522 0)
(-0.000589002 -0.000118404 0)
(-0.000531466 -0.000119201 0)
(-0.00047357 -0.000119912 0)
(-0.000415353 -0.000120536 0)
(-0.000356855 -0.000121072 0)
(-0.000298118 -0.000121521 0)
(-0.000239172 -0.000121869 0)
(-0.000180013 -0.00012201 0)
(-0.000120828 -0.000121065 0)
(-6.3544e-05 -0.000113516 0)
(-1.22901e-05 -7.37306e-05 0)
(1.25142e-05 -0.000114859 0)
(6.5028e-05 -0.000169297 0)
(0.00012425 -0.000177839 0)
(0.000184159 -0.00017942 0)
(0.000243651 -0.000180044 0)
(0.000302831 -0.000180159 0)
(0.000361818 -0.00017987 0)
(0.000420619 -0.000179288 0)
(0.000479199 -0.000178484 0)
(0.000537507 -0.000177499 0)
(0.000595491 -0.000176356 0)
(0.000653099 -0.000175069 0)
(0.000710286 -0.000173645 0)
(0.000767002 -0.000172088 0)
(0.000823202 -0.0001704 0)
(0.000878842 -0.000168582 0)
(0.000933877 -0.000166633 0)
(0.000988263 -0.000164554 0)
(0.00104196 -0.000162344 0)
(0.00109491 -0.000160002 0)
(0.00114709 -0.000157527 0)
(0.00119844 -0.000154919 0)
(0.00124893 -0.000152178 0)
(0.0012985 -0.000149302 0)
(0.00134711 -0.00014629 0)
(0.00139472 -0.000143144 0)
(0.00144129 -0.000139861 0)
(0.00148677 -0.000136442 0)
(0.0015311 -0.000132886 0)
(0.00157426 -0.000129194 0)
(0.00161619 -0.000125365 0)
(0.00165685 -0.000121399 0)
(0.00169619 -0.000117297 0)
(0.00173417 -0.000113058 0)
(0.00177074 -0.000108683 0)
(0.00180586 -0.000104174 0)
(0.00183948 -9.95293e-05 0)
(0.00187156 -9.47516e-05 0)
(0.00190206 -8.98417e-05 0)
(0.00193092 -8.4801e-05 0)
(0.00195812 -7.96313e-05 0)
(0.0019836 -7.43345e-05 0)
(0.00200732 -6.8913e-05 0)
(0.00202925 -6.33693e-05 0)
(0.00204934 -5.77063e-05 0)
(0.00206755 -5.19272e-05 0)
(0.00208385 -4.60356e-05 0)
(0.0020982 -4.00357e-05 0)
(0.00211056 -3.39315e-05 0)
(0.0021209 -2.77278e-05 0)
(0.00212919 -2.14294e-05 0)
(0.00213539 -1.50414e-05 0)
(0.00213947 -8.56978e-06 0)
(0.00214142 -2.02119e-06 0)
(0.0021412 4.59882e-06 0)
(0.00213879 1.12847e-05 0)
(0.00213416 1.80298e-05 0)
(0.0021273 2.48264e-05 0)
(0.0021182 3.16667e-05 0)
(0.00210683 3.85425e-05 0)
(0.00209319 4.54456e-05 0)
(0.00207726 5.23673e-05 0)
(0.00205905 5.92987e-05 0)
(0.00203855 6.62305e-05 0)
(0.00201575 7.3153e-05 0)
(0.00199067 8.00562e-05 0)
(0.00196331 8.69299e-05 0)
(0.00193368 9.37638e-05 0)
(0.0019018 0.000100547 0)
(0.00186767 0.00010727 0)
(0.00183133 0.000113921 0)
(0.0017928 0.00012049 0)
(0.00175211 0.000126965 0)
(0.00170928 0.000133335 0)
(0.00166436 0.000139588 0)
(0.00161738 0.000145715 0)
(0.00156839 0.000151704 0)
(0.00151744 0.000157543 0)
(0.00146457 0.000163222 0)
(0.00140984 0.000168729 0)
(0.00135332 0.000174055 0)
(0.00129505 0.000179187 0)
(0.00123511 0.000184116 0)
(0.00117356 0.000188832 0)
(0.00111048 0.000193324 0)
(0.00104594 0.000197585 0)
(0.000980027 0.000201605 0)
(0.000912813 0.000205375 0)
(0.000844385 0.000208887 0)
(0.000774831 0.000212134 0)
(0.000704238 0.000215108 0)
(0.0006327 0.000217804 0)
(0.00056031 0.000220215 0)
(0.000487163 0.000222337 0)
(0.000413357 0.000224164 0)
(0.00033899 0.000225692 0)
(0.000264163 0.000226919 0)
(0.000188977 0.000227841 0)
(0.000113534 0.000228457 0)
(3.79396e-05 0.000228764 0)
(-3.77115e-05 0.000228764 0)
(-0.000113306 0.000228456 0)
(-0.000188749 0.00022784 0)
(-0.000263936 0.000226918 0)
(-0.000338763 0.000225692 0)
(-0.00041313 0.000224164 0)
(-0.000486937 0.000222337 0)
(-0.000560084 0.000220216 0)
(-0.000632475 0.000217804 0)
(-0.000704013 0.000215109 0)
(-0.000774606 0.000212134 0)
(-0.000844161 0.000208888 0)
(-0.00091259 0.000205376 0)
(-0.000979804 0.000201607 0)
(-0.00104572 0.000197588 0)
(-0.00111026 0.000193328 0)
(-0.00117334 0.000188836 0)
(-0.00123488 0.000184121 0)
(-0.00129483 0.000179192 0)
(-0.00135309 0.000174061 0)
(-0.00140962 0.000168736 0)
(-0.00146435 0.000163229 0)
(-0.00151722 0.000157551 0)
(-0.00156818 0.000151712 0)
(-0.00161717 0.000145725 0)
(-0.00166415 0.000139599 0)
(-0.00170907 0.000133345 0)
(-0.0017519 0.000126976 0)
(-0.00179259 0.000120501 0)
(-0.00183113 0.000113933 0)
(-0.00186747 0.000107282 0)
(-0.00190159 0.000100559 0)
(-0.00193348 9.37765e-05 0)
(-0.00196311 8.69434e-05 0)
(-0.00199047 8.00711e-05 0)
(-0.00201556 7.31699e-05 0)
(-0.00203835 6.62494e-05 0)
(-0.00205885 5.93195e-05 0)
(-0.00207707 5.23897e-05 0)
(-0.00209299 4.5469e-05 0)
(-0.00210664 3.85667e-05 0)
(-0.002118 3.16913e-05 0)
(-0.00212711 2.48506e-05 0)
(-0.00213397 1.80532e-05 0)
(-0.00213859 1.13072e-05 0)
(-0.00214101 4.62031e-06 0)
(-0.00214123 -2.00035e-06 0)
(-0.00213929 -8.54934e-06 0)
(-0.00213521 -1.50206e-05 0)
(-0.00212901 -2.14068e-05 0)
(-0.00212073 -2.77026e-05 0)
(-0.0021104 -3.39034e-05 0)
(-0.00209804 -4.00039e-05 0)
(-0.00208369 -4.60001e-05 0)
(-0.00206739 -5.18883e-05 0)
(-0.00204918 -5.76649e-05 0)
(-0.00202909 -6.33264e-05 0)
(-0.00200716 -6.88693e-05 0)
(-0.00198344 -7.42905e-05 0)
(-0.00195796 -7.95872e-05 0)
(-0.00193077 -8.47571e-05 0)
(-0.0019019 -8.97985e-05 0)
(-0.00187141 -9.47088e-05 0)
(-0.00183933 -9.94864e-05 0)
(-0.00180571 -0.00010413 0)
(-0.00177059 -0.000108639 0)
(-0.00173402 -0.000113013 0)
(-0.00169604 -0.00011725 0)
(-0.0016567 -0.000121351 0)
(-0.00161604 -0.000125315 0)
(-0.00157411 -0.000129142 0)
(-0.00153096 -0.000132833 0)
(-0.00148662 -0.000136386 0)
(-0.00144115 -0.000139801 0)
(-0.00139458 -0.000143078 0)
(-0.00134697 -0.000146217 0)
(-0.00129835 -0.000149221 0)
(-0.00124877 -0.00015209 0)
(-0.00119827 -0.000154828 0)
(-0.00114691 -0.000157433 0)
(-0.00109472 -0.000159905 0)
(-0.00104175 -0.000162245 0)
(-0.000988045 -0.00016445 0)
(-0.000933637 -0.000166522 0)
(-0.000878575 -0.000168464 0)
(-0.000822899 -0.000170275 0)
(-0.000766653 -0.000171959 0)
(-0.00070988 -0.000173516 0)
(-0.00065262 -0.000174948 0)
(-0.000594915 -0.000176255 0)
(-0.000536807 -0.000177435 0)
(-0.000478335 -0.000178487 0)
(-0.000419539 -0.000179412 0)
(-0.000360462 -0.000180208 0)
(-0.000301144 -0.00018088 0)
(-0.000241616 -0.00018141 0)
(-0.000181879 -0.000181647 0)
(-0.000122131 -0.000180325 0)
(-6.43701e-05 -0.000169355 0)
(-1.24521e-05 -0.00011055 0)
(1.24037e-05 -0.000151846 0)
(6.4427e-05 -0.000226115 0)
(0.000123538 -0.000237978 0)
(0.000183897 -0.000239511 0)
(0.000243901 -0.000239739 0)
(0.000303534 -0.000239552 0)
(0.000362887 -0.000239021 0)
(0.000421987 -0.000238195 0)
(0.000480825 -0.000237118 0)
(0.000539368 -0.00023582 0)
(0.000597571 -0.000234319 0)
(0.000655391 -0.000232629 0)
(0.000712783 -0.000230755 0)
(0.000769703 -0.000228703 0)
(0.000826105 -0.000226476 0)
(0.000881946 -0.000224074 0)
(0.000937182 -0.000221497 0)
(0.00099177 -0.000218747 0)
(0.00104567 -0.000215821 0)
(0.00109883 -0.00021272 0)
(0.00115121 -0.000209442 0)
(0.00120276 -0.000205987 0)
(0.00125345 -0.000202354 0)
(0.00130322 -0.000198543 0)
(0.00135204 -0.000194552 0)
(0.00139986 -0.00019038 0)
(0.00144662 -0.000186027 0)
(0.0014923 -0.000181493 0)
(0.00153684 -0.000176777 0)
(0.0015802 -0.00017188 0)
(0.00162233 -0.0001668 0)
(0.00166319 -0.000161538 0)
(0.00170273 -0.000156093 0)
(0.0017409 -0.000150467 0)
(0.00177767 -0.00014466 0)
(0.00181298 -0.000138673 0)
(0.0018468 -0.000132507 0)
(0.00187906 -0.000126163 0)
(0.00190974 -0.000119643 0)
(0.00193879 -0.000112948 0)
(0.00196616 -0.000106082 0)
(0.00199182 -9.90457e-05 0)
(0.00201571 -9.18436e-05 0)
(0.0020378 -8.44784e-05 0)
(0.00205805 -7.69541e-05 0)
(0.00207642 -6.92749e-05 0)
(0.00209287 -6.14454e-05 0)
(0.00210736 -5.3471e-05 0)
(0.00211985 -4.53572e-05 0)
(0.00213032 -3.711e-05 0)
(0.00213872 -2.87358e-05 0)
(0.00214503 -2.02415e-05 0)
(0.00214922 -1.16347e-05 0)
(0.00215126 -2.92381e-06 0)
(0.00215112 5.88331e-06 0)
(0.00214877 1.47789e-05 0)
(0.00214421 2.37541e-05 0)
(0.00213739 3.27989e-05 0)
(0.00212832 4.19031e-05 0)
(0.00211698 5.10558e-05 0)
(0.00210334 6.02458e-05 0)
(0.00208742 6.94616e-05 0)
(0.00206919 7.86912e-05 0)
(0.00204866 8.79221e-05 0)
(0.00202582 9.71416e-05 0)
(0.00200068 0.000106337 0)
(0.00197325 0.000115493 0)
(0.00194353 0.000124599 0)
(0.00191155 0.000133638 0)
(0.00187731 0.000142598 0)
(0.00184085 0.000151463 0)
(0.00180217 0.000160218 0)
(0.00176132 0.00016885 0)
(0.00171832 0.000177343 0)
(0.00167321 0.000185683 0)
(0.00162603 0.000193853 0)
(0.00157682 0.00020184 0)
(0.00152563 0.000209629 0)
(0.00147252 0.000217203 0)
(0.00141753 0.00022455 0)
(0.00136073 0.000231654 0)
(0.00130217 0.000238501 0)
(0.00124193 0.000245077 0)
(0.00118007 0.000251369 0)
(0.00111666 0.000257365 0)
(0.00105178 0.000263051 0)
(0.000985518 0.000268416 0)
(0.000917942 0.000273449 0)
(0.000849143 0.000278137 0)
(0.000779208 0.000282472 0)
(0.000708226 0.000286444 0)
(0.000636291 0.000290044 0)
(0.000563496 0.000293265 0)
(0.000489938 0.000296098 0)
(0.000415715 0.000298539 0)
(0.000340927 0.000300581 0)
(0.000265674 0.00030222 0)
(0.00019006 0.000303452 0)
(0.000114187 0.000304275 0)
(3.81606e-05 0.000304687 0)
(-3.79226e-05 0.000304687 0)
(-0.000113949 0.000304276 0)
(-0.000189823 0.000303453 0)
(-0.000265437 0.000302222 0)
(-0.00034069 0.000300583 0)
(-0.000415479 0.000298541 0)
(-0.000489702 0.000296101 0)
(-0.00056326 0.000293268 0)
(-0.000636056 0.000290048 0)
(-0.000707991 0.000286448 0)
(-0.000778973 0.000282476 0)
(-0.000848909 0.000278142 0)
(-0.000917708 0.000273453 0)
(-0.000985284 0.000268421 0)
(-0.00105155 0.000263057 0)
(-0.00111643 0.000257371 0)
(-0.00117983 0.000251376 0)
(-0.0012417 0.000245083 0)
(-0.00130194 0.000238507 0)
(-0.0013605 0.00023166 0)
(-0.0014173 0.000224556 0)
(-0.00147229 0.00021721 0)
(-0.00152541 0.000209636 0)
(-0.00157659 0.000201849 0)
(-0.0016258 0.000193863 0)
(-0.00167299 0.000185694 0)
(-0.0017181 0.000177356 0)
(-0.0017611 0.000168863 0)
(-0.00180195 0.000160232 0)
(-0.00184063 0.000151476 0)
(-0.0018771 0.000142611 0)
(-0.00191134 0.000133652 0)
(-0.00194332 0.000124614 0)
(-0.00197304 0.00011551 0)
(-0.00200047 0.000106354 0)
(-0.00202561 9.71606e-05 0)
(-0.00204844 8.79426e-05 0)
(-0.00206898 7.8713e-05 0)
(-0.00208721 6.94846e-05 0)
(-0.00210313 6.02698e-05 0)
(-0.00211677 5.10808e-05 0)
(-0.00212811 4.19291e-05 0)
(-0.00213718 3.28252e-05 0)
(-0.002144 2.37801e-05 0)
(-0.00214857 1.48046e-05 0)
(-0.00215091 5.90841e-06 0)
(-0.00215106 -2.89907e-06 0)
(-0.00214902 -1.16098e-05 0)
(-0.00214484 -2.02159e-05 0)
(-0.00213853 -2.87086e-05 0)
(-0.00213013 -3.70805e-05 0)
(-0.00211966 -4.53253e-05 0)
(-0.00210717 -5.34364e-05 0)
(-0.00209268 -6.14083e-05 0)
(-0.00207624 -6.92353e-05 0)
(-0.00205787 -7.69125e-05 0)
(-0.00203762 -8.44356e-05 0)
(-0.00201553 -9.18002e-05 0)
(-0.00199163 -9.90022e-05 0)
(-0.00196598 -0.000106038 0)
(-0.00193861 -0.000112905 0)
(-0.00190956 -0.0001196 0)
(-0.00187888 -0.000126121 0)
(-0.00184662 -0.000132465 0)
(-0.00181281 -0.000138631 0)
(-0.00177749 -0.000144617 0)
(-0.00174073 -0.000150422 0)
(-0.00170255 -0.000156047 0)
(-0.00166301 -0.00016149 0)
(-0.00162215 -0.00016675 0)
(-0.00158002 -0.000171829 0)
(-0.00153666 -0.000176725 0)
(-0.00149212 -0.000181439 0)
(-0.00144644 -0.000185969 0)
(-0.00139967 -0.000190317 0)
(-0.00135185 -0.000194483 0)
(-0.00130302 -0.000198468 0)
(-0.00125324 -0.000202276 0)
(-0.00120254 -0.000205905 0)
(-0.00115097 -0.000209359 0)
(-0.00109858 -0.000212635 0)
(-0.00104541 -0.000215737 0)
(-0.000991492 -0.000218662 0)
(-0.00093688 -0.000221412 0)
(-0.000881613 -0.000223991 0)
(-0.000825734 -0.000226396 0)
(-0.000769285 -0.000228631 0)
(-0.000712309 -0.000230698 0)
(-0.000654849 -0.000232596 0)
(-0.000596943 -0.000234327 0)
(-0.00053863 -0.00023589 0)
(-0.000479954 -0.000237284 0)
(-0.000420954 -0.00023851 0)
(-0.000361675 -0.00023957 0)
(-0.000302158 -0.000240466 0)
(-0.000242433 -0.000241178 0)
(-0.000182502 -0.000241505 0)
(-0.000122569 -0.000239789 0)
(-6.46535e-05 -0.000225371 0)
(-1.25275e-05 -0.000147577 0)
(1.23883e-05 -0.000188598 0)
(6.43179e-05 -0.000282631 0)
(0.000123261 -0.000298133 0)
(0.00018382 -0.000299834 0)
(0.000244134 -0.00029973 0)
(0.000304096 -0.000299228 0)
(0.000363759 -0.00029842 0)
(0.000423141 -0.000297318 0)
(0.000482234 -0.000295943 0)
(0.000541011 -0.000294313 0)
(0.000599435 -0.000292443 0)
(0.000657468 -0.000290341 0)
(0.000715067 -0.000288014 0)
(0.00077219 -0.000285466 0)
(0.000828794 -0.000282698 0)
(0.000884836 -0.000279713 0)
(0.000940274 -0.000276509 0)
(0.000995063 -0.000273088 0)
(0.00104916 -0.000269448 0)
(0.00110252 -0.000265589 0)
(0.00115511 -0.000261509 0)
(0.00120687 -0.000257209 0)
(0.00125776 -0.000252686 0)
(0.00130774 -0.00024794 0)
(0.00135676 -0.00024297 0)
(0.00140479 -0.000237775 0)
(0.00145176 -0.000232353 0)
(0.00149765 -0.000226705 0)
(0.0015424 -0.00022083 0)
(0.00158597 -0.000214727 0)
(0.00162831 -0.000208397 0)
(0.00166937 -0.000201839 0)
(0.00170912 -0.000195053 0)