# Solver information
# Time        	U_solver      	Ux_initial    	Ux_final      	Ux_iters      	Uy_initial    	Uy_final      	Uy_iters      	Uz_initial    	Uz_final      	Uz_iters      	U_converged   	p_solver      	p_initial     	p_final       	p_iters       	p_converged   
1             	DILUPBiCGStab	1.000000e+00	3.673430e-02	1	1.000000e+00	3.313300e-02	1	1.000000e+00	3.592060e-02	1	false	DICPCG	1.000000e+00	8.823310e-03	80	true
2             	DILUPBiCGStab	4.693740e-01	2.525850e-02	1	5.424520e-01	3.324280e-02	1	6.013800e-01	3.587430e-02	1	false	DICPCG	4.040200e-01	3.724030e-03	77	true
3             	DILUPBiCGStab	2.850220e-01	1.613600e-02	1	2.600670e-01	1.578350e-02	1	3.102370e-01	1.807020e-02	1	false	DICPCG	4.617420e-01	3.980140e-03	77	true
4             	DILUPBiCGStab	1.354880e-01	7.350090e-03	1	1.132290e-01	6.453140e-03	1	1.352430e-01	7.421730e-03	1	false	DICPCG	5.718650e-01	5.596990e-03	77	true
5             	DILUPBiCGStab	6.352590e-02	3.322750e-03	1	5.713910e-02	3.228330e-03	1	6.774730e-02	3.730750e-03	1	false	DICPCG	4.267140e-01	3.334790e-03	77	true
6             	DILUPBiCGStab	8.092340e-02	4.451550e-03	1	7.921800e-02	4.865210e-03	1	1.174250e-01	6.862370e-03	1	false	DICPCG	3.695890e-01	3.565060e-03	71	true
7             	DILUPBiCGStab	8.145120e-02	4.628230e-03	1	7.937340e-02	4.934730e-03	1	1.201820e-01	6.931110e-03	1	false	DICPCG	4.031120e-01	3.726690e-03	75	true
8             	DILUPBiCGStab	6.461890e-02	3.570570e-03	1	5.783940e-02	3.430570e-03	1	7.368220e-02	4.061150e-03	1	false	DICPCG	4.699570e-01	4.269500e-03	76	true
9             	DILUPBiCGStab	6.739010e-02	3.643640e-03	1	5.537740e-02	3.216520e-03	1	7.646830e-02	4.275420e-03	1	false	DICPCG	4.313400e-01	3.701800e-03	75	true
10            	DILUPBiCGStab	6.960340e-02	3.690310e-03	1	5.753120e-02	3.372070e-03	1	8.551480e-02	4.764220e-03	1	false	DICPCG	4.150120e-01	3.967980e-03	72	true
11            	DILUPBiCGStab	5.450770e-02	2.827000e-03	1	4.537000e-02	2.616280e-03	1	6.443850e-02	3.475830e-03	1	false	DICPCG	4.490280e-01	4.411730e-03	74	true
12            	DILUPBiCGStab	3.876810e-02	2.030350e-03	1	3.495100e-02	1.999180e-03	1	4.181420e-02	2.260450e-03	1	false	DICPCG	3.670090e-01	3.567820e-03	74	true
13            	DILUPBiCGStab	3.598220e-02	1.997270e-03	1	3.675720e-02	2.097450e-03	1	4.096200e-02	2.275310e-03	1	false	DICPCG	2.971690e-01	2.945830e-03	47	true
14            	DILUPBiCGStab	3.481710e-02	1.909400e-03	1	3.491990e-02	1.973260e-03	1	4.131220e-02	2.275490e-03	1	false	DICPCG	2.987050e-01	2.968240e-03	71	true
15            	DILUPBiCGStab	3.168090e-02	1.675830e-03	1	2.845620e-02	1.547110e-03	1	3.415230e-02	1.802820e-03	1	false	DICPCG	3.205080e-01	3.137850e-03	73	true
16            	DILUPBiCGStab	3.122600e-02	1.602160e-03	1	2.565450e-02	1.383570e-03	1	2.960000e-02	1.544070e-03	1	false	DICPCG	3.427170e-01	3.173440e-03	72	true
17            	DILUPBiCGStab	3.120220e-02	1.583230e-03	1	2.555720e-02	1.398350e-03	1	3.193340e-02	1.654380e-03	1	false	DICPCG	3.322720e-01	2.969660e-03	45	true
18            	DILUPBiCGStab	2.826350e-02	1.444050e-03	1	2.333450e-02	1.262600e-03	1	2.972220e-02	1.509880e-03	1	false	DICPCG	3.264370e-01	3.049180e-03	70	true
19            	DILUPBiCGStab	2.439890e-02	1.257010e-03	1	2.056250e-02	1.089930e-03	1	2.480410e-02	1.248210e-03	1	false	DICPCG	2.934560e-01	2.753290e-03	61	true
20            	DILUPBiCGStab	2.268390e-02	1.163150e-03	1	2.007410e-02	1.055620e-03	1	2.236370e-02	1.129180e-03	1	false	DICPCG	2.508620e-01	2.388380e-03	69	true
21            	DILUPBiCGStab	2.182190e-02	1.110620e-03	1	1.937050e-02	1.001700e-03	1	2.073290e-02	1.036970e-03	1	false	DICPCG	2.322190e-01	2.280630e-03	45	true
22            	DILUPBiCGStab	2.059640e-02	1.038780e-03	1	1.727260e-02	8.701550e-04	1	1.797910e-02	8.757450e-04	1	false	DICPCG	2.247870e-01	2.144030e-03	68	true
23            	DILUPBiCGStab	1.988380e-02	9.844810e-04	1	1.563380e-02	7.803350e-04	1	1.636960e-02	7.785080e-04	1	false	DICPCG	2.180770e-01	1.972920e-03	61	true
24            	DILUPBiCGStab	1.986840e-02	9.607220e-04	1	1.529650e-02	7.723720e-04	1	1.624680e-02	7.659790e-04	1	false	DICPCG	2.192310e-01	1.949930e-03	69	true
25            	DILUPBiCGStab	1.944740e-02	9.366190e-04	1	1.513590e-02	7.729120e-04	1	1.624040e-02	7.694500e-04	1	false	DICPCG	2.217350e-01	2.161500e-03	44	true
26            	DILUPBiCGStab	1.862040e-02	9.057080e-04	1	1.433450e-02	7.342420e-04	1	1.592550e-02	7.581950e-04	1	false	DICPCG	2.133630e-01	1.781790e-03	71	true
27            	DILUPBiCGStab	1.779110e-02	8.757450e-04	1	1.396110e-02	7.152040e-04	1	1.533110e-02	7.284610e-04	1	false	DICPCG	1.956390e-01	1.943850e-03	63	true
28            	DILUPBiCGStab	1.723810e-02	8.326790e-04	1	1.356300e-02	6.835900e-04	1	1.451260e-02	6.853880e-04	1	false	DICPCG	1.840010e-01	1.771510e-03	63	true
29            	DILUPBiCGStab	1.673390e-02	7.995410e-04	1	1.273830e-02	6.252210e-04	1	1.344350e-02	6.354760e-04	1	false	DICPCG	1.780510e-01	1.677290e-03	36	true
30            	DILUPBiCGStab	1.636350e-02	7.730480e-04	1	1.201900e-02	5.766120e-04	1	1.266410e-02	6.014820e-04	1	false	DICPCG	1.737570e-01	1.651280e-03	63	true
31            	DILUPBiCGStab	1.608110e-02	7.616780e-04	1	1.175030e-02	5.605190e-04	1	1.253560e-02	5.973950e-04	1	false	DICPCG	1.703800e-01	1.568450e-03	61	true
32            	DILUPBiCGStab	1.592130e-02	7.569740e-04	1	1.171640e-02	5.658590e-04	1	1.272160e-02	6.091580e-04	1	false	DICPCG	1.686330e-01	1.629880e-03	42	true
33            	DILUPBiCGStab	1.587340e-02	7.498750e-04	1	1.155860e-02	5.704410e-04	1	1.287580e-02	6.157950e-04	1	false	DICPCG	1.671030e-01	1.603620e-03	36	true
34            	DILUPBiCGStab	1.576380e-02	7.380160e-04	1	1.140070e-02	5.727670e-04	1	1.276070e-02	6.091040e-04	1	false	DICPCG	1.650730e-01	1.585060e-03	32	true
35            	DILUPBiCGStab	1.552370e-02	7.318510e-04	1	1.118690e-02	5.669470e-04	1	1.237930e-02	5.907090e-04	1	false	DICPCG	1.625170e-01	1.454090e-03	31	true
36            	DILUPBiCGStab	1.520430e-02	7.283510e-04	1	1.087730e-02	5.523660e-04	1	1.205550e-02	5.746730e-04	1	false	DICPCG	1.594200e-01	1.510800e-03	31	true
37            	DILUPBiCGStab	1.479440e-02	7.125140e-04	1	1.065570e-02	5.424800e-04	1	1.184330e-02	5.622430e-04	1	false	DICPCG	1.567250e-01	1.490200e-03	32	true
38            	DILUPBiCGStab	1.435580e-02	6.897050e-04	1	1.068250e-02	5.497010e-04	1	1.181870e-02	5.631150e-04	1	false	DICPCG	1.554640e-01	1.375410e-03	32	true
39            	DILUPBiCGStab	1.400640e-02	6.738550e-04	1	1.081810e-02	5.673360e-04	1	1.190400e-02	5.735860e-04	1	false	DICPCG	1.547840e-01	1.536340e-03	31	true
40            	DILUPBiCGStab	1.375690e-02	6.534090e-04	1	1.094380e-02	5.803940e-04	1	1.200080e-02	5.792180e-04	1	false	DICPCG	1.557060e-01	1.407080e-03	28	true
41            	DILUPBiCGStab	1.351420e-02	6.477870e-04	1	1.103110e-02	5.924740e-04	1	1.204050e-02	5.800150e-04	1	false	DICPCG	1.573060e-01	1.467760e-03	27	true
42            	DILUPBiCGStab	1.321780e-02	6.495850e-04	1	1.113120e-02	6.040660e-04	1	1.205290e-02	5.797070e-04	1	false	DICPCG	1.574680e-01	1.396780e-03	24	true
43            	DILUPBiCGStab	1.289350e-02	6.394630e-04	1	1.132430e-02	6.125580e-04	1	1.213520e-02	5.780120e-04	1	false	DICPCG	1.574440e-01	1.507640e-03	27	true
44            	DILUPBiCGStab	1.254640e-02	6.214100e-04	1	1.155310e-02	6.133940e-04	1	1.231900e-02	5.833800e-04	1	false	DICPCG	1.582880e-01	1.485240e-03	32	true
45            	DILUPBiCGStab	1.224260e-02	6.028810e-04	1	1.178330e-02	6.152620e-04	1	1.257680e-02	5.930160e-04	1	false	DICPCG	1.569240e-01	1.467520e-03	32	true
46            	DILUPBiCGStab	1.196240e-02	5.830150e-04	1	1.197330e-02	6.159000e-04	1	1.285150e-02	6.037190e-04	1	false	DICPCG	1.591840e-01	1.507010e-03	31	true
47            	DILUPBiCGStab	1.176760e-02	5.631370e-04	1	1.210840e-02	6.139150e-04	1	1.307830e-02	6.082310e-04	1	false	DICPCG	1.612380e-01	1.584580e-03	27	true
48            	DILUPBiCGStab	1.158100e-02	5.489690e-04	1	1.216250e-02	6.135430e-04	1	1.325900e-02	6.197180e-04	1	false	DICPCG	1.609340e-01	1.383640e-03	24	true
49            	DILUPBiCGStab	1.139680e-02	5.393390e-04	1	1.216370e-02	6.126460e-04	1	1.345710e-02	6.314090e-04	1	false	DICPCG	1.611750e-01	1.513790e-03	23	true
50            	DILUPBiCGStab	1.134080e-02	5.394350e-04	1	1.211340e-02	6.069320e-04	1	1.368370e-02	6.449320e-04	1	false	DICPCG	1.607910e-01	1.504500e-03	24	true
