/*--------------------------------*- C++ -*----------------------------------*\
| =========                 |                                                 |
| \\      /  F ield         | OpenFOAM: The Open Source CFD Toolbox           |
|  \\    /   O peration     | Version:  2412                                  |
|   \\  /    A nd           | Website:  www.openfoam.com                      |
|    \\/     M anipulation  |                                                 |
\*---------------------------------------------------------------------------*/
FoamFile
{
    version     2.0;
    format      ascii;
    arch        "LSB;label=32;scalar=64";
    class       volScalarField;
    location    "1.19";
    object      alpha.water;
}
// * * * * * * * * * * * * * * * * * * * * * * * * * * * * * * * * * * * * * //

dimensions      [0 0 0 0 0 0 0];

internalField   nonuniform List<scalar> 
40000
(
8.46119e-187
1.31646e-177
1.09482e-176
1.38634e-176
1.38449e-176
1.30624e-176
1.19398e-176
1.06471e-176
9.28522e-177
7.92554e-177
6.61997e-177
5.40716e-177
4.31511e-177
3.36094e-177
2.55198e-177
1.88666e-177
1.35622e-177
9.46775e-178
6.41146e-178
4.20611e-178
2.66972e-178
1.63747e-178
9.6918e-179
5.52397e-179
3.02145e-179
1.57772e-179
7.81566e-180
3.64337e-180
1.58618e-180
6.40853e-181
2.39324e-181
8.25296e-182
2.63708e-182
7.84195e-183
2.16283e-183
5.4322e-184
1.2141e-184
2.37772e-185
4.07209e-186
6.13729e-187
8.13454e-188
9.37491e-189
9.27975e-190
7.83642e-191
5.63188e-192
3.44219e-193
1.78894e-194
7.90489e-196
2.96772e-197
9.44088e-199
2.52659e-200
5.59e-202
9.78598e-204
1.28377e-205
1.65993e-207
2.11471e-209
2.65351e-211
3.27804e-213
3.98466e-215
4.7626e-217
5.59263e-219
6.44627e-221
7.28614e-223
8.06759e-225
8.7418e-227
9.26001e-229
9.57879e-231
9.66543e-233
9.50272e-235
9.09236e-237
8.45604e-239
7.63392e-241
6.68059e-243
5.6588e-245
4.63221e-247
3.65822e-249
2.78213e-251
2.03356e-253
1.42555e-255
9.56208e-258
6.1217e-260
3.7303e-262
2.157e-264
1.1796e-266
6.07816e-269
2.93863e-271
1.32677e-273
5.56392e-276
2.15376e-278
7.63998e-281
2.46225e-283
7.13546e-286
1.83585e-288
4.12674e-291
7.9368e-294
1.26937e-296
1.62026e-299
1.54702e-302
9.81995e-306
3.10943e-309
3.82789e-309
1.20868e-305
1.89966e-302
1.98372e-299
1.5492e-296
9.65513e-294
5.00399e-291
2.21903e-288
8.59788e-286
2.95786e-283
9.15065e-281
2.57222e-278
6.62642e-276
1.57586e-273
3.48119e-271
7.18207e-269
1.3904e-266
2.53639e-264
4.37623e-262
7.16549e-260
1.11679e-257
1.66138e-255
2.36502e-253
3.22901e-251
4.23736e-249
5.35506e-247
6.52932e-245
7.69383e-243
8.77554e-241
9.70298e-239
1.04145e-236
1.08654e-234
1.10323e-232
1.09147e-230
1.05337e-228
9.92757e-227
9.14678e-225
8.24727e-223
7.28474e-221
6.30981e-219
5.36459e-217
4.48092e-215
3.68011e-213
2.97381e-211
2.36571e-209
1.85348e-207
1.4307e-205
1.08844e-203
6.2067e-202
2.79643e-200
1.04043e-198
3.25326e-197
8.61208e-196
1.9356e-194
3.69706e-193
6.0031e-192
8.28986e-191
9.74467e-190
9.77627e-189
8.42951e-188
6.32549e-187
4.17707e-186
2.42808e-185
1.2345e-184
5.50298e-184
2.18444e-183
7.90156e-183
2.65229e-182
8.28704e-182
2.39952e-181
6.41664e-181
1.58632e-180
3.63997e-180
7.80138e-180
1.57353e-179
3.01109e-179
5.50142e-179
9.64765e-179
1.62954e-178
2.65645e-178
4.18505e-178
6.37942e-178
9.42064e-178
1.34945e-177
1.87719e-177
2.53914e-177
3.34435e-177
4.2947e-177
5.38361e-177
6.59499e-177
7.90243e-177
9.27066e-177
1.06565e-176
1.20115e-176
1.32827e-176
1.43789e-176
1.48644e-176
1.19555e-176
1.32618e-177
6.29127e-187
2.84816e-183
2.75026e-174
2.12065e-173
2.60526e-173
2.56575e-173
2.41226e-173
2.21064e-173
1.98192e-173
1.74021e-173
1.49681e-173
1.26077e-173
1.03927e-173
8.37681e-174
6.59538e-174
5.06678e-174
3.79341e-174
2.76419e-174
1.95805e-174
1.34685e-174
8.98435e-175
5.80472e-175
3.62811e-175
2.19087e-175
1.27562e-175
7.13743e-176
3.81834e-176
1.94126e-176
9.30578e-177
4.17576e-177
1.74314e-177
6.74187e-178
2.41291e-178
8.01737e-179
2.48401e-179
7.15444e-180
1.88179e-180
4.41919e-181
9.12544e-182
1.65338e-182
2.64557e-183
3.73669e-184
4.60704e-185
4.89854e-186
4.46399e-187
3.48085e-188
2.32339e-189
1.32944e-190
6.53681e-192
2.77078e-193
1.01615e-194
3.23586e-196
8.97212e-198
2.16811e-199
4.55623e-201
9.39701e-203
1.90074e-204
3.7689e-206
7.32308e-208
1.39375e-209
2.59711e-211
4.7357e-213
8.4454e-215
1.47206e-216
2.50611e-218
4.16412e-220
6.74753e-222
1.06534e-223
1.6374e-225
2.4474e-227
3.55371e-229
5.00707e-231
6.83721e-233
9.03639e-235
1.15429e-236
1.42292e-238
1.68995e-240
1.93031e-242
2.11644e-244
2.22282e-246
2.23119e-248
2.13513e-250
1.94261e-252
1.67539e-254
1.36512e-256
1.04698e-258
7.52687e-261
5.04833e-263
3.14198e-265
1.80338e-267
9.4766e-270
4.52037e-272
1.93715e-274
7.36373e-277
2.4435e-279
6.93149e-282
1.63373e-284
3.0706e-287
4.31346e-290
4.02513e-293
1.87224e-296
2.22986e-296
4.80488e-293
5.14843e-290
3.66181e-287
1.94592e-284
8.24458e-282
2.90207e-279
8.73213e-277
2.29351e-274
5.34343e-272
1.11842e-269
2.12495e-267
3.69639e-265
5.92979e-263
8.82734e-261
1.22599e-258
1.59608e-256
1.95588e-254
2.26444e-252
2.48517e-250
2.59317e-248
2.57969e-246
2.45269e-244
2.23379e-242
1.95286e-240
1.64196e-238
1.33011e-236
1.03982e-234
7.85663e-233
5.7456e-231
4.07218e-229
2.80056e-227
1.87105e-225
1.21565e-223
7.6886e-222
4.73809e-220
2.84741e-218
1.67007e-216
9.56704e-215
5.35644e-213
2.93293e-211
1.57146e-209
8.24328e-208
4.23541e-206
2.13241e-204
1.05246e-202
5.09465e-201
2.42051e-199
9.99335e-198
3.59207e-196
1.12307e-194
3.04583e-193
7.14055e-192
1.44202e-190
2.50108e-189
3.71776e-188
4.7306e-187
5.1518e-186
4.81056e-185
3.87651e-184
2.72934e-183
1.69747e-182
9.32605e-182
4.49686e-181
1.90777e-180
7.23164e-180
2.5049e-179
8.07026e-179
2.42492e-178
6.76524e-178
1.74679e-177
4.17953e-177
9.30481e-177
1.93944e-176
3.81203e-176
7.12111e-176
1.27204e-175
2.18393e-175
3.6158e-175
5.78439e-175
8.95276e-175
1.3422e-174
1.95153e-174
2.75544e-174
3.7822e-174
5.05326e-174
6.58055e-174
8.36299e-174
1.03842e-173
1.26118e-173
1.49964e-173
1.74739e-173
1.99682e-173
2.2396e-173
2.46686e-173
2.66346e-173
2.75331e-173
2.236e-173
2.6528e-174
2.14511e-183
3.37454e-180
2.03458e-171
1.49516e-170
1.80959e-170
1.76788e-170
1.65837e-170
1.52247e-170
1.37068e-170
1.21038e-170
1.04816e-170
8.89695e-171
7.39713e-171
6.01907e-171
4.78845e-171
3.7204e-171
2.81965e-171
2.08188e-171
1.49574e-171
1.04455e-171
7.08119e-172
4.65422e-172
2.96238e-172
1.82366e-172
1.08374e-172
6.19681e-173
3.39262e-173
1.76796e-173
8.70304e-174
4.01915e-174
1.73065e-174
6.91957e-175
2.56493e-175
8.84152e-176
2.84665e-176
8.53602e-177
2.34208e-177
5.7504e-178
1.24427e-178
2.36769e-179
3.98912e-180
5.94639e-181
7.74794e-182
8.7117e-183
8.39997e-184
6.93484e-185
4.90356e-186
2.9737e-187
1.55056e-188
6.97734e-190
2.72219e-191
9.2569e-193
2.75893e-194
7.24646e-196
1.68591e-197
3.81074e-199
8.43099e-201
1.82547e-202
3.86719e-204
8.01337e-206
1.62359e-207
3.21508e-209
6.21937e-211
1.17462e-212
2.1646e-214
3.88944e-216
6.80932e-218
1.16058e-219
1.92405e-221
3.09969e-223
4.84767e-225
7.35155e-227
1.07979e-228
1.5341e-230
2.10533e-232
2.78671e-234
3.55191e-236
4.35184e-238
5.11563e-240
5.75764e-242
6.19059e-244
6.34293e-246
6.17653e-248
5.699e-250
4.96607e-252
4.07177e-254
3.12828e-256
2.2415e-258
1.48989e-260
9.1297e-263
5.12045e-265
2.60607e-267
1.19125e-269
4.82888e-272
1.70824e-274
5.16461e-277
1.29704e-279
2.59692e-282
3.88531e-285
3.86077e-288
1.91231e-291
2.27216e-291
4.60413e-288
4.63673e-285
3.09847e-282
1.54651e-279
6.15226e-277
2.03274e-274
5.73943e-272
1.41414e-269
3.08971e-267
6.06282e-265
1.07956e-262
1.7594e-260
2.64344e-258
3.68429e-256
4.78903e-254
5.83305e-252
6.68499e-250
7.23548e-248
7.42054e-246
7.23271e-244
6.71799e-242
5.96102e-240
5.06432e-238
4.12799e-236
3.23442e-234
2.44036e-232
1.77588e-230
1.24832e-228
8.48768e-227
5.58939e-225
3.56917e-223
2.21248e-221
1.33273e-219
7.80859e-218
4.45398e-216
2.47525e-214
1.34125e-212
7.09114e-211
3.66019e-209
1.8455e-207
9.09415e-206
4.38158e-204
2.0648e-202
9.51988e-201
4.29524e-199
1.89676e-197
8.14023e-196
3.09132e-194
1.03346e-192
3.02478e-191
7.70801e-190
1.70134e-188
3.23814e-187
5.29623e-186
7.42754e-185
8.92218e-184
9.17934e-183
8.10248e-182
6.17641e-181
4.11957e-180
2.43288e-179
1.27256e-178
5.85537e-178
2.37594e-177
8.63355e-177
2.87233e-176
8.90522e-176
2.57923e-175
6.94767e-175
1.73529e-174
4.02513e-174
8.70735e-174
1.76744e-173
3.38939e-173
6.18747e-173
1.08162e-172
1.81953e-172
2.95511e-172
4.64236e-172
7.06314e-172
1.04199e-171
1.49233e-171
2.07767e-171
2.81488e-171
3.7157e-171
4.78519e-171
6.01955e-171
7.40511e-171
8.91821e-171
1.05248e-170
1.2182e-170
1.38403e-170
1.54461e-170
1.69438e-170
1.82366e-170
1.8826e-170
1.53825e-170
1.93224e-171
2.63781e-180
2.28393e-177
8.49176e-169
5.99376e-168
7.20203e-168
7.01078e-168
6.573e-168
6.04653e-168
5.46507e-168
4.85169e-168
4.22858e-168
3.61608e-168
3.03183e-168
2.49013e-168
2.00145e-168
1.57256e-168
1.20642e-168
9.02523e-169
6.5764e-169
4.66249e-169
3.21199e-169
2.14744e-169
1.39171e-169
8.73262e-170
5.29544e-170
3.09355e-170
1.73275e-170
9.2531e-171
4.6765e-171
2.22238e-171
9.87125e-172
4.08018e-172
1.5664e-172
5.60073e-173
1.87317e-173
5.84476e-174
1.67185e-174
4.28913e-175
9.71963e-176
1.94106e-176
3.44033e-177
5.40564e-178
7.43097e-179
8.81531e-180
8.9666e-181
7.80724e-182
5.81831e-183
3.71429e-184
2.03527e-185
9.60546e-187
3.92236e-188
1.39334e-189
4.33115e-191
1.18534e-192
2.87368e-194
6.72842e-196
1.54028e-197
3.44714e-199
7.54091e-201
1.61211e-202
3.36695e-204
6.86733e-206
1.36727e-207
2.65589e-209
5.03046e-211
9.28464e-213
1.66868e-214
2.91808e-216
4.96093e-218
8.19168e-220
1.31248e-221
2.0382e-223
3.06432e-225
4.45451e-227
6.25249e-229
8.46153e-231
1.10229e-232
1.37986e-234
1.65673e-236
1.90396e-238
2.08966e-240
2.18496e-242
2.17066e-244
2.04281e-246
1.81517e-248
1.51725e-250
1.1881e-252
8.67485e-255
5.87434e-257
3.66655e-259
2.0942e-261
1.08523e-263
5.04995e-266
2.08353e-268
7.50065e-271
2.30734e-273
5.89501e-276
1.20055e-278
1.82676e-281
1.84592e-284
9.29758e-288
1.11376e-287
2.2205e-284
2.19958e-281
1.44548e-278
7.09372e-276
2.77421e-273
9.00928e-271
2.4998e-268
6.05166e-266
1.29888e-263
2.50327e-261
4.37702e-259
7.00333e-257
1.03282e-254
1.41264e-252
1.80158e-250
2.15241e-248
2.41907e-246
2.567e-244
2.58042e-242
2.46453e-240
2.24248e-238
1.94867e-236
1.62081e-234
1.29301e-232
9.91216e-231
7.31444e-229
5.20398e-227
3.57498e-225
2.37459e-223
1.52696e-221
9.51702e-220
5.75542e-218
3.38056e-216
1.93035e-214
1.07247e-212
5.802e-211
3.05855e-209
1.5721e-207
7.88349e-206
3.85882e-204
1.8445e-202
8.61296e-201
3.93015e-199
1.75286e-197
7.64245e-196
3.25762e-194
1.34136e-192
4.8873e-191
1.56596e-189
4.38535e-188
1.06708e-186
2.24421e-185
4.0617e-184
6.30639e-183
8.38592e-182
9.54591e-181
9.30541e-180
7.78207e-179
5.62096e-178
3.55598e-177
1.99596e-176
9.94673e-176
4.36978e-175
1.69687e-174
5.91437e-174
1.89091e-173
5.64348e-173
1.57578e-172
4.09841e-172
9.90174e-172
2.22661e-171
4.68079e-171
9.2545e-171
1.73192e-170
3.09044e-170
5.28792e-170
8.71772e-170
1.3891e-169
2.14321e-169
3.20568e-169
4.6538e-169
6.56545e-169
9.01282e-169
1.20521e-168
1.57174e-168
2.00165e-168
2.49233e-168
3.03755e-168
3.62751e-168
4.24877e-168
4.885e-168
5.51763e-168
6.12705e-168
6.69308e-168
7.18005e-168
7.39944e-168
6.07615e-168
8.04937e-169
1.85133e-177
1.05704e-174
2.3871e-166
1.61894e-165
1.93802e-165
1.88509e-165
1.76901e-165
1.63156e-165
1.48068e-165
1.32149e-165
1.15915e-165
9.98604e-166
8.44292e-166
6.99942e-166
5.68403e-166
4.51656e-166
3.5076e-166
2.65894e-166
1.9652e-166
1.4146e-166
9.90394e-167
6.73581e-167
4.44499e-167
2.84286e-167
1.75904e-167
1.04982e-167
6.01561e-168
3.29185e-168
1.70823e-168
8.35595e-169
3.83016e-169
1.63756e-169
6.51448e-170
2.41703e-170
8.39893e-171
2.72715e-171
8.1339e-172
2.18161e-172
5.18182e-173
1.08703e-173
2.02838e-174
3.36189e-175
4.87978e-176
6.11319e-177
6.56636e-178
6.03662e-179
4.74671e-180
3.19274e-181
1.83961e-182
9.10681e-184
3.88999e-185
1.44128e-186
4.65913e-188
1.32219e-189
3.3146e-191
7.98633e-193
1.87945e-194
4.31992e-196
9.69708e-198
2.12545e-199
4.54775e-201
9.49583e-203
1.93413e-204
3.84105e-206
7.43346e-208
1.40102e-209
2.56988e-211
4.58432e-213
7.9464e-215
1.33724e-216
2.18258e-218
3.45136e-220
5.28166e-222
7.81212e-224
1.11532e-225
1.53471e-227
2.03219e-229
2.58502e-231
3.15291e-233
3.6798e-235
4.10048e-237
4.35194e-239
4.38737e-241
4.18899e-243
3.77545e-245
3.20025e-247
2.54075e-249
1.88048e-251
1.29055e-253
8.16215e-256
4.72298e-258
2.47911e-260
1.16832e-262
4.88098e-265
1.77898e-267
5.53962e-270
1.43248e-272
2.95227e-275
4.54538e-278
4.64689e-281
2.36774e-284
2.87129e-284
5.6591e-281
5.54086e-278
3.59854e-275
1.74503e-272
6.74243e-270
2.16297e-267
5.92761e-265
1.41708e-262
3.00303e-260
5.71344e-258
9.8603e-256
1.55689e-253
2.26537e-251
3.05646e-249
3.84436e-247
4.52887e-245
5.01777e-243
5.2479e-241
5.1981e-239
4.89074e-237
4.38271e-235
3.74979e-233
3.06997e-231
2.40996e-229
1.81738e-227
1.31882e-225
9.22407e-224
6.22712e-222
4.06318e-220
2.56566e-218
1.56958e-216
9.31287e-215
5.36437e-213
3.00247e-211
1.63425e-209
8.6569e-208
4.46584e-206
2.24494e-204
1.10027e-202
5.26003e-201
2.45385e-199
1.11742e-197
4.96828e-196
2.15718e-194
9.14744e-193
3.78833e-191
1.50813e-189
5.29737e-188
1.63138e-186
4.37759e-185
1.01761e-183
2.03879e-182
3.5064e-181
5.16307e-180
6.50233e-179
7.00599e-178
6.46404e-177
5.11697e-176
3.49927e-175
2.0982e-174
1.11846e-173
5.30555e-173
2.22357e-172
8.2589e-172
2.76067e-171
8.48128e-171
2.43622e-170
6.55536e-170
1.64534e-169
3.84307e-169
8.37425e-169
1.71031e-168
3.29337e-168
6.01466e-168
1.04911e-167
1.75714e-167
2.83899e-167
4.43819e-167
6.72489e-167
9.88787e-167
1.41244e-166
1.96258e-166
2.65617e-166
3.50526e-166
4.51568e-166
5.68633e-166
7.00746e-166
8.46042e-166
1.00181e-165
1.16448e-165
1.32985e-165
1.49323e-165
1.64977e-165
1.79454e-165
1.91862e-165
1.97357e-165
1.62775e-165
2.27006e-166
8.82553e-175
3.64417e-172
4.92658e-164
3.20592e-163
3.82827e-163
3.72663e-163
3.50402e-163
3.24202e-163
2.95505e-163
2.65173e-163
2.34105e-163
2.0319e-163
1.73247e-163
1.44984e-163
1.18966e-163
9.56125e-164
7.51769e-164
5.77537e-164
4.33027e-164
3.16528e-164
2.25255e-164
1.55867e-164
1.04746e-164
6.82877e-165
4.31161e-165
2.62884e-165
1.54106e-165
8.64194e-166
4.60537e-166
2.31968e-166
1.09792e-166
4.85881e-167
2.00436e-167
7.72126e-168
2.78858e-168
9.4244e-169
2.93193e-169
8.22782e-170
2.05087e-170
4.52495e-171
8.89925e-172
1.55757e-172
2.3903e-173
3.16728e-174
3.5993e-175
3.50109e-176
2.91136e-177
2.0682e-178
1.2561e-179
6.53819e-181
2.92829e-182
1.13416e-183
3.82048e-185
1.12615e-186
2.92301e-188
7.25842e-190
1.75853e-191
4.157e-193
9.58788e-195
2.1574e-196
4.73496e-198
1.01335e-199
2.11402e-201
4.29711e-203
8.50639e-205
1.63895e-206
3.07156e-208
5.59518e-210
9.89888e-212
1.6994e-213
2.82835e-215
4.55873e-217
7.10788e-219
1.07075e-220
1.55636e-222
2.17962e-224
2.9364e-226
3.79905e-228
4.71144e-230
5.58949e-232
6.32951e-234
6.82481e-236
6.98835e-238
6.77545e-240
6.19948e-242
5.33375e-244
4.29714e-246
3.22674e-248
2.24629e-250
1.4408e-252
8.45369e-255
4.49861e-257
2.14894e-259
9.09862e-262
3.36028e-264
1.06012e-266
2.77693e-269
5.79661e-272
9.03788e-275
9.35569e-278
4.8262e-281
5.93613e-281
1.15553e-277
1.11728e-274
7.16472e-272
3.43007e-269
1.30821e-266
4.14197e-264
1.12012e-261
2.64201e-259
5.52312e-257
1.03641e-254
1.76382e-252
2.74582e-250
3.93841e-248
5.23699e-246
6.49049e-244
7.53252e-242
8.21982e-240
8.46518e-238
8.25446e-236
7.64369e-234
6.73969e-232
5.67222e-230
4.56672e-228
3.5243e-226
2.61194e-224
1.86215e-222
1.27912e-220
8.47763e-219
5.42857e-217
3.3626e-215
2.01712e-213
1.17302e-211
6.61922e-210
3.62756e-208
1.93228e-206
1.00111e-204
5.04817e-203
2.47894e-201
1.18603e-199
5.53105e-198
2.51508e-196
1.11544e-194
4.8259e-193
2.03699e-191
8.38859e-190
3.37013e-188
1.29544e-186
4.37893e-185
1.29342e-183
3.31794e-182
7.3503e-181
1.3994e-179
2.28134e-178
3.17795e-177
3.78168e-176
3.84847e-175
3.35446e-174
2.5095e-173
1.62268e-172
9.21206e-172
4.65831e-171
2.1007e-170
8.38894e-170
2.97794e-169
9.54316e-169
2.81665e-168
7.78434e-168
2.01735e-167
4.88284e-167
1.10184e-166
2.32524e-166
4.61195e-166
8.64782e-166
1.54115e-165
2.62764e-165
4.3079e-165
6.82097e-165
1.04608e-164
1.55646e-164
2.24933e-164
3.16102e-164
4.32523e-164
5.77022e-164
7.51361e-164
9.56024e-164
1.19019e-163
1.45145e-163
1.73579e-163
2.03777e-163
2.35051e-163
2.66606e-163
2.97579e-163
3.27092e-163
3.54269e-163
3.77469e-163
3.87515e-163
3.20884e-163
4.70639e-164
3.11384e-172
9.81664e-170
7.83065e-162
4.8819e-161
5.81804e-161
5.67262e-161
5.34781e-161
4.96582e-161
4.54722e-161
4.10346e-161
3.64667e-161
3.18914e-161
2.7425e-161
2.31706e-161
1.92137e-161
1.56208e-161
1.24369e-161
9.68471e-162
7.36801e-162
5.47032e-162
3.95787e-162
2.78695e-162
1.90761e-162
1.26788e-162
8.16941e-163
5.08885e-163
3.05198e-163
1.75404e-163
9.60113e-164
4.98183e-164
2.43632e-164
1.11692e-164
4.78179e-165
1.91384e-165
7.18674e-166
2.5287e-166
8.20884e-167
2.41253e-167
6.3193e-168
1.4685e-168
3.04761e-169
5.63905e-170
9.16295e-171
1.28654e-171
1.55e-172
1.599e-173
1.40975e-174
1.06055e-175
6.80834e-177
3.73693e-178
1.76e-179
7.14665e-181
2.51592e-182
7.72507e-184
2.08171e-185
5.34155e-187
1.33564e-188
3.25501e-190
7.73187e-192
1.79006e-193
4.03873e-195
8.87813e-197
1.90093e-198
3.96293e-200
8.04029e-202
1.58673e-203
3.04403e-205
5.67296e-207
1.02626e-208
1.80065e-210
3.06139e-212
5.03836e-214
8.01791e-216
1.23228e-217
1.82671e-219
2.60805e-221
3.58079e-223
4.71982e-225
5.96149e-227
7.20102e-229
8.30019e-231
9.10725e-233
9.48717e-235
9.35528e-237
8.70415e-239
7.61301e-241
6.2339e-243
4.75674e-245
3.36424e-247
2.19188e-249
1.30607e-251
7.05712e-254
3.42235e-256
1.47079e-258
5.5126e-261
1.7647e-263
4.68973e-266
9.93014e-269
1.5703e-271
1.6484e-274
8.62179e-278
1.07726e-277
2.06796e-274
1.97154e-271
1.24643e-268
5.88203e-266
2.21103e-263
6.89836e-261
1.83804e-258
4.27076e-256
8.79345e-254
1.62492e-251
2.72271e-249
4.17238e-247
5.88992e-245
7.70652e-243
9.39615e-241
1.07254e-238
1.15089e-236
1.1652e-234
1.1167e-232
1.01607e-230
8.80061e-229
7.27367e-227
5.74914e-225
4.35443e-223
3.1662e-221
2.2139e-219
1.49094e-217
9.68428e-216
6.07497e-214
3.6848e-212
2.16349e-210
1.23085e-208
6.79151e-207
3.63748e-205
1.8925e-203
9.57125e-202
4.70823e-200
2.25389e-198
1.05048e-196
4.76854e-195
2.10889e-193
9.08838e-192
3.81711e-190
1.56248e-188
6.23304e-187
2.4228e-185
8.96726e-184
2.90855e-182
8.21538e-181
2.00862e-179
4.22783e-178
7.62626e-177
1.1751e-175
1.54436e-174
1.73195e-173
1.66077e-172
1.36468e-171
9.63083e-171
5.87978e-170
3.15681e-169
1.5125e-168
6.47502e-168
2.46043e-167
8.33986e-167
2.56123e-166
7.26064e-166
1.92981e-165
4.81346e-165
1.12259e-164
2.44535e-164
4.99447e-164
9.6163e-164
1.7555e-163
3.05262e-163
5.08729e-163
8.16352e-163
1.2666e-162
1.90534e-162
2.7833e-162
3.95258e-162
5.46339e-162
7.35987e-162
9.6764e-162
1.24302e-161
1.56184e-161
1.922e-161
2.31917e-161
2.74688e-161
3.1968e-161
3.65879e-161
4.12145e-161
4.57259e-161
5.00008e-161
5.39203e-161
5.72522e-161
5.86549e-161
4.87428e-161
7.51464e-162
8.54132e-170
2.12788e-167
9.86383e-160
5.88339e-159
6.99954e-159
6.83846e-159
6.46652e-159
6.02815e-159
5.54682e-159
5.03456e-159
4.50438e-159
3.96968e-159
3.44346e-159
2.93756e-159
2.46205e-159
2.02521e-159
1.63309e-159
1.28931e-159
9.95554e-160
7.50965e-160
5.52565e-160
3.96065e-160
2.762e-160
1.87192e-160
1.23107e-160
7.83533e-161
4.80788e-161
2.83216e-161
1.59266e-161
8.51716e-162
4.30683e-162
2.04719e-162
9.10446e-163
3.78899e-163
1.48013e-163
5.42361e-164
1.83802e-164
5.66303e-165
1.56118e-165
3.82697e-166
8.39102e-167
1.6433e-167
2.83174e-168
4.22129e-169
5.40369e-170
5.92664e-171
5.55464e-172
4.43777e-173
3.02016e-174
1.75334e-175
8.71088e-177
3.72017e-178
1.37306e-179
4.40549e-181
1.23637e-182
3.2873e-184
8.50613e-186
2.14259e-187
5.25445e-189
1.25463e-190
2.91663e-192
6.60018e-194
1.45358e-195
3.11449e-197
6.48972e-199
1.31445e-200
2.58643e-202
4.94099e-204
9.15732e-206
1.64518e-207
2.86262e-209
4.81935e-211
7.84189e-213
1.23182e-214
1.86556e-216
2.72016e-218
3.81275e-220
5.12882e-222
6.60903e-224
8.14204e-226
9.56873e-228
1.07018e-229
1.13604e-231
1.14127e-233
1.08149e-235
9.63203e-238
8.02943e-240
6.23595e-242
4.48805e-244
2.97492e-246
1.80314e-248
9.90855e-251
4.88594e-253
2.13471e-255
8.13267e-258
2.64584e-260
7.14473e-263
1.53698e-265
2.46891e-268
2.63224e-271
1.39809e-274
1.77747e-274
3.35963e-271
3.15327e-268
1.96229e-265
9.11376e-263
3.37108e-260
1.0348e-257
2.71222e-255
6.19813e-253
1.25494e-250
2.27994e-248
3.75525e-246
5.65561e-244
7.84467e-242
1.00833e-239
1.20747e-237
1.35338e-235
1.42566e-233
1.41663e-231
1.33214e-229
1.18898e-227
1.0099e-225
8.18282e-224
6.33871e-222
4.70367e-220
3.34966e-218
2.29308e-216
1.51132e-214
9.60327e-213
5.89073e-211
3.49234e-209
2.00322e-207
1.11284e-205
5.99257e-204
3.13055e-202
1.58769e-200
7.82222e-199
3.74587e-197
1.74438e-195
7.9026e-194
3.48399e-192
1.49507e-190
6.24577e-189
2.54023e-187
1.00577e-185
3.87612e-184
1.45361e-182
5.16409e-181
1.60205e-179
4.31304e-178
1.00177e-176
1.99694e-175
3.40212e-174
4.93981e-173
6.1073e-172
6.43741e-171
5.80198e-170
4.48446e-169
2.97956e-168
1.71484e-167
8.69713e-167
3.94331e-166
1.60007e-165
5.77663e-165
1.86777e-164
5.49464e-164
1.49562e-163
3.82112e-163
9.16563e-163
2.05776e-162
4.32316e-162
8.53959e-162
1.59535e-161
2.83485e-161
4.80941e-161
7.83368e-161
1.23029e-160
1.87018e-160
2.75889e-160
3.95568e-160
5.51848e-160
7.50026e-160
9.94448e-160
1.28816e-159
1.63208e-159
2.02464e-159
2.46238e-159
2.9394e-159
3.44759e-159
3.97705e-159
4.51603e-159
5.05168e-159
5.57052e-159
6.05944e-159
6.50581e-159
6.88358e-159
7.03707e-159
5.86627e-159
9.50505e-160
1.87847e-167
3.78291e-165
1.00191e-157
5.70922e-157
6.78236e-157
6.64141e-157
6.3009e-157
5.89804e-157
5.45445e-157
4.98024e-157
4.48653e-157
3.98507e-157
3.48745e-157
3.00449e-157
2.54565e-157
2.11907e-157
1.73108e-157
1.38599e-157
1.08657e-157
8.33045e-158
6.23625e-158
4.55196e-158
3.23532e-158
2.23667e-158
1.50171e-158
9.76748e-159
6.13288e-159
3.70327e-159
2.13997e-159
1.18004e-159
6.17468e-160
3.04617e-160
1.40879e-160
6.10232e-161
2.48142e-161
9.47268e-162
3.35294e-162
1.08424e-162
3.1512e-163
8.16224e-164
1.8932e-164
3.9289e-165
7.19212e-166
1.14073e-166
1.55518e-167
1.81806e-168
1.81641e-169
1.54566e-170
1.11859e-171
6.8907e-173
3.62323e-174
1.63295e-175
6.34031e-177
2.13296e-178
6.25485e-180
1.72828e-181
4.6406e-183
1.21134e-184
3.07473e-186
7.59025e-188
1.82232e-189
4.25484e-191
9.65957e-193
2.13174e-194
4.57154e-196
9.52259e-198
1.9257e-199
3.77833e-201
7.18778e-203
1.32476e-204
2.36348e-206
4.0778e-208
6.79678e-210
1.09316e-211
1.69439e-213
2.52752e-215
3.62303e-217
4.98228e-219
6.56111e-221
8.25773e-223
9.91142e-225
1.13179e-226
1.22633e-228
1.25715e-230
1.21534e-232
1.10398e-234
9.38413e-237
7.42983e-239
5.45011e-241
3.68132e-243
2.27326e-245
1.27244e-247
6.39e-250
2.84274e-252
1.10255e-254
3.65105e-257
1.00336e-259
2.19628e-262
3.58921e-265
3.89247e-268
2.10266e-271
2.72529e-271
5.06402e-268
4.67194e-265
2.85736e-262
1.30405e-259
4.73906e-257
1.42899e-254
3.67853e-252
8.25483e-250
1.64092e-247
2.92633e-245
4.73027e-243
6.99015e-241
9.51151e-239
1.19908e-236
1.40797e-234
1.54706e-232
1.59723e-230
1.55508e-228
1.43245e-226
1.25202e-224
1.04111e-222
8.25593e-221
6.25701e-219
4.54105e-217
3.16168e-215
2.11528e-213
1.36195e-211
8.45085e-210
5.05975e-208
2.92651e-206
1.63688e-204
8.86221e-203
4.64835e-201
2.36385e-199
1.16627e-197
5.58597e-196
2.59858e-194
1.17462e-192
5.16098e-191
2.2047e-189
9.15836e-188
3.69971e-186
1.45339e-184
5.55132e-183
2.06107e-181
7.43537e-180
2.52684e-178
7.47168e-177
1.91056e-175
4.20086e-174
7.90354e-173
1.26751e-171
1.72876e-170
2.00463e-169
1.98038e-168
1.67333e-167
1.21366e-166
7.57539e-166
4.10314e-165
1.96347e-164
8.41363e-164
3.23037e-163
1.10616e-162
3.40783e-162
9.59876e-162
2.50778e-161
6.15469e-161
1.41834e-160
3.06202e-160
6.19837e-160
1.18322e-159
2.14373e-159
3.7071e-159
6.13527e-159
9.76604e-159
1.50084e-158
2.23469e-158
3.23179e-158
4.54633e-158
6.22815e-158
8.31988e-158
1.08531e-157
1.38465e-157
1.72981e-157
2.11812e-157
2.5454e-157
3.00541e-157
3.49017e-157
3.99029e-157
4.49499e-157
4.9927e-157
5.47157e-157
5.92032e-157
6.32833e-157
6.67198e-157
6.80546e-157
5.68851e-157
9.69029e-158
3.37964e-165
5.58481e-163
8.28643e-156
4.5027e-155
5.34267e-155
5.24444e-155
4.99279e-155
4.69361e-155
4.36312e-155
4.00809e-155
3.6362e-155
3.25568e-155
2.87486e-155
2.50167e-155
2.14324e-155
1.80593e-155
1.49497e-155
1.21428e-155
9.66924e-156
7.53838e-156
5.7446e-156
4.2724e-156
3.09667e-156
2.18482e-156
1.49818e-156
9.961e-157
6.40106e-157
3.96274e-157
2.35361e-157
1.33895e-157
7.25604e-158
3.71922e-158
1.79101e-158
8.08459e-159
3.42504e-159
1.36281e-159
5.04098e-160
1.71303e-160
5.25877e-161
1.44203e-161
3.54311e-162
7.80135e-163
1.51993e-163
2.57111e-164
3.74235e-165
4.67564e-166
4.99418e-167
4.54036e-168
3.50547e-169
2.29914e-170
1.28399e-171
6.12878e-173
2.51243e-174
8.89413e-176
2.73507e-177
7.87757e-179
2.20127e-180
5.97097e-182
1.5728e-183
4.02411e-185
1.00021e-186
2.41514e-188
5.6648e-190
1.29044e-191
2.85414e-193
6.12687e-195
1.27593e-196
2.5763e-198
5.04047e-200
9.54848e-202
1.74996e-203
3.09992e-205
5.30224e-207
8.74716e-209
1.39006e-210
2.12507e-212
3.12056e-214
4.3945e-216
5.92412e-218
7.63002e-220
9.3687e-222
1.09409e-223
1.21203e-225
1.26996e-227
1.25453e-229
1.16416e-231
1.01067e-233
8.17062e-236
6.11848e-238
4.21802e-240
2.65785e-242
1.51777e-244
7.77448e-247
3.52716e-249
1.39484e-251
4.70874e-254
1.31895e-256
2.94216e-259
4.89904e-262
5.41253e-265
2.97804e-268
3.94377e-268
7.19322e-265
6.51315e-262
3.9089e-259
1.75029e-256
6.2396e-254
1.8453e-251
4.6581e-249
1.02484e-246
1.99696e-244
3.49019e-242
5.52801e-240
8.00265e-238
1.06651e-235
1.31654e-233
1.51338e-231
1.6275e-229
1.6441e-227
1.56583e-225
1.41052e-223
1.20529e-221
9.7954e-220
7.58924e-218
5.61768e-216
3.98059e-214
2.70487e-212
1.76547e-210
1.1085e-208
6.70437e-207
3.91082e-205
2.20268e-203
1.19909e-201
6.31483e-200
3.2199e-198
1.59077e-196
7.61958e-195
3.54041e-193
1.59651e-191
6.98948e-190
2.97162e-188
1.22714e-186
4.9225e-185
1.91803e-183
7.25842e-182
2.66707e-180
9.51174e-179
3.29066e-177
1.06587e-175
2.99289e-174
7.2416e-173
1.50171e-171
2.65686e-170
3.99686e-169
5.10353e-168
5.53303e-167
5.10799e-166
4.03531e-165
2.73952e-164
1.60253e-163
8.15357e-163
3.6769e-162
1.48697e-161
5.39167e-161
1.74782e-160
5.12432e-160
1.38122e-159
3.46189e-159
8.15456e-159
1.80318e-158
3.7386e-158
7.28398e-158
1.34259e-157
2.35785e-157
3.96707e-157
6.40386e-157
9.95991e-157
1.49736e-156
2.18292e-156
3.09332e-156
4.2671e-156
5.73704e-156
7.52853e-156
9.65745e-156
1.21298e-155
1.49366e-155
1.80478e-155
2.1425e-155
2.50164e-155
2.87593e-155
3.25826e-155
3.64072e-155
4.01495e-155
4.37259e-155
4.7059e-155
5.00776e-155
5.26067e-155
5.35335e-155
4.48475e-155
8.04081e-156
5.04029e-163
6.89993e-161
5.60113e-154
2.89404e-153
3.43078e-153
3.37634e-153
3.22586e-153
3.04593e-153
2.84649e-153
2.63118e-153
2.40421e-153
2.17022e-153
1.93403e-153
1.70029e-153
1.47329e-153
1.257e-153
1.05484e-153
8.69561e-154
7.03722e-154
5.58283e-154
4.33398e-154
3.28682e-154
2.43136e-154
1.75197e-154
1.22774e-154
8.34809e-155
5.49212e-155
3.4866e-155
2.12895e-155
1.25019e-155
7.02302e-156
3.74478e-156
1.8806e-156
8.86057e-157
3.91547e-157
1.62498e-157
6.28537e-158
2.24767e-158
7.3039e-159
2.125e-159
5.53941e-160
1.29581e-160
2.6927e-161
4.87091e-162
7.58953e-163
1.01626e-163
1.16407e-164
1.13435e-165
9.37554e-167
6.57064e-168
3.91192e-169
1.98521e-170
8.62574e-172
3.22572e-173
1.0442e-174
3.14519e-176
9.17439e-178
2.59346e-179
7.10867e-181
1.89003e-182
4.87561e-184
1.22044e-185
2.96439e-187
6.98612e-189
1.59709e-190
3.54062e-192
7.60875e-194
1.58421e-195
3.19391e-197
6.23079e-199
1.17526e-200
2.14147e-202
3.76571e-204
6.3836e-206
1.04194e-207
1.63529e-209
2.46429e-211
3.55986e-213
4.92096e-215
6.49682e-217
8.17441e-219
9.77901e-221
1.10939e-222
1.19005e-224
1.20321e-226
1.14246e-228
1.01459e-230
8.38856e-233
6.42279e-235
4.52625e-237
2.91484e-239
1.7008e-241
8.90003e-244
4.12414e-246
1.66546e-248
5.74034e-251
1.64136e-253
3.73685e-256
6.3495e-259
7.15714e-262
4.017e-265
5.44922e-265
9.74131e-262
8.64351e-259
5.0826e-256
2.22946e-253
7.78442e-251
2.25444e-248
5.57186e-246
1.20001e-243
2.28847e-241
3.91369e-239
6.06421e-237
8.58641e-235
1.11897e-232
1.35038e-230
1.51716e-228
1.59425e-226
1.57326e-224
1.46329e-222
1.28692e-220
1.07328e-218
8.51052e-217
6.43128e-215
4.64157e-213
3.20554e-211
2.12213e-209
1.34889e-207
8.24419e-206
4.85137e-204
2.75201e-202
1.50653e-200
7.96663e-199
4.07308e-197
2.01493e-195
9.6512e-194
4.47861e-192
2.01445e-190
8.78612e-189
3.717e-187
1.52557e-185
6.07515e-184
2.34727e-182
8.79825e-181
3.1985e-179
1.1273e-177
3.84985e-176
1.27305e-174
3.91484e-173
1.03969e-171
2.37081e-170
4.61831e-169
7.65358e-168
1.07598e-166
1.28168e-165
1.29483e-164
1.11357e-163
8.20174e-163
5.19766e-162
2.84173e-161
1.35534e-160
5.75219e-160
2.19193e-159
7.48909e-159
2.29343e-158
6.39016e-158
1.64725e-157
3.95808e-157
8.93763e-157
1.89335e-156
3.76421e-156
7.04996e-156
1.2536e-155
2.13285e-155
3.49055e-155
5.49468e-155
8.34734e-155
1.22708e-154
1.75046e-154
2.42873e-154
3.2827e-154
4.32817e-154
5.57529e-154
7.02817e-154
8.68544e-154
1.05377e-153
1.25597e-153
1.47243e-153
1.69975e-153
1.93401e-153
2.17093e-153
2.40583e-153
2.63388e-153
2.85036e-153
3.05102e-153
3.23207e-153
3.38289e-153
3.43409e-153
2.88207e-153
5.45117e-154
6.28242e-161
7.16232e-159
3.08844e-152
1.51035e-151
1.78924e-151
1.76554e-151
1.69309e-151
1.60587e-151
1.50888e-151
1.40364e-151
1.29199e-151
1.17602e-151
1.05793e-151
9.39895e-152
8.23972e-152
7.12109e-152
6.06067e-152
5.07348e-152
4.17608e-152
3.37434e-152
2.67126e-152
2.06801e-152
1.56306e-152
1.15154e-152
8.25462e-153
5.74427e-153
3.87095e-153
2.52088e-153
1.58299e-153
9.60141e-154
5.59678e-154
3.10899e-154
1.63139e-154
8.03982e-155
3.71203e-155
1.60842e-155
6.5106e-156
2.45388e-156
8.46151e-157
2.61886e-157
7.25629e-158
1.80612e-158
4.01268e-159
7.78599e-160
1.30244e-160
1.87477e-161
2.31054e-162
2.42189e-163
2.15078e-164
1.61689e-165
1.03038e-166
5.58226e-168
2.58157e-169
1.02412e-170
3.5043e-172
1.10771e-173