/*--------------------------------*- C++ -*----------------------------------*\
| =========                 |                                                 |
| \\      /  F ield         | OpenFOAM: The Open Source CFD Toolbox           |
|  \\    /   O peration     | Version:  2412                                  |
|   \\  /    A nd           | Website:  www.openfoam.com                      |
|    \\/     M anipulation  |                                                 |
\*---------------------------------------------------------------------------*/
FoamFile
{
    version     2.0;
    format      ascii;
    arch        "LSB;label=32;scalar=64";
    class       volScalarField;
    location    "1.19";
    object      p;
}
// * * * * * * * * * * * * * * * * * * * * * * * * * * * * * * * * * * * * * //

dimensions      [1 -1 -2 0 0 0 0];

internalField   nonuniform List<scalar> 
40000
(
0
3.92503e-05
-6.9443e-06
-0.000138571
-0.000359461
-0.000672122
-0.00107445
-0.00156368
-0.00213916
-0.00280154
-0.00355095
-0.00438644
-0.00530664
-0.00631037
-0.00739672
-0.00856479
-0.00981354
-0.0111417
-0.012548
-0.0140311
-0.0155893
-0.0172213
-0.0189254
-0.0207
-0.0225432
-0.0244533
-0.0264284
-0.0284666
-0.0305658
-0.032724
-0.034939
-0.0372086
-0.0395306
-0.0419025
-0.0443221
-0.0467867
-0.049294
-0.0518414
-0.0544263
-0.057046
-0.0596979
-0.0623792
-0.0650873
-0.0678192
-0.0705722
-0.0733435
-0.0761302
-0.0789294
-0.0817382
-0.0845537
-0.0873729
-0.0901929
-0.0930108
-0.0958236
-0.0986284
-0.101422
-0.104202
-0.106966
-0.109709
-0.11243
-0.115126
-0.117794
-0.12043
-0.123033
-0.1256
-0.128128
-0.130615
-0.133057
-0.135453
-0.137799
-0.140094
-0.142336
-0.144521
-0.146649
-0.148716
-0.150721
-0.152661
-0.154535
-0.156341
-0.158076
-0.159741
-0.161332
-0.162849
-0.164289
-0.165652
-0.166936
-0.16814
-0.169262
-0.170303
-0.17126
-0.172133
-0.172921
-0.173624
-0.17424
-0.174769
-0.175211
-0.175566
-0.175832
-0.17601
-0.176099
-0.1761
-0.176013
-0.175836
-0.175572
-0.17522
-0.174779
-0.174252
-0.173637
-0.172937
-0.17215
-0.171279
-0.170323
-0.169285
-0.168163
-0.166961
-0.165679
-0.164318
-0.162879
-0.161364
-0.159774
-0.158111
-0.156377
-0.154572
-0.1527
-0.150761
-0.148758
-0.146692
-0.144566
-0.142382
-0.140141
-0.137847
-0.135502
-0.133107
-0.130666
-0.128181
-0.125654
-0.123088
-0.120486
-0.11785
-0.115183
-0.112488
-0.109768
-0.107025
-0.104262
-0.101483
-0.0986893
-0.0958853
-0.093073
-0.0902557
-0.0874362
-0.0846174
-0.0818023
-0.0789939
-0.076195
-0.0734087
-0.0706378
-0.0678851
-0.0651534
-0.0624457
-0.0597646
-0.0571129
-0.0544934
-0.0519087
-0.0493617
-0.0468547
-0.0443903
-0.0419711
-0.0395994
-0.0372776
-0.0350081
-0.0327932
-0.0306351
-0.028536
-0.0264979
-0.0245228
-0.0226126
-0.0207693
-0.0189948
-0.0172908
-0.0156589
-0.0141006
-0.0126175
-0.0112111
-0.00988286
-0.00863395
-0.0074656
-0.00637888
-0.00537475
-0.00445434
-0.00361861
-0.00286831
-0.0022041
-0.0016267
-0.00113655
-0.000734411
-0.000420171
-0.00019435
-5.71766e-05
-9.54405e-06
-5.14675e-05
-3.92404
-3.924
-3.92404
-3.92418
-3.9244
-3.92471
-3.92511
-3.9256
-3.92617
-3.92684
-3.92759
-3.92842
-3.92934
-3.93034
-3.93143
-3.9326
-3.93385
-3.93518
-3.93658
-3.93806
-3.93962
-3.94125
-3.94296
-3.94473
-3.94658
-3.94849
-3.95046
-3.9525
-3.9546
-3.95675
-3.95897
-3.96124
-3.96356
-3.96593
-3.96835
-3.97081
-3.97332
-3.97587
-3.97845
-3.98107
-3.98372
-3.9864
-3.98911
-3.99184
-3.99459
-3.99736
-4.00015
-4.00295
-4.00575
-4.00857
-4.01139
-4.01421
-4.01702
-4.01983
-4.02264
-4.02543
-4.02821
-4.03097
-4.03371
-4.03643
-4.03912
-4.04179
-4.04443
-4.04703
-4.04959
-4.05212
-4.0546
-4.05704
-4.05944
-4.06178
-4.06407
-4.06631
-4.0685
-4.07062
-4.07269
-4.07469
-4.07663
-4.0785
-4.08031
-4.08204
-4.0837
-4.08529
-4.08681
-4.08824
-4.08961
-4.09089
-4.09209
-4.09321
-4.09425
-4.09521
-4.09608
-4.09687
-4.09757
-4.09818
-4.09871
-4.09915
-4.09951
-4.09977
-4.09995
-4.10004
-4.10004
-4.09995
-4.09978
-4.09951
-4.09916
-4.09872
-4.0982
-4.09758
-4.09688
-4.0961
-4.09523
-4.09427
-4.09323
-4.09212
-4.09091
-4.08963
-4.08827
-4.08684
-4.08532
-4.08374
-4.08207
-4.08034
-4.07854
-4.07667
-4.07473
-4.07273
-4.07067
-4.06854
-4.06636
-4.06412
-4.06183
-4.05949
-4.05709
-4.05465
-4.05217
-4.04965
-4.04708
-4.04448
-4.04185
-4.03918
-4.03649
-4.03377
-4.03103
-4.02827
-4.02549
-4.0227
-4.01989
-4.01708
-4.01427
-4.01145
-4.00863
-4.00582
-4.00301
-4.00021
-3.99743
-3.99466
-3.99191
-3.98918
-3.98647
-3.98379
-3.98114
-3.97852
-3.97593
-3.97339
-3.97088
-3.96842
-3.966
-3.96363
-3.96131
-3.95904
-3.95682
-3.95467
-3.95257
-3.95053
-3.94855
-3.94664
-3.9448
-3.94303
-3.94132
-3.93969
-3.93813
-3.93665
-3.93524
-3.93392
-3.93267
-3.9315
-3.93041
-3.92941
-3.92849
-3.92765
-3.9269
-3.92624
-3.92566
-3.92517
-3.92477
-3.92446
-3.92423
-3.92409
-3.92405
-3.92409
-7.848
-7.84795
-7.848
-7.84813
-7.84836
-7.84867
-7.84907
-7.84956
-7.85014
-7.8508
-7.85155
-7.85239
-7.85331
-7.85431
-7.8554
-7.85657
-7.85782
-7.85914
-7.86055
-7.86203
-7.86359
-7.86523
-7.86693
-7.86871
-7.87055
-7.87246
-7.87444
-7.87648
-7.87858
-7.88074
-7.88295
-7.88522
-7.88755
-7.88992
-7.89234
-7.89481
-7.89731
-7.89986
-7.90245
-7.90507
-7.90772
-7.9104
-7.91311
-7.91584
-7.9186
-7.92137
-7.92416
-7.92696
-7.92977
-7.93258
-7.9354
-7.93822
-7.94104
-7.94385
-7.94666
-7.94945
-7.95223
-7.95499
-7.95774
-7.96046
-7.96315
-7.96582
-7.96845
-7.97106
-7.97362
-7.97615
-7.97863
-7.98107
-7.98347
-7.98581
-7.98811
-7.99035
-7.99253
-7.99466
-7.99672
-7.99872
-8.00066
-8.00254
-8.00434
-8.00607
-8.00774
-8.00933
-8.01084
-8.01228
-8.01364
-8.01492
-8.01613
-8.01725
-8.01829
-8.01924
-8.02011
-8.0209
-8.0216
-8.02222
-8.02275
-8.02319
-8.02354
-8.02381
-8.02399
-8.02407
-8.02408
-8.02399
-8.02381
-8.02355
-8.0232
-8.02276
-8.02223
-8.02162
-8.02092
-8.02013
-8.01926
-8.01831
-8.01727
-8.01615
-8.01495
-8.01367
-8.01231
-8.01087
-8.00936
-8.00777
-8.00611
-8.00438
-8.00257
-8.0007
-7.99877
-7.99676
-7.9947
-7.99258
-7.99039
-7.98815
-7.98586
-7.98352
-7.98112
-7.97868
-7.9762
-7.97367
-7.97111
-7.96851
-7.96587
-7.96321
-7.96051
-7.95779
-7.95505
-7.95229
-7.94951
-7.94672
-7.94391
-7.9411
-7.93828
-7.93546
-7.93264
-7.92983
-7.92702
-7.92422
-7.92143
-7.91866
-7.91591
-7.91318
-7.91047
-7.90779
-7.90514
-7.90251
-7.89993
-7.89738
-7.89487
-7.89241
-7.88999
-7.88762
-7.88529
-7.88302
-7.88081
-7.87865
-7.87655
-7.87451
-7.87253
-7.87062
-7.86878
-7.867
-7.8653
-7.86366
-7.8621
-7.86062
-7.85921
-7.85788
-7.85663
-7.85547
-7.85438
-7.85337
-7.85245
-7.85162
-7.85087
-7.8502
-7.84962
-7.84913
-7.84873
-7.84842
-7.84819
-7.84805
-7.84801
-7.84805
-11.7719
-11.7718
-11.7719
-11.772
-11.7722
-11.7725
-11.7729
-11.7734
-11.774
-11.7747
-11.7754
-11.7763
-11.7772
-11.7782
-11.7793
-11.7805
-11.7817
-11.783
-11.7844
-11.7859
-11.7875
-11.7891
-11.7908
-11.7926
-11.7945
-11.7964
-11.7984
-11.8004
-11.8025
-11.8047
-11.8069
-11.8092
-11.8115
-11.8139
-11.8163
-11.8188
-11.8213
-11.8238
-11.8264
-11.829
-11.8317
-11.8344
-11.8371
-11.8398
-11.8426
-11.8454
-11.8482
-11.851
-11.8538
-11.8566
-11.8594
-11.8622
-11.8651
-11.8679
-11.8707
-11.8735
-11.8763
-11.879
-11.8818
-11.8845
-11.8872
-11.8899
-11.8925
-11.8951
-11.8977
-11.9002
-11.9027
-11.9052
-11.9076
-11.9099
-11.9122
-11.9144
-11.9166
-11.9188
-11.9208
-11.9228
-11.9248
-11.9266
-11.9285
-11.9302
-11.9319
-11.9334
-11.935
-11.9364
-11.9378
-11.9391
-11.9403
-11.9414
-11.9424
-11.9434
-11.9442
-11.945
-11.9457
-11.9464
-11.9469
-11.9473
-11.9477
-11.9479
-11.9481
-11.9482
-11.9482
-11.9481
-11.948
-11.9477
-11.9473
-11.9469
-11.9464
-11.9458
-11.9451
-11.9443
-11.9434
-11.9424
-11.9414
-11.9403
-11.9391
-11.9378
-11.9364
-11.935
-11.9335
-11.9319
-11.9302
-11.9285
-11.9267
-11.9248
-11.9229
-11.9209
-11.9188
-11.9167
-11.9145
-11.9122
-11.91
-11.9076
-11.9052
-11.9028
-11.9003
-11.8977
-11.8952
-11.8926
-11.8899
-11.8873
-11.8846
-11.8818
-11.8791
-11.8763
-11.8735
-11.8707
-11.8679
-11.8651
-11.8623
-11.8595
-11.8567
-11.8538
-11.851
-11.8482
-11.8454
-11.8427
-11.8399
-11.8372
-11.8344
-11.8318
-11.8291
-11.8265
-11.8239
-11.8213
-11.8188
-11.8164
-11.8139
-11.8116
-11.8092
-11.807
-11.8047
-11.8026
-11.8005
-11.7984
-11.7964
-11.7945
-11.7927
-11.7909
-11.7892
-11.7876
-11.786
-11.7845
-11.7831
-11.7818
-11.7805
-11.7794
-11.7783
-11.7773
-11.7763
-11.7755
-11.7747
-11.7741
-11.7735
-11.773
-11.7726
-11.7723
-11.7721
-11.7719
-11.7719
-11.7719
-15.6957
-15.6956
-15.6957
-15.6958
-15.696
-15.6963
-15.6967
-15.6972
-15.6978
-15.6985
-15.6992
-15.7001
-15.701
-15.702
-15.7031
-15.7043
-15.7055
-15.7069
-15.7083
-15.7098
-15.7113
-15.713
-15.7147
-15.7165
-15.7183
-15.7202
-15.7222
-15.7243
-15.7264
-15.7285
-15.7308
-15.733
-15.7354
-15.7378
-15.7402
-15.7427
-15.7452
-15.7477
-15.7503
-15.753
-15.7556
-15.7583
-15.761
-15.7638
-15.7666
-15.7693
-15.7721
-15.7749
-15.7778
-15.7806
-15.7834
-15.7863
-15.7891
-15.7919
-15.7947
-15.7975
-15.8003
-15.8031
-15.8059
-15.8086
-15.8113
-15.814
-15.8166
-15.8192
-15.8218
-15.8243
-15.8268
-15.8293
-15.8317
-15.834
-15.8363
-15.8386
-15.8408
-15.8429
-15.845
-15.847
-15.849
-15.8508
-15.8526
-15.8544
-15.8561
-15.8577
-15.8592
-15.8606
-15.862
-15.8633
-15.8645
-15.8656
-15.8666
-15.8676
-15.8685
-15.8693
-15.87
-15.8706
-15.8711
-15.8716
-15.8719
-15.8722
-15.8724
-15.8725
-15.8725
-15.8724
-15.8722
-15.8719
-15.8716
-15.8711
-15.8706
-15.87
-15.8693
-15.8685
-15.8676
-15.8667
-15.8656
-15.8645
-15.8633
-15.862
-15.8606
-15.8592
-15.8577
-15.8561
-15.8544
-15.8527
-15.8509
-15.849
-15.847
-15.845
-15.843
-15.8408
-15.8386
-15.8364
-15.8341
-15.8317
-15.8293
-15.8269
-15.8244
-15.8219
-15.8193
-15.8167
-15.814
-15.8113
-15.8086
-15.8059
-15.8032
-15.8004
-15.7976
-15.7948
-15.792
-15.7892
-15.7863
-15.7835
-15.7807
-15.7778
-15.775
-15.7722
-15.7694
-15.7666
-15.7639
-15.7611
-15.7584
-15.7557
-15.753
-15.7504
-15.7478
-15.7453
-15.7427
-15.7403
-15.7378
-15.7354
-15.7331
-15.7308
-15.7286
-15.7264
-15.7243
-15.7223
-15.7203
-15.7184
-15.7165
-15.7147
-15.713
-15.7114
-15.7098
-15.7083
-15.7069
-15.7056
-15.7043
-15.7032
-15.7021
-15.7011
-15.7001
-15.6993
-15.6985
-15.6979
-15.6973
-15.6968
-15.6964
-15.6961
-15.6959
-15.6957
-15.6957
-15.6957
-19.6194
-19.6193
-19.6194
-19.6195
-19.6197
-19.6201
-19.6205
-19.621
-19.6215
-19.6222
-19.623
-19.6238
-19.6247
-19.6257
-19.6268
-19.628
-19.6293
-19.6306
-19.632
-19.6335
-19.6351
-19.6367
-19.6385
-19.6402
-19.6421
-19.644
-19.646
-19.6481
-19.6502
-19.6524
-19.6546
-19.6569
-19.6592
-19.6616
-19.664
-19.6665
-19.6691
-19.6716
-19.6742
-19.6769
-19.6795
-19.6822
-19.685
-19.6877
-19.6905
-19.6933
-19.6961
-19.6989
-19.7018
-19.7046
-19.7074
-19.7103
-19.7131
-19.716
-19.7188
-19.7216
-19.7244
-19.7272
-19.7299
-19.7327
-19.7354
-19.7381
-19.7408
-19.7434
-19.746
-19.7485
-19.751
-19.7535
-19.7559
-19.7582
-19.7606
-19.7628
-19.765
-19.7672
-19.7692
-19.7713
-19.7732
-19.7751
-19.7769
-19.7787
-19.7803
-19.7819
-19.7835
-19.7849
-19.7863
-19.7876
-19.7888
-19.7899
-19.791
-19.7919
-19.7928
-19.7936
-19.7943
-19.7949
-19.7955
-19.7959
-19.7963
-19.7965
-19.7967
-19.7968
-19.7968
-19.7967
-19.7965
-19.7963
-19.7959
-19.7955
-19.7949
-19.7943
-19.7936
-19.7928
-19.7919
-19.791
-19.7899
-19.7888
-19.7876
-19.7863
-19.7849
-19.7835
-19.782
-19.7804
-19.7787
-19.777
-19.7751
-19.7732
-19.7713
-19.7693
-19.7672
-19.7651
-19.7629
-19.7606
-19.7583
-19.7559
-19.7535
-19.7511
-19.7486
-19.746
-19.7434
-19.7408
-19.7382
-19.7355
-19.7327
-19.73
-19.7272
-19.7245
-19.7217
-19.7188
-19.716
-19.7132
-19.7103
-19.7075
-19.7047
-19.7018
-19.699
-19.6962
-19.6934
-19.6906
-19.6878
-19.685
-19.6823
-19.6796
-19.6769
-19.6743
-19.6717
-19.6691
-19.6666
-19.6641
-19.6617
-19.6593
-19.6569
-19.6547
-19.6524
-19.6503
-19.6481
-19.6461
-19.6441
-19.6422
-19.6403
-19.6385
-19.6368
-19.6352
-19.6336
-19.6321
-19.6307
-19.6293
-19.6281
-19.6269
-19.6258
-19.6248
-19.6239
-19.623
-19.6223
-19.6216
-19.621
-19.6205
-19.6201
-19.6198
-19.6196
-19.6194
-19.6194
-19.6194
-23.543
-23.543
-23.543
-23.5431
-23.5434
-23.5437
-23.5441
-23.5446
-23.5452
-23.5458
-23.5466
-23.5474
-23.5484
-23.5494
-23.5505
-23.5517
-23.5529
-23.5543
-23.5557
-23.5572
-23.5588
-23.5604
-23.5622
-23.564
-23.5658
-23.5678
-23.5698
-23.5718
-23.5739
-23.5761
-23.5784
-23.5807
-23.583
-23.5854
-23.5879
-23.5904
-23.5929
-23.5955
-23.5981
-23.6007
-23.6034
-23.6061
-23.6089
-23.6117
-23.6144
-23.6172
-23.6201
-23.6229
-23.6257
-23.6286
-23.6315
-23.6343
-23.6372
-23.64
-23.6428
-23.6457
-23.6485
-23.6513
-23.6541
-23.6568
-23.6595
-23.6623
-23.6649
-23.6676
-23.6702
-23.6727
-23.6752
-23.6777
-23.6801
-23.6825
-23.6848
-23.6871
-23.6893
-23.6915
-23.6935
-23.6956
-23.6975
-23.6994
-23.7013
-23.703
-23.7047
-23.7063
-23.7078
-23.7093
-23.7107
-23.712
-23.7132
-23.7143
-23.7154
-23.7163
-23.7172
-23.718
-23.7187
-23.7194
-23.7199
-23.7203
-23.7207
-23.721
-23.7211
-23.7212
-23.7212
-23.7212
-23.721
-23.7207
-23.7203
-23.7199
-23.7194
-23.7187
-23.718
-23.7172
-23.7164
-23.7154
-23.7143
-23.7132
-23.712
-23.7107
-23.7093
-23.7079
-23.7063
-23.7047
-23.703
-23.7013
-23.6995
-23.6976
-23.6956
-23.6936
-23.6915
-23.6893
-23.6871
-23.6849
-23.6825
-23.6802
-23.6778
-23.6753
-23.6728
-23.6702
-23.6676
-23.665
-23.6623
-23.6596
-23.6569
-23.6541
-23.6513
-23.6486
-23.6457
-23.6429
-23.6401
-23.6372
-23.6344
-23.6315
-23.6287
-23.6258
-23.623
-23.6201
-23.6173
-23.6145
-23.6117
-23.609
-23.6062
-23.6035
-23.6008
-23.5982
-23.5955
-23.593
-23.5904
-23.5879
-23.5855
-23.5831
-23.5807
-23.5784
-23.5762
-23.574
-23.5719
-23.5698
-23.5678
-23.5659
-23.564
-23.5622
-23.5605
-23.5589
-23.5573
-23.5558
-23.5544
-23.553
-23.5517
-23.5506
-23.5495
-23.5484
-23.5475
-23.5467
-23.5459
-23.5452
-23.5447
-23.5442
-23.5437
-23.5434
-23.5432
-23.5431
-23.543
-23.5431
-27.4665
-27.4665
-27.4666
-27.4667
-27.4669
-27.4672
-27.4676
-27.4681
-27.4687
-27.4694
-27.4702
-27.471
-27.472
-27.473
-27.4741
-27.4753
-27.4765
-27.4779
-27.4793
-27.4808
-27.4824
-27.4841
-27.4858
-27.4876
-27.4895
-27.4914
-27.4934
-27.4955
-27.4976
-27.4998
-27.5021
-27.5044
-27.5068
-27.5092
-27.5116
-27.5141
-27.5167
-27.5193
-27.5219
-27.5246
-27.5273
-27.53
-27.5328
-27.5356
-27.5384
-27.5412
-27.544
-27.5469
-27.5497
-27.5526
-27.5555
-27.5583
-27.5612
-27.5641
-27.5669
-27.5698
-27.5726
-27.5754
-27.5782
-27.581
-27.5837
-27.5864
-27.5891
-27.5918
-27.5944
-27.597
-27.5995
-27.602
-27.6044
-27.6068
-27.6091
-27.6114
-27.6137
-27.6158
-27.6179
-27.62
-27.6219
-27.6238
-27.6257
-27.6274
-27.6291
-27.6308
-27.6323
-27.6338
-27.6352
-27.6365
-27.6377
-27.6388
-27.6399
-27.6409
-27.6417
-27.6426
-27.6433
-27.6439
-27.6444
-27.6449
-27.6452
-27.6455
-27.6457
-27.6458
-27.6458
-27.6457
-27.6455
-27.6452
-27.6449
-27.6444
-27.6439
-27.6433
-27.6426
-27.6418
-27.6409
-27.6399
-27.6389
-27.6377
-27.6365
-27.6352
-27.6338
-27.6323
-27.6308
-27.6292
-27.6275
-27.6257
-27.6239
-27.622
-27.62
-27.618
-27.6159
-27.6137
-27.6115
-27.6092
-27.6069
-27.6045
-27.602
-27.5995
-27.597
-27.5944
-27.5918
-27.5892
-27.5865
-27.5838
-27.581
-27.5783
-27.5755
-27.5727
-27.5698
-27.567
-27.5641
-27.5613
-27.5584
-27.5555
-27.5527
-27.5498
-27.5469
-27.5441
-27.5412
-27.5384
-27.5356
-27.5328
-27.5301
-27.5274
-27.5247
-27.522
-27.5194
-27.5168
-27.5142
-27.5117
-27.5092
-27.5068
-27.5045
-27.5022
-27.4999
-27.4977
-27.4956
-27.4935
-27.4915
-27.4896
-27.4877
-27.4859
-27.4841
-27.4825
-27.4809
-27.4794
-27.478
-27.4766
-27.4753
-27.4741
-27.473
-27.472
-27.4711
-27.4702
-27.4695
-27.4688
-27.4682
-27.4677
-27.4673
-27.467
-27.4668
-27.4666
-27.4666
-27.4666
-31.39
-31.39
-31.39
-31.3902
-31.3904
-31.3907
-31.3911
-31.3916
-31.3922
-31.3929
-31.3937
-31.3945
-31.3954
-31.3965
-31.3976
-31.3988
-31.4001
-31.4014
-31.4029
-31.4044
-31.406
-31.4076
-31.4094
-31.4112
-31.4131
-31.415
-31.4171
-31.4191
-31.4213
-31.4235
-31.4258
-31.4281
-31.4305
-31.4329
-31.4354
-31.4379
-31.4405
-31.4431
-31.4457
-31.4484
-31.4511
-31.4539
-31.4566
-31.4594
-31.4623
-31.4651
-31.468
-31.4708
-31.4737
-31.4766
-31.4795
-31.4824
-31.4853
-31.4881
-31.491
-31.4939
-31.4967
-31.4996
-31.5024
-31.5052
-31.5079
-31.5107
-31.5134
-31.516
-31.5187
-31.5213
-31.5238
-31.5263
-31.5288
-31.5312
-31.5335
-31.5358
-31.5381
-31.5402
-31.5424
-31.5444
-31.5464
-31.5483
-31.5502
-31.552
-31.5537
-31.5553
-31.5569
-31.5583
-31.5597
-31.561
-31.5623
-31.5634
-31.5645
-31.5655
-31.5664
-31.5672
-31.5679
-31.5685
-31.5691
-31.5695
-31.5699
-31.5702
-31.5703
-31.5704
-31.5704
-31.5703
-31.5702
-31.5699
-31.5695
-31.5691
-31.5685
-31.5679
-31.5672
-31.5664
-31.5655
-31.5645
-31.5634
-31.5623
-31.5611
-31.5598
-31.5584
-31.5569
-31.5553
-31.5537
-31.552
-31.5502
-31.5484
-31.5464
-31.5445
-31.5424
-31.5403
-31.5381
-31.5359
-31.5336
-31.5312
-31.5288
-31.5264
-31.5239
-31.5213
-31.5187
-31.5161
-31.5134
-31.5107
-31.508
-31.5052
-31.5024
-31.4996
-31.4968
-31.4939
-31.4911
-31.4882
-31.4853
-31.4824
-31.4795
-31.4767
-31.4738
-31.4709
-31.468
-31.4652
-31.4623
-31.4595
-31.4567
-31.4539
-31.4512
-31.4485
-31.4458
-31.4431
-31.4405
-31.438
-31.4354
-31.433
-31.4305
-31.4282
-31.4258
-31.4236
-31.4214
-31.4192
-31.4171
-31.4151
-31.4132
-31.4113
-31.4094
-31.4077
-31.406
-31.4044
-31.4029
-31.4015
-31.4001
-31.3989
-31.3977
-31.3965
-31.3955
-31.3946
-31.3937
-31.393
-31.3923
-31.3917
-31.3912
-31.3908
-31.3905
-31.3902
-31.3901
-31.39
-31.3901
-35.3134
-35.3134
-35.3134
-35.3135
-35.3138
-35.3141
-35.3145
-35.315
-35.3156
-35.3163
-35.3171
-35.3179
-35.3189
-35.3199
-35.321
-35.3222
-35.3235
-35.3249
-35.3263
-35.3279
-35.3295
-35.3311
-35.3329
-35.3347
-35.3366
-35.3386
-35.3406
-35.3427
-35.3449
-35.3471
-35.3494
-35.3517
-35.3541
-35.3566
-35.3591
-35.3616
-35.3642
-35.3668
-35.3695
-35.3722
-35.3749
-35.3777
-35.3805
-35.3833
-35.3861
-35.389
-35.3919
-35.3948
-35.3977
-35.4006
-35.4035
-35.4064
-35.4093
-35.4122
-35.4151
-35.418
-35.4209
-35.4237
-35.4266
-35.4294
-35.4322
-35.4349
-35.4376
-35.4403
-35.443
-35.4456
-35.4482
-35.4507
-35.4532
-35.4556
-35.458
-35.4603
-35.4625
-35.4647
-35.4669
-35.4689
-35.471
-35.4729
-35.4748
-35.4766
-35.4783
-35.4799
-35.4815
-35.483
-35.4844
-35.4857
-35.487
-35.4881
-35.4892
-35.4902
-35.4911
-35.4919
-35.4926
-35.4933
-35.4938
-35.4943
-35.4946
-35.4949
-35.4951
-35.4952
-35.4952
-35.4951
-35.4949
-35.4946
-35.4943
-35.4938
-35.4933
-35.4926
-35.4919
-35.4911
-35.4902
-35.4892
-35.4881
-35.487
-35.4857
-35.4844
-35.483
-35.4815
-35.48
-35.4783
-35.4766
-35.4748
-35.4729
-35.471
-35.469
-35.4669
-35.4648
-35.4626
-35.4603
-35.458
-35.4556
-35.4532
-35.4507
-35.4482
-35.4456
-35.443
-35.4404
-35.4377
-35.435
-35.4322
-35.4294
-35.4266
-35.4238
-35.4209
-35.4181
-35.4152
-35.4123
-35.4094
-35.4065
-35.4036
-35.4006
-35.3977
-35.3948
-35.3919
-35.3891
-35.3862
-35.3834
-35.3805
-35.3778
-35.375
-35.3723
-35.3696
-35.3669
-35.3643
-35.3617
-35.3591
-35.3566
-35.3542
-35.3518
-35.3495
-35.3472
-35.345
-35.3428
-35.3407
-35.3387
-35.3367
-35.3348
-35.333
-35.3312
-35.3295
-35.3279
-35.3264
-35.3249
-35.3236
-35.3223
-35.3211
-35.32
-35.3189
-35.318
-35.3171
-35.3164
-35.3157
-35.3151
-35.3146
-35.3142
-35.3138
-35.3136
-35.3135
-35.3134
-35.3135
-39.2367
-39.2367
-39.2367
-39.2368
-39.2371
-39.2374
-39.2378
-39.2383
-39.2389
-39.2396
-39.2404
-39.2413
-39.2422
-39.2433
-39.2444
-39.2456
-39.2469
-39.2483
-39.2497
-39.2513
-39.2529
-39.2546
-39.2563
-39.2582
-39.2601
-39.2621
-39.2641
-39.2662
-39.2684
-39.2707
-39.273
-39.2753
-39.2777
-39.2802
-39.2827
-39.2853
-39.2879
-39.2905
-39.2932
-39.2959
-39.2987
-39.3015
-39.3043
-39.3071
-39.31
-39.3129
-39.3158
-39.3187
-39.3216
-39.3246
-39.3275
-39.3304
-39.3334
-39.3363
-39.3392
-39.3421
-39.345
-39.3479
-39.3508
-39.3536
-39.3564
-39.3592
-39.362
-39.3647
-39.3673
-39.37
-39.3726
-39.3751
-39.3776
-39.3801
-39.3825
-39.3848
-39.3871
-39.3893
-39.3915
-39.3936
-39.3956
-39.3975
-39.3994
-39.4012
-39.403
-39.4046
-39.4062
-39.4077
-39.4091
-39.4105
-39.4117
-39.4129
-39.414
-39.415
-39.4159
-39.4167
-39.4175
-39.4181
-39.4187
-39.4191
-39.4195
-39.4198
-39.4199
-39.42
-39.42
-39.4199
-39.4198
-39.4195
-39.4191
-39.4187
-39.4181
-39.4175
-39.4167
-39.4159
-39.415
-39.414
-39.4129
-39.4118
-39.4105
-39.4092
-39.4077
-39.4062
-39.4047
-39.403
-39.4013
-39.3995
-39.3976
-39.3956
-39.3936
-39.3915
-39.3893
-39.3871
-39.3849
-39.3825
-39.3801
-39.3777
-39.3752
-39.3726
-39.37
-39.3674
-39.3647
-39.362
-39.3593
-39.3565
-39.3537
-39.3508
-39.348
-39.3451
-39.3422
-39.3393
-39.3364
-39.3334
-39.3305
-39.3276
-39.3246
-39.3217
-39.3188
-39.3159
-39.313
-39.3101
-39.3072
-39.3044
-39.3016
-39.2988
-39.296
-39.2933
-39.2906
-39.2879
-39.2853
-39.2828
-39.2803
-39.2778
-39.2754
-39.273
-39.2707
-39.2685
-39.2663
-39.2642
-39.2621
-39.2602
-39.2582
-39.2564
-39.2546
-39.2529
-39.2513
-39.2498
-39.2483
-39.247
-39.2457
-39.2444
-39.2433
-39.2423
-39.2413
-39.2405
-39.2397
-39.239
-39.2384
-39.2379
-39.2375
-39.2371
-39.2369
-39.2368
-39.2367
-39.2368
-43.1599
-43.1599
-43.1599
-43.1601
-43.1603
-43.1606
-43.161
-43.1616
-43.1622
-43.1629
-43.1636
-43.1645
-43.1655
-43.1665
-43.1677
-43.1689
-43.1702
-43.1716
-43.173
-43.1746
-43.1762
-43.1779
-43.1797
-43.1816
-43.1835
-43.1855
-43.1876
-43.1897
-43.1919
-43.1942
-43.1965
-43.1989
-43.2013
-43.2038
-43.2063
-43.2089
-43.2115
-43.2142
-43.2169
-43.2197
-43.2224
-43.2253
-43.2281
-43.231
-43.2339
-43.2368
-43.2397
-43.2426
-43.2456
-43.2485
-43.2515
-43.2545
-43.2574
-43.2604
-43.2633
-43.2663
-43.2692
-43.2721
-43.275
-43.2779
-43.2807
-43.2835
-43.2863
-43.289
-43.2917
-43.2944
-43.297
-43.2996
-43.3021
-43.3046
-43.307
-43.3094
-43.3117
-43.3139
-43.3161
-43.3182
-43.3203
-43.3223
-43.3242
-43.326
-43.3277
-43.3294
-43.331
-43.3325
-43.334
-43.3353
-43.3366
-43.3378
-43.3389
-43.3399
-43.3408
-43.3416
-43.3424
-43.343
-43.3436
-43.3441
-43.3444
-43.3447
-43.3449
-43.345
-43.345
-43.3449
-43.3447
-43.3444
-43.3441
-43.3436
-43.3431
-43.3424
-43.3417
-43.3408
-43.3399
-43.3389
-43.3378
-43.3366
-43.3354
-43.334
-43.3326
-43.3311
-43.3295
-43.3278
-43.326
-43.3242
-43.3223
-43.3203
-43.3183
-43.3162
-43.314
-43.3117
-43.3094
-43.3071
-43.3047
-43.3022
-43.2997
-43.2971
-43.2945
-43.2918
-43.2891
-43.2864
-43.2836
-43.2808
-43.2779
-43.2751
-43.2722
-43.2693
-43.2664
-43.2634
-43.2605
-43.2575
-43.2545
-43.2516
-43.2486
-43.2457
-43.2427
-43.2398
-43.2368
-43.2339
-43.231
-43.2282
-43.2253
-43.2225
-43.2197
-43.217
-43.2143
-43.2116
-43.209
-43.2064
-43.2038
-43.2014
-43.1989
-43.1965
-43.1942
-43.192
-43.1898
-43.1876
-43.1856
-43.1836
-43.1816
-43.1798
-43.178
-43.1763
-43.1747
-43.1731
-43.1716
-43.1703
-43.1689
-43.1677
-43.1666
-43.1655
-43.1646
-43.1637
-43.1629
-43.1622
-43.1616
-43.1611
-43.1607
-43.1604
-43.1601
-43.16
-43.1599
-43.16
-47.083
-47.083
-47.083
-47.0832
-47.0834
-47.0838
-47.0842
-47.0847
-47.0853
-47.086
-47.0868
-47.0877
-47.0887
-47.0897
-47.0909
-47.0921
-47.0934
-47.0948
-47.0963
-47.0979
-47.0995
-47.1012
-47.103
-47.1049
-47.1068
-47.1089
-47.1109
-47.1131
-47.1153
-47.1176
-47.1199
-47.1223
-47.1248
-47.1273
-47.1299
-47.1325
-47.1351
-47.1378
-47.1406
-47.1433
-47.1462
-47.149
-47.1519
-47.1548
-47.1577
-47.1606
-47.1636
-47.1666
-47.1695
-47.1725
-47.1755
-47.1785
-47.1815
-47.1845
-47.1875
-47.1905
-47.1934
-47.1964
-47.1993
-47.2022
-47.205
-47.2079
-47.2107
-47.2135
-47.2162
-47.2189
-47.2215
-47.2241
-47.2267
-47.2292
-47.2316
-47.234
-47.2364
-47.2386
-47.2408
-47.243
-47.245
-47.247
-47.249
-47.2508
-47.2526
-47.2543
-47.2559
-47.2575
-47.2589
-47.2603
-47.2616
-47.2628
-47.2639
-47.2649
-47.2658
-47.2667
-47.2674
-47.2681
-47.2687
-47.2691
-47.2695
-47.2698
-47.27
-47.2701
-47.2701
-47.27
-47.2698
-47.2695
-47.2691
-47.2687
-47.2681
-47.2674
-47.2667
-47.2659
-47.2649
-47.2639
-47.2628
-47.2616
-47.2603
-47.2589
-47.2575
-47.256
-47.2543
-47.2526
-47.2509
-47.249
-47.2471
-47.2451
-47.243
-47.2409
-47.2387
-47.2364
-47.2341
-47.2317
-47.2292
-47.2267
-47.2242
-47.2216
-47.2189
-47.2163
-47.2135
-47.2107
-47.2079
-47.2051
-47.2022
-47.1993
-47.1964
-47.1935
-47.1905
-47.1875
-47.1846
-47.1816
-47.1786
-47.1756
-47.1726
-47.1696
-47.1666
-47.1636
-47.1607
-47.1578
-47.1548
-47.1519
-47.1491
-47.1462
-47.1434
-47.1406
-47.1379
-47.1352
-47.1325
-47.1299
-47.1274
-47.1249
-47.1224
-47.12
-47.1177
-47.1154
-47.1132
-47.111
-47.1089
-47.1069
-47.105
-47.1031
-47.1013
-47.0996
-47.0979
-47.0964
-47.0949
-47.0935
-47.0922
-47.0909
-47.0898
-47.0887
-47.0878
-47.0869
-47.0861
-47.0854
-47.0848
-47.0843
-47.0838
-47.0835
-47.0833
-47.0831
-47.0831
-47.0831
-51.0061
-51.006
-51.0061
-51.0062
-51.0065
-51.0068
-51.0072
-51.0078
-51.0084
-51.0091
-51.0099
-51.0108
-51.0118
-51.0128
-51.014
-51.0152
-51.0166
-51.018
-51.0195
-51.021
-51.0227
-51.0244
-51.0263
-51.0282
-51.0301
-51.0322
-51.0343
-51.0364
-51.0387
-51.041
-51.0434
-51.0458
-51.0483
-51.0508
-51.0534
-51.056
-51.0587
-51.0614
-51.0642
-51.067
-51.0698
-51.0727
-51.0756
-51.0785
-51.0815
-51.0845
-51.0875
-51.0905
-51.0935
-51.0965
-51.0995
-51.1026
-51.1056
-51.1086
-51.1116
-51.1146
-51.1176
-51.1206
-51.1236
-51.1265
-51.1294
-51.1323
-51.1351
-51.1379
-51.1407
-51.1434
-51.1461
-51.1487
-51.1513
-51.1538
-51.1563
-51.1587
-51.1611
-51.1634
-51.1656
-51.1678
-51.1699
-51.1719
-51.1739
-51.1758
-51.1776
-51.1793
-51.1809
-51.1825
-51.1839
-51.1853
-51.1866
-51.1879
-51.189
-51.19
-51.191
-51.1918
-51.1926
-51.1932
-51.1938
-51.1943
-51.1947
-51.195
-51.1952
-51.1953
-51.1953
-51.1952
-51.195
-51.1947
-51.1943
-51.1938
-51.1933
-51.1926
-51.1918
-51.191
-51.19
-51.189
-51.1879
-51.1867
-51.1854
-51.184
-51.1825
-51.1809
-51.1793
-51.1776
-51.1758
-51.1739
-51.172
-51.1699
-51.1678
-51.1657
-51.1635
-51.1612
-51.1588
-51.1564
-51.1539
-51.1514
-51.1488
-51.1461
-51.1435
-51.1407
-51.138
-51.1352
-51.1323
-51.1295
-51.1266
-51.1236
-51.1207
-51.1177
-51.1147
-51.1117
-51.1087
-51.1057
-51.1026
-51.0996
-51.0966
-51.0935
-51.0905
-51.0875
-51.0845
-51.0816
-51.0786
-51.0757
-51.0728
-51.0699
-51.0671
-51.0643
-51.0615
-51.0588
-51.0561
-51.0535
-51.0509
-51.0483
-51.0458
-51.0434
-51.0411
-51.0388
-51.0365
-51.0343
-51.0322
-51.0302
-51.0282
-51.0263
-51.0245
-51.0228
-51.0211
-51.0195
-51.018
-51.0166
-51.0153
-51.014
-51.0129
-51.0118
-51.0108
-51.01
-51.0092
-51.0084
-51.0078
-51.0073
-51.0069
-51.0065
-51.0063
-51.0062
-51.0061
-51.0062
-54.9291
-54.929
-54.9291
-54.9292
-54.9294
-54.9298
-54.9302
-54.9307
-54.9314
-54.9321
-54.9329
-54.9338
-54.9348
-54.9359
-54.937
-54.9383
-54.9396
-54.9411
-54.9426
-54.9442
-54.9458
-54.9476
-54.9494
-54.9513
-54.9533
-54.9554
-54.9575
-54.9597
-54.962
-54.9643
-54.9667
-54.9692
-54.9717
-54.9742
-54.9769
-54.9795
-54.9822
-54.985
-54.9878
-54.9906
-54.9935
-54.9964
-54.9993
-55.0023
-55.0053
-55.0083
-55.0113
-55.0144
-55.0174
-55.0205
-55.0235
-55.0266
-55.0297
-55.0327
-55.0358
-55.0388
-55.0419
-55.0449
-55.0479
-55.0508
-55.0538
-55.0567
-55.0596
-55.0624
-55.0652
-55.068
-55.0707
-55.0734
-55.076
-55.0786
-55.0811
-55.0835
-55.0859
-55.0882
-55.0905
-55.0927
-55.0948
-55.0969
-55.0989
-55.1008
-55.1026
-55.1043
-55.106
-55.1076
-55.1091
-55.1105
-55.1118
-55.113
-55.1142
-55.1152
-55.1162
-55.1171
-55.1178
-55.1185
-55.1191
-55.1196
-55.12
-55.1202
-55.1204
-55.1205
-55.1205
-55.1204
-55.1203
-55.12
-55.1196
-55.1191
-55.1185
-55.1178
-55.1171
-55.1162
-55.1152
-55.1142
-55.1131
-55.1118
-55.1105
-55.1091
-55.1076
-55.106
-55.1044
-55.1026
-55.1008
-55.0989
-55.0969
-55.0949
-55.0928
-55.0906
-55.0883
-55.086
-55.0836
-55.0811
-55.0786
-55.076
-55.0734
-55.0708
-55.068
-55.0653
-55.0625
-55.0596
-55.0568
-55.0538
-55.0509
-55.0479
-55.0449
-55.0419
-55.0389
-55.0359
-55.0328
-55.0297
-55.0267
-55.0236
-55.0205
-55.0175
-55.0144
-55.0114
-55.0084
-55.0054
-55.0024
-54.9994
-54.9965
-54.9936
-54.9907
-54.9879
-54.9851
-54.9823
-54.9796
-54.9769
-54.9743
-54.9717
-54.9692
-54.9668
-54.9644
-54.9621
-54.9598
-54.9576
-54.9555
-54.9534
-54.9514
-54.9495
-54.9477
-54.9459
-54.9442
-54.9426
-54.9411
-54.9397
-54.9383
-54.9371
-54.9359
-54.9348
-54.9339
-54.933
-54.9321
-54.9314
-54.9308
-54.9303
-54.9299
-54.9295
-54.9293
-54.9291
-54.9291
-54.9291
-58.8519
-58.8519
-58.8519
-58.8521
-58.8523
-58.8527
-58.8531
-58.8536
-58.8543
-58.855
-58.8558
-58.8567
-58.8577
-58.8588
-58.86
-58.8613
-58.8626
-58.8641
-58.8656
-58.8672
-58.8689
-58.8707
-58.8725
-58.8745
-58.8765
-58.8786
-58.8807
-58.8829
-58.8852
-58.8876
-58.89
-58.8925
-58.895
-58.8976
-58.9003
-58.903
-58.9057
-58.9085
-58.9113
-58.9142
-58.9171
-58.9201
-58.923
-58.926
-58.9291
-58.9321
-58.9352
-58.9383
-58.9413
-58.9444
-58.9476
-58.9507
-58.9538
-58.9569
-58.96
-58.9631
-58.9661
-58.9692
-58.9722
-58.9752
-58.9782
-58.9812
-58.9841
-58.987
-58.9898
-58.9926
-58.9954
-58.9981
-59.0007
-59.0033
-59.0059
-59.0084
-59.0108
-59.0132
-59.0155
-59.0177
-59.0198
-59.0219
-59.0239
-59.0259
-59.0277
-59.0295
-59.0312
-59.0328
-59.0343
-59.0357
-59.0371
-59.0383
-59.0395
-59.0405
-59.0415
-59.0424
-59.0432
-59.0439
-59.0445
-59.045
-59.0453
-59.0456
-59.0458
-59.0459
-59.0459
-59.0458
-59.0457
-59.0454
-59.045
-59.0445
-59.0439
-59.0432
-59.0424
-59.0415
-59.0406
-59.0395
-59.0383
-59.0371
-59.0358
-59.0343
-59.0328
-59.0312
-59.0295
-59.0278
-59.0259
-59.024
-59.022
-59.0199
-59.0177
-59.0155
-59.0132
-59.0108
-59.0084
-59.0059
-59.0034
-59.0008
-58.9981
-58.9954
-58.9927
-58.9899
-58.987
-58.9841
-58.9812
-58.9783
-58.9753
-58.9723
-58.9692
-58.9662
-58.9631
-58.96
-58.9569
-58.9538
-58.9507
-58.9476
-58.9445
-58.9414
-58.9383
-58.9352
-58.9322
-58.9291
-58.9261
-58.9231
-58.9201
-58.9172
-58.9143
-58.9114
-58.9086
-58.9058
-58.903
-58.9003
-58.8977
-58.8951
-58.8926
-58.8901
-58.8877
-58.8853
-58.883
-58.8808
-58.8786
-58.8766
-58.8745
-58.8726
-58.8708
-58.869
-58.8673
-58.8657
-58.8641
-58.8627
-58.8613
-58.8601
-58.8589
-58.8578
-58.8568
-58.8559
-58.8551
-58.8543
-58.8537
-58.8532
-58.8527
-58.8524
-58.8521
-58.852
-58.852
-58.852
-62.7747
-62.7747
-62.7747
-62.7749
-62.7751
-62.7755
-62.7759
-62.7764
-62.7771
-62.7778
-62.7786
-62.7796
-62.7806
-62.7817
-62.7829
-62.7842
-62.7855
-62.787
-62.7885
-62.7902
-62.7919
-62.7937
-62.7956
-62.7975
-62.7996
-62.8017
-62.8039
-62.8061
-62.8084
-62.8108
-62.8133
-62.8158
-62.8183
-62.821
-62.8237
-62.8264