/*--------------------------------*- C++ -*----------------------------------*\
| =========                 |                                                 |
| \\      /  F ield         | OpenFOAM: The Open Source CFD Toolbox           |
|  \\    /   O peration     | Version:  2412                                  |
|   \\  /    A nd           | Website:  www.openfoam.com                      |
|    \\/     M anipulation  |                                                 |
\*---------------------------------------------------------------------------*/
FoamFile
{
    version     2.0;
    format      ascii;
    arch        "LSB;label=32;scalar=64";
    class       volVectorField;
    location    "1.19";
    object      U;
}
// * * * * * * * * * * * * * * * * * * * * * * * * * * * * * * * * * * * * * //

dimensions      [0 1 -1 0 0 0 0];

internalField   nonuniform List<vector> 
40000
(
(6.54602e-06 -6.02136e-06 0)
(3.47253e-05 -9.29847e-06 0)
(7.03006e-05 -1.07659e-05 0)
(0.000108022 -1.14013e-05 0)
(0.000146763 -1.16309e-05 0)
(0.000185772 -1.16877e-05 0)
(0.000224751 -1.16466e-05 0)
(0.000263574 -1.15682e-05 0)
(0.000302177 -1.14776e-05 0)
(0.000340525 -1.13847e-05 0)
(0.000378588 -1.12894e-05 0)
(0.000416344 -1.11882e-05 0)
(0.000453771 -1.10799e-05 0)
(0.000490847 -1.09645e-05 0)
(0.000527545 -1.08418e-05 0)
(0.000563838 -1.07115e-05 0)
(0.000599701 -1.05728e-05 0)
(0.000635104 -1.04258e-05 0)
(0.00067002 -1.02701e-05 0)
(0.000704421 -1.01056e-05 0)
(0.000738279 -9.93233e-06 0)
(0.000771563 -9.75027e-06 0)
(0.000804245 -9.55942e-06 0)
(0.000836296 -9.35977e-06 0)
(0.000867685 -9.15134e-06 0)
(0.000898385 -8.93415e-06 0)
(0.000928365 -8.70824e-06 0)
(0.000957598 -8.47365e-06 0)
(0.000986053 -8.23047e-06 0)
(0.0010137 -7.97873e-06 0)
(0.00104051 -7.71849e-06 0)
(0.00106646 -7.44981e-06 0)
(0.00109152 -7.17277e-06 0)
(0.00111566 -6.8875e-06 0)
(0.00113884 -6.5941e-06 0)
(0.00116105 -6.29271e-06 0)
(0.00118226 -5.98341e-06 0)
(0.00120243 -5.66634e-06 0)
(0.00122154 -5.34165e-06 0)
(0.00123956 -5.0095e-06 0)
(0.00125648 -4.67009e-06 0)
(0.00127225 -4.32361e-06 0)
(0.00128686 -3.97025e-06 0)
(0.00130029 -3.61023e-06 0)
(0.0013125 -3.24383e-06 0)
(0.00132348 -2.87135e-06 0)
(0.00133321 -2.49312e-06 0)
(0.00134166 -2.10947e-06 0)
(0.00134881 -1.72067e-06 0)
(0.00135464 -1.32694e-06 0)
(0.00135915 -9.284e-07 0)
(0.0013623 -5.24774e-07 0)
(0.00136408 -1.14766e-07 0)
(0.00136448 3.00857e-07 0)
(0.00136347 7.19287e-07 0)
(0.00136104 1.13818e-06 0)
(0.0013572 1.55646e-06 0)
(0.00135193 1.97421e-06 0)
(0.00134524 2.39201e-06 0)
(0.00133711 2.80986e-06 0)
(0.00132755 3.22747e-06 0)
(0.00131656 3.64438e-06 0)
(0.00130414 4.06005e-06 0)
(0.00129028 4.47391e-06 0)
(0.00127499 4.88539e-06 0)
(0.00125829 5.29392e-06 0)
(0.00124017 5.69898e-06 0)
(0.00122065 6.10002e-06 0)
(0.00119974 6.49646e-06 0)
(0.00117745 6.88769e-06 0)
(0.00115381 7.2731e-06 0)
(0.00112882 7.65215e-06 0)
(0.00110252 8.02432e-06 0)
(0.00107492 8.3891e-06 0)
(0.00104605 8.74596e-06 0)
(0.00101594 9.09436e-06 0)
(0.000984615 9.43374e-06 0)
(0.000952105 9.76355e-06 0)
(0.000918445 1.00832e-05 0)
(0.000883669 1.03923e-05 0)
(0.000847816 1.06902e-05 0)
(0.000810925 1.09765e-05 0)
(0.000773036 1.12508e-05 0)
(0.000734193 1.15127e-05 0)
(0.00069444 1.17617e-05 0)
(0.000653823 1.19973e-05 0)
(0.000612391 1.22192e-05 0)
(0.000570193 1.24269e-05 0)
(0.000527278 1.26201e-05 0)
(0.0004837 1.27985e-05 0)
(0.000439512 1.29618e-05 0)
(0.000394769 1.31099e-05 0)
(0.000349526 1.32424e-05 0)
(0.000303841 1.33591e-05 0)
(0.00025777 1.34598e-05 0)
(0.000211373 1.35444e-05 0)
(0.000164706 1.36127e-05 0)
(0.000117831 1.36645e-05 0)
(7.08054e-05 1.36995e-05 0)
(2.36918e-05 1.37171e-05 0)
(-2.34517e-05 1.37171e-05 0)
(-7.05657e-05 1.36995e-05 0)
(-0.000117592 1.36645e-05 0)
(-0.000164469 1.36127e-05 0)
(-0.000211136 1.35445e-05 0)
(-0.000257535 1.346e-05 0)
(-0.000303606 1.33594e-05 0)
(-0.000349291 1.32427e-05 0)
(-0.000394535 1.31103e-05 0)
(-0.000439279 1.29623e-05 0)
(-0.000483468 1.2799e-05 0)
(-0.000527048 1.26208e-05 0)
(-0.000569965 1.24278e-05 0)
(-0.000612167 1.22202e-05 0)
(-0.000653602 1.19984e-05 0)
(-0.000694223 1.17629e-05 0)
(-0.00073398 1.15142e-05 0)
(-0.000772827 1.12525e-05 0)
(-0.00081072 1.09781e-05 0)
(-0.000847616 1.06917e-05 0)
(-0.000883473 1.03937e-05 0)
(-0.000918254 1.00848e-05 0)
(-0.000951919 9.76528e-06 0)
(-0.000984435 9.43553e-06 0)
(-0.00101577 9.09628e-06 0)
(-0.00104589 8.7481e-06 0)
(-0.00107476 8.39129e-06 0)
(-0.00110236 8.0265e-06 0)
(-0.00112867 7.65438e-06 0)
(-0.00115366 7.27523e-06 0)
(-0.00117732 6.88978e-06 0)
(-0.00119961 6.49891e-06 0)
(-0.00122053 6.10284e-06 0)
(-0.00124006 5.70192e-06 0)
(-0.00125819 5.29699e-06 0)
(-0.0012749 4.88881e-06 0)
(-0.0012902 4.47769e-06 0)
(-0.00130407 4.06389e-06 0)
(-0.00131651 3.64831e-06 0)
(-0.00132751 3.23175e-06 0)
(-0.00133709 2.81424e-06 0)
(-0.00134522 2.39612e-06 0)
(-0.00135193 1.97794e-06 0)
(-0.0013572 1.55976e-06 0)
(-0.00136106 1.14117e-06 0)
(-0.00136349 7.21887e-07 0)
(-0.00136452 3.02955e-07 0)
(-0.00136413 -1.12621e-07 0)
(-0.00136235 -5.22275e-07 0)
(-0.00135921 -9.2568e-07 0)
(-0.00135471 -1.32381e-06 0)
(-0.00134889 -1.7169e-06 0)
(-0.00134175 -2.10493e-06 0)
(-0.00133332 -2.48778e-06 0)
(-0.00132361 -2.86557e-06 0)
(-0.00131265 -3.23762e-06 0)
(-0.00130045 -3.60362e-06 0)
(-0.00128704 -3.96364e-06 0)
(-0.00127245 -4.31731e-06 0)
(-0.00125669 -4.66429e-06 0)
(-0.0012398 -5.00403e-06 0)
(-0.00122179 -5.33648e-06 0)
(-0.0012027 -5.66146e-06 0)
(-0.00118254 -5.97846e-06 0)
(-0.00116136 -6.28734e-06 0)
(-0.00113917 -6.5884e-06 0)
(-0.001116 -6.88164e-06 0)
(-0.00109189 -7.16667e-06 0)
(-0.00106685 -7.44346e-06 0)
(-0.00104093 -7.71209e-06 0)
(-0.00101414 -7.9723e-06 0)
(-0.00098651 -8.22418e-06 0)
(-0.000958078 -8.4674e-06 0)
(-0.000928871 -8.7016e-06 0)
(-0.000898919 -8.92653e-06 0)
(-0.000868252 -9.14209e-06 0)
(-0.0008369 -9.34874e-06 0)
(-0.00080489 -9.54644e-06 0)
(-0.000772252 -9.73607e-06 0)
(-0.000739015 -9.91791e-06 0)
(-0.000705209 -1.00914e-05 0)
(-0.000670861 -1.02557e-05 0)
(-0.000636 -1.04107e-05 0)
(-0.000600658 -1.05556e-05 0)
(-0.000564863 -1.06906e-05 0)
(-0.000528647 -1.08172e-05 0)
(-0.000492041 -1.09353e-05 0)
(-0.000455069 -1.10448e-05 0)
(-0.000417762 -1.11457e-05 0)
(-0.000380145 -1.12377e-05 0)
(-0.000342248 -1.13205e-05 0)
(-0.000304101 -1.13948e-05 0)
(-0.000265735 -1.14588e-05 0)
(-0.000227179 -1.15116e-05 0)
(-0.00018847 -1.15509e-05 0)
(-0.000149645 -1.1566e-05 0)
(-0.000110752 -1.15251e-05 0)
(-7.20431e-05 -1.12871e-05 0)
(-3.50287e-05 -1.01829e-05 0)
(-6.22518e-06 -6.26813e-06 0)
(1.09334e-05 -3.53277e-05 0)
(6.24397e-05 -5.93662e-05 0)
(0.000122637 -6.60218e-05 0)
(0.000184729 -6.82248e-05 0)
(0.000247441 -6.91138e-05 0)
(0.000310333 -6.93347e-05 0)
(0.000373209 -6.91863e-05 0)
(0.000435933 -6.88579e-05 0)
(0.000498403 -6.84378e-05 0)
(0.000560548 -6.79654e-05 0)
(0.000622305 -6.74512e-05 0)
(0.000683621 -6.68943e-05 0)
(0.000744447 -6.62933e-05 0)
(0.000804735 -6.56473e-05 0)
(0.000864441 -6.49554e-05 0)
(0.000923518 -6.42166e-05 0)
(0.000981921 -6.34296e-05 0)
(0.0010396 -6.25936e-05 0)
(0.00109652 -6.17076e-05 0)
(0.00115262 -6.0771e-05 0)
(0.00120787 -5.97835e-05 0)
(0.00126221 -5.87447e-05 0)
(0.00131559 -5.76545e-05 0)
(0.00136797 -5.65127e-05 0)
(0.00141931 -5.53192e-05 0)
(0.00146955 -5.40739e-05 0)
(0.00151865 -5.27767e-05 0)
(0.00156655 -5.14279e-05 0)
(0.00161322 -5.00274e-05 0)
(0.00165861 -4.85754e-05 0)
(0.00170266 -4.70722e-05 0)
(0.00174533 -4.55179e-05 0)
(0.00178658 -4.39127e-05 0)
(0.00182635 -4.2257e-05 0)
(0.0018646 -4.05512e-05 0)
(0.00190128 -3.87956e-05 0)
(0.00193635 -3.6991e-05 0)
(0.00196977 -3.51377e-05 0)
(0.00200147 -3.32364e-05 0)
(0.00203143 -3.12879e-05 0)
(0.0020596 -2.92929e-05 0)
(0.00208593 -2.72525e-05 0)
(0.00211038 -2.51675e-05 0)
(0.00213292 -2.30392e-05 0)
(0.00215349 -2.0869e-05 0)
(0.00217207 -1.86584e-05 0)
(0.00218861 -1.6409e-05 0)
(0.00220307 -1.41224e-05 0)
(0.00221543 -1.18003e-05 0)
(0.00222565 -9.44425e-06 0)
(0.00223369 -7.0559e-06 0)
(0.00223953 -4.63642e-06 0)
(0.00224314 -2.1859e-06 0)
(0.0022445 2.96175e-07 0)
(0.00224359 2.80145e-06 0)
(0.00224037 5.32151e-06 0)
(0.00223484 7.85307e-06 0)
(0.00222696 1.03953e-05 0)
(0.00221674 1.29472e-05 0)
(0.00220415 1.55068e-05 0)
(0.00218919 1.80713e-05 0)
(0.00217186 2.06377e-05 0)
(0.00215215 2.32026e-05 0)
(0.00213006 2.57627e-05 0)
(0.00210559 2.83144e-05 0)
(0.00207875 3.08543e-05 0)
(0.00204956 3.33788e-05 0)
(0.00201802 3.58841e-05 0)
(0.00198416 3.83664e-05 0)
(0.00194798 4.08218e-05 0)
(0.00190953 4.32466e-05 0)
(0.00186882 4.56371e-05 0)
(0.00182589 4.79895e-05 0)
(0.00178078 5.03002e-05 0)
(0.00173352 5.25654e-05 0)
(0.00168415 5.47813e-05 0)
(0.00163273 5.69439e-05 0)
(0.00157929 5.90493e-05 0)
(0.00152391 6.1094e-05 0)
(0.00146663 6.30743e-05 0)
(0.00140751 6.49866e-05 0)
(0.00134662 6.68276e-05 0)
(0.00128403 6.85938e-05 0)
(0.00121981 7.0282e-05 0)
(0.00115403 7.18888e-05 0)
(0.00108678 7.3411e-05 0)
(0.00101812 7.48457e-05 0)
(0.00094815 7.61901e-05 0)
(0.00087695 7.74417e-05 0)
(0.00080461 7.85983e-05 0)
(0.00073122 7.96576e-05 0)
(0.000656874 8.06176e-05 0)
(0.000581668 8.14763e-05 0)
(0.000505698 8.22319e-05 0)
(0.000429063 8.2883e-05 0)
(0.000351862 8.34281e-05 0)
(0.000274198 8.38661e-05 0)
(0.000196172 8.4196e-05 0)
(0.000117887 8.4417e-05 0)
(3.94477e-05 8.45277e-05 0)
(-3.90461e-05 8.45278e-05 0)
(-0.000117486 8.44173e-05 0)
(-0.000195772 8.41965e-05 0)
(-0.000273799 8.38664e-05 0)
(-0.000351465 8.34285e-05 0)
(-0.000428666 8.28837e-05 0)
(-0.000505302 8.22332e-05 0)
(-0.000581272 8.14782e-05 0)
(-0.00065648 8.06201e-05 0)
(-0.000730828 7.96608e-05 0)
(-0.000804219 7.86023e-05 0)
(-0.000876562 7.74463e-05 0)
(-0.000947764 7.61951e-05 0)
(-0.00101774 7.4851e-05 0)
(-0.0010864 7.34165e-05 0)
(-0.00115366 7.18946e-05 0)
(-0.00121944 7.02885e-05 0)
(-0.00128367 6.86008e-05 0)
(-0.00134626 6.68348e-05 0)
(-0.00140716 6.49939e-05 0)
(-0.00146628 6.30818e-05 0)
(-0.00152357 6.1102e-05 0)
(-0.00157896 5.90579e-05 0)
(-0.0016324 5.69528e-05 0)
(-0.00168383 5.47909e-05 0)
(-0.0017332 5.25761e-05 0)
(-0.00178047 5.03117e-05 0)
(-0.00182559 4.80013e-05 0)
(-0.00186853 4.56493e-05 0)
(-0.00190924 4.32593e-05 0)
(-0.00194771 4.0835e-05 0)
(-0.00198389 3.83805e-05 0)
(-0.00201776 3.58995e-05 0)
(-0.00204931 3.33953e-05 0)
(-0.00207851 3.08719e-05 0)
(-0.00210536 2.83332e-05 0)
(-0.00212984 2.57828e-05 0)
(-0.00215195 2.32235e-05 0)
(-0.00217167 2.06592e-05 0)
(-0.00218902 1.80937e-05 0)
(-0.00220399 1.55295e-05 0)
(-0.00221659 1.29691e-05 0)
(-0.00222682 1.04158e-05 0)
(-0.00223471 7.87181e-06 0)
(-0.00224026 5.33855e-06 0)
(-0.00224348 2.81689e-06 0)
(-0.00224441 3.10091e-07 0)
(-0.00224306 -2.17191e-06 0)
(-0.00223946 -4.62096e-06 0)
(-0.00223363 -7.03862e-06 0)
(-0.0022256 -9.42454e-06 0)
(-0.00221539 -1.17774e-05 0)
(-0.00220305 -1.40962e-05 0)
(-0.0021886 -1.63796e-05 0)
(-0.00217207 -1.86269e-05 0)
(-0.00215351 -2.08359e-05 0)
(-0.00213296 -2.30049e-05 0)
(-0.00211044 -2.5133e-05 0)
(-0.00208601 -2.72186e-05 0)
(-0.0020597 -2.92601e-05 0)
(-0.00203155 -3.12561e-05 0)
(-0.00200161 -3.32052e-05 0)
(-0.00196992 -3.51067e-05 0)
(-0.00193652 -3.69591e-05 0)
(-0.00190147 -3.87622e-05 0)
(-0.00186481 -4.05157e-05 0)
(-0.00182658 -4.22198e-05 0)
(-0.00178683 -4.38737e-05 0)
(-0.0017456 -4.54773e-05 0)
(-0.00170295 -4.70307e-05 0)
(-0.00165892 -4.85332e-05 0)
(-0.00161356 -4.99845e-05 0)
(-0.00156691 -5.13835e-05 0)
(-0.00151903 -5.27285e-05 0)
(-0.00146996 -5.40197e-05 0)
(-0.00141975 -5.52571e-05 0)
(-0.00136844 -5.64424e-05 0)
(-0.00131609 -5.75768e-05 0)
(-0.00126274 -5.86617e-05 0)
(-0.00120844 -5.96974e-05 0)
(-0.00115324 -6.06817e-05 0)
(-0.00109718 -6.16136e-05 0)
(-0.00104031 -6.24916e-05 0)
(-0.000982677 -6.33158e-05 0)
(-0.000924324 -6.40861e-05 0)
(-0.000865302 -6.48065e-05 0)
(-0.000805656 -6.54758e-05 0)
(-0.000745431 -6.60956e-05 0)
(-0.000684672 -6.66663e-05 0)
(-0.000623425 -6.71866e-05 0)
(-0.000561737 -6.76569e-05 0)
(-0.000499653 -6.8076e-05 0)
(-0.000437215 -6.84414e-05 0)
(-0.000374472 -6.87515e-05 0)
(-0.000311469 -6.90013e-05 0)
(-0.000248243 -6.91642e-05 0)
(-0.00018481 -6.90796e-05 0)
(-0.000121479 -6.78147e-05 0)
(-6.06005e-05 -6.10516e-05 0)
(-9.9757e-06 -3.48929e-05 0)
(1.15187e-05 -7.32591e-05 0)
(6.88586e-05 -0.000120857 0)
(0.000135666 -0.000131559 0)
(0.000204079 -0.000134146 0)
(0.000272444 -0.000135095 0)
(0.000340691 -0.000135349 0)
(0.000408832 -0.000135156 0)
(0.000476804 -0.000134681 0)
(0.000544525 -0.000134017 0)
(0.000611922 -0.000133216 0)
(0.000678929 -0.000132301 0)
(0.000745484 -0.000131283 0)
(0.000811531 -0.000130164 0)
(0.000877013 -0.000128947 0)
(0.000941878 -0.000127632 0)
(0.00100608 -0.00012622 0)
(0.00106955 -0.000124709 0)
(0.00113226 -0.0001231 0)
(0.00119415 -0.000121391 0)
(0.00125516 -0.000119582 0)
(0.00131525 -0.000117672 0)
(0.00137437 -0.000115661 0)
(0.00143246 -0.000113549 0)
(0.00148948 -0.000111336 0)
(0.00154536 -0.00010902 0)
(0.00160007 -0.000106602 0)
(0.00165355 -0.000104082 0)
(0.00170574 -0.00010146 0)
(0.0017566 -9.87356e-05 0)
(0.00180607 -9.59096e-05 0)
(0.0018541 -9.29819e-05 0)
(0.00190065 -8.99531e-05 0)
(0.00194565 -8.68234e-05 0)
(0.00198906 -8.35934e-05 0)
(0.00203082 -8.02637e-05 0)
(0.00207089 -7.68352e-05 0)
(0.00210922 -7.33086e-05 0)
(0.00214575 -6.96852e-05 0)
(0.00218043 -6.59662e-05 0)
(0.00221323 -6.21527e-05 0)
(0.00224408 -5.82464e-05 0)
(0.00227293 -5.4249e-05 0)
(0.00229976 -5.01626e-05 0)
(0.0023245 -4.59893e-05 0)
(0.00234712 -4.17319e-05 0)
(0.00236757 -3.73929e-05 0)
(0.00238581 -3.29753e-05 0)
(0.00240179 -2.84822e-05 0)
(0.00241549 -2.39166e-05 0)
(0.00242686 -1.92822e-05 0)
(0.00243587 -1.45825e-05 0)
(0.00244248 -9.82167e-06 0)
(0.00244667 -5.0036e-06 0)
(0.0024484 -1.31671e-07 0)
(0.00244767 4.78705e-06 0)
(0.00244444 9.74601e-06 0)
(0.00243867 1.47398e-05 0)
(0.00243036 1.9764e-05 0)
(0.00241949 2.48134e-05 0)
(0.00240603 2.98823e-05 0)
(0.00238999 3.49649e-05 0)
(0.00237134 4.00546e-05 0)
(0.0023501 4.51451e-05 0)
(0.00232625 5.02294e-05 0)
(0.0022998 5.53009e-05 0)
(0.00227075 6.03523e-05 0)
(0.00223913 6.53764e-05 0)
(0.00220493 7.03656e-05 0)
(0.00216818 7.53123e-05 0)
(0.00212889 8.02088e-05 0)
(0.00208711 8.50476e-05 0)
(0.00204284 8.9821e-05 0)
(0.00199614 9.45215e-05 0)
(0.00194702 9.91413e-05 0)
(0.00189555 0.000103673 0)
(0.00184176 0.000108107 0)
(0.00178571 0.000112437 0)
(0.00172744 0.000116655 0)
(0.00166702 0.000120754 0)
(0.00160451 0.000124725 0)
(0.00153997 0.000128562 0)
(0.00147349 0.000132258 0)
(0.00140512 0.000135805 0)
(0.00133495 0.000139196 0)
(0.00126306 0.000142425 0)
(0.00118954 0.000145484 0)
(0.00111447 0.000148369 0)
(0.00103795 0.000151072 0)
(0.000960071 0.00015359 0)
(0.000880928 0.000155917 0)
(0.000800624 0.000158048 0)
(0.000719261 0.000159979 0)
(0.000636944 0.000161706 0)
(0.000553781 0.000163225 0)
(0.000469882 0.000164533 0)
(0.000385356 0.000165627 0)
(0.000300316 0.000166505 0)
(0.000214874 0.000167165 0)
(0.000129145 0.000167606 0)
(4.32449e-05 0.000167827 0)
(-4.27177e-05 0.000167827 0)
(-0.000128619 0.000167607 0)
(-0.000214349 0.000167166 0)
(-0.000299792 0.000166505 0)
(-0.000384833 0.000165627 0)
(-0.000469359 0.000164534 0)
(-0.00055326 0.000163226 0)
(-0.000636423 0.000161708 0)
(-0.000718741 0.000159982 0)
(-0.000800106 0.000158052 0)
(-0.000880412 0.000155923 0)
(-0.000959558 0.000153597 0)
(-0.00103744 0.000151079 0)
(-0.00111397 0.000148376 0)
(-0.00118904 0.000145492 0)
(-0.00126256 0.000142433 0)
(-0.00133445 0.000139205 0)
(-0.00140463 0.000135815 0)
(-0.001473 0.000132269 0)
(-0.00153949 0.000128575 0)
(-0.00160403 0.000124739 0)
(-0.00166655 0.000120768 0)
(-0.00172697 0.00011667 0)
(-0.00178524 0.000112452 0)
(-0.00184131 0.000108122 0)
(-0.0018951 0.000103689 0)
(-0.00194658 9.91589e-05 0)
(-0.0019957 9.45396e-05 0)
(-0.00204241 8.98396e-05 0)
(-0.00208668 8.5067e-05 0)
(-0.00212847 8.0229e-05 0)
(-0.00216776 7.53332e-05 0)
(-0.00220452 7.03876e-05 0)
(-0.00223873 6.53998e-05 0)
(-0.00227037 6.03771e-05 0)
(-0.00229942 5.53269e-05 0)
(-0.00232588 5.02567e-05 0)
(-0.00234973 4.51735e-05 0)
(-0.00237099 4.00841e-05 0)
(-0.00238964 3.49953e-05 0)
(-0.00240569 2.99133e-05 0)
(-0.00241916 2.48438e-05 0)
(-0.00243004 1.97932e-05 0)
(-0.00243836 1.47675e-05 0)
(-0.00244413 9.77179e-06 0)
(-0.00244737 4.81133e-06 0)
(-0.00244812 -1.08449e-07 0)
(-0.00244639 -4.98041e-06 0)
(-0.00244221 -9.79696e-06 0)
(-0.00243561 -1.45556e-05 0)
(-0.00242661 -1.92524e-05 0)
(-0.00241525 -2.38834e-05 0)
(-0.00240156 -2.84456e-05 0)
(-0.00238559 -3.29357e-05 0)
(-0.00236736 -3.73506e-05 0)
(-0.00234692 -4.16878e-05 0)
(-0.00232431 -4.59441e-05 0)
(-0.00229957 -5.0117e-05 0)
(-0.00227276 -5.42035e-05 0)
(-0.00224391 -5.82013e-05 0)
(-0.00221307 -6.21086e-05 0)
(-0.00218029 -6.59224e-05 0)
(-0.00214562 -6.96417e-05 0)
(-0.0021091 -7.32643e-05 0)
(-0.00207078 -7.67899e-05 0)
(-0.00203072 -8.02169e-05 0)
(-0.00198897 -8.35449e-05 0)
(-0.00194557 -8.67733e-05 0)
(-0.00190058 -8.99014e-05 0)
(-0.00185404 -9.29289e-05 0)
(-0.00180602 -9.58556e-05 0)
(-0.00175656 -9.86805e-05 0)
(-0.00170571 -0.000101403 0)
(-0.00165353 -0.000104021 0)
(-0.00160007 -0.000106535 0)
(-0.00154537 -0.000108945 0)
(-0.0014895 -0.000111253 0)
(-0.00143249 -0.000113461 0)
(-0.00137441 -0.000115569 0)
(-0.0013153 -0.000117577 0)
(-0.00125522 -0.000119483 0)
(-0.00119422 -0.000121288 0)
(-0.00113234 -0.000122989 0)
(-0.00106964 -0.000124588 0)
(-0.00100617 -0.000126086 0)
(-0.000941969 -0.000127484 0)
(-0.000877097 -0.000128782 0)
(-0.000811602 -0.000129982 0)
(-0.000745532 -0.000131086 0)
(-0.000678937 -0.000132093 0)
(-0.000611868 -0.000133003 0)
(-0.000544371 -0.000133813 0)
(-0.000476493 -0.000134524 0)
(-0.000408284 -0.000135133 0)
(-0.000339793 -0.000135639 0)
(-0.00027106 -0.000136008 0)
(-0.000202101 -0.000135985 0)
(-0.000133255 -0.000133928 0)
(-6.71284e-05 -0.000121776 0)
(-1.10234e-05 -7.13825e-05 0)
(1.13441e-05 -0.000112442 0)
(6.9218e-05 -0.000185384 0)
(0.000137344 -0.000201022 0)
(0.000207434 -0.000203897 0)
(0.000277266 -0.000204552 0)
(0.000346772 -0.000204558 0)
(0.000416045 -0.000204149 0)
(0.000485081 -0.000203431 0)
(0.000553836 -0.000202472 0)
(0.000622252 -0.000201312 0)
(0.000690271 -0.000199977 0)
(0.000757836 -0.000198477 0)
(0.000824889 -0.000196822 0)
(0.000891376 -0.000195013 0)
(0.000957242 -0.000193054 0)
(0.00102244 -0.000190944 0)
(0.0010869 -0.000188683 0)
(0.0011506 -0.000186271 0)
(0.00121346 -0.000183708 0)
(0.00127545 -0.000180993 0)
(0.0013365 -0.000178126 0)
(0.00139656 -0.000175106 0)
(0.0014556 -0.000171932 0)
(0.00151354 -0.000168605 0)
(0.00157034 -0.000165123 0)
(0.00162595 -0.000161487 0)
(0.00168031 -0.000157695 0)
(0.00173338 -0.00015375 0)
(0.00178509 -0.000149649 0)
(0.00183541 -0.000145394 0)
(0.00188426 -0.000140985 0)
(0.00193161 -0.000136422 0)
(0.0019774 -0.000131706 0)
(0.00202157 -0.000126837 0)
(0.00206408 -0.000121817 0)
(0.00210487 -0.000116647 0)
(0.0021439 -0.000111327 0)
(0.0021811 -0.00010586 0)
(0.00221644 -0.000100247 0)
(0.00224985 -9.44904e-05 0)
(0.00228129 -8.85921e-05 0)
(0.00231072 -8.25551e-05 0)
(0.00233808 -7.63823e-05 0)
(0.00236333 -7.0077e-05 0)
(0.00238643 -6.3643e-05 0)
(0.00240732 -5.70841e-05 0)
(0.00242597 -5.04046e-05 0)
(0.00244233 -4.36089e-05 0)
(0.00245637 -3.67019e-05 0)
(0.00246804 -2.96891e-05 0)
(0.00247732 -2.25763e-05 0)
(0.00248416 -1.53697e-05 0)
(0.00248854 -8.07641e-06 0)
(0.00249042 -7.04373e-07 0)
(0.00248978 6.74067e-06 0)
(0.00248659 1.42521e-05 0)
(0.00248083 2.18225e-05 0)
(0.00247247 2.94431e-05 0)
(0.00246151 3.71053e-05 0)
(0.00244792 4.47999e-05 0)
(0.00243169 5.25176e-05 0)
(0.00241282 6.02487e-05 0)
(0.0023913 6.79833e-05 0)
(0.00236713 7.5711e-05 0)
(0.00234031 8.34214e-05 0)
(0.00231085 9.11034e-05 0)
(0.00227875 9.87461e-05 0)
(0.00224404 0.000106338 0)
(0.00220672 0.000113867 0)
(0.00216682 0.000121323 0)
(0.00212437 0.000128693 0)
(0.00207939 0.000135966 0)
(0.00203192 0.00014313 0)
(0.001982 0.000150173 0)
(0.00192967 0.000157082 0)
(0.00187498 0.000163845 0)
(0.00181797 0.000170451 0)
(0.00175871 0.000176888 0)
(0.00169725 0.000183143 0)
(0.00163366 0.000189207 0)
(0.001568 0.000195066 0)
(0.00150034 0.00020071 0)
(0.00143077 0.000206128 0)
(0.00135936 0.000211309 0)
(0.00128619 0.000216242 0)
(0.00121135 0.000220918 0)
(0.00113493 0.000225327 0)
(0.00105703 0.000229461 0)
(0.00097774 0.000233311 0)
(0.000897159 0.000236869 0)
(0.00081539 0.000240129 0)
(0.00073254 0.000243082 0)
(0.000648715 0.000245722 0)
(0.000564025 0.000248045 0)
(0.000478581 0.000250045 0)
(0.000392497 0.000251718 0)
(0.000305888 0.00025306 0)
(0.000218868 0.000254069 0)
(0.000131554 0.000254742 0)
(4.40661e-05 0.000255078 0)
(-4.34856e-05 0.000255079 0)
(-0.000130975 0.000254742 0)
(-0.000218289 0.00025407 0)
(-0.000305311 0.000253061 0)
(-0.000391921 0.00025172 0)
(-0.000478005 0.000250048 0)
(-0.000563449 0.000248049 0)
(-0.00064814 0.000245727 0)
(-0.000731966 0.000243087 0)
(-0.000814818 0.000240135 0)
(-0.000896589 0.000236877 0)
(-0.000977173 0.00023332 0)
(-0.00105647 0.000229471 0)
(-0.00113437 0.000225338 0)
(-0.00121079 0.000220929 0)
(-0.00128564 0.000216254 0)
(-0.00135881 0.000211322 0)
(-0.00143022 0.000206143 0)
(-0.0014998 0.000200726 0)
(-0.00156746 0.000195083 0)
(-0.00163312 0.000189225 0)
(-0.00169672 0.000183163 0)
(-0.00175819 0.000176908 0)
(-0.00181746 0.000170472 0)
(-0.00187447 0.000163867 0)
(-0.00192916 0.000157104 0)
(-0.0019815 0.000150196 0)
(-0.00203142 0.000143155 0)
(-0.0020789 0.000135992 0)
(-0.00212388 0.00012872 0)
(-0.00216634 0.00012135 0)
(-0.00220624 0.000113895 0)
(-0.00224357 0.000106366 0)
(-0.00227829 9.87749e-05 0)
(-0.00231039 9.11336e-05 0)
(-0.00233986 8.34527e-05 0)
(-0.00236669 7.57437e-05 0)
(-0.00239087 6.80177e-05 0)
(-0.00241239 6.02846e-05 0)
(-0.00243127 5.25544e-05 0)
(-0.0024475 4.48371e-05 0)
(-0.0024611 3.71423e-05 0)
(-0.00247207 2.94795e-05 0)
(-0.00248043 2.18578e-05 0)
(-0.0024862 1.42861e-05 0)
(-0.00248939 6.77391e-06 0)
(-0.00249004 -6.71118e-07 0)
(-0.00248817 -8.04308e-06 0)
(-0.0024838 -1.53355e-05 0)
(-0.00247697 -2.25401e-05 0)
(-0.0024677 -2.96505e-05 0)
(-0.00245603 -3.66602e-05 0)
(-0.002442 -4.35643e-05 0)
(-0.00242565 -5.03573e-05 0)
(-0.002407 -5.70342e-05 0)
(-0.00238612 -6.35915e-05 0)
(-0.00236303 -7.00249e-05 0)
(-0.00233778 -7.633e-05 0)
(-0.00231043 -8.25029e-05 0)
(-0.00228101 -8.85399e-05 0)
(-0.00224957 -9.44388e-05 0)
(-0.00221616 -0.000100196 0)
(-0.00218084 -0.000105809 0)
(-0.00214364 -0.000111275 0)
(-0.00210462 -0.000116594 0)
(-0.00206384 -0.000121764 0)
(-0.00202134 -0.000126783 0)
(-0.00197717 -0.00013165 0)
(-0.00193139 -0.000136365 0)
(-0.00188404 -0.000140927 0)
(-0.00183519 -0.000145335 0)
(-0.00178488 -0.000149588 0)
(-0.00173317 -0.000153686 0)
(-0.00168011 -0.000157629 0)
(-0.00162575 -0.000161415 0)
(-0.00157014 -0.000165045 0)
(-0.00151334 -0.000168521 0)
(-0.0014554 -0.000171844 0)
(-0.00139636 -0.000175014 0)
(-0.00133629 -0.000178032 0)
(-0.00127524 -0.000180897 0)
(-0.00121325 -0.000183609 0)
(-0.00115038 -0.000186166 0)
(-0.00108667 -0.000188572 0)
(-0.00102219 -0.000190826 0)
(-0.00095697 -0.00019293 0)
(-0.00089107 -0.000194884 0)
(-0.000824539 -0.00019669 0)
(-0.000757428 -0.000198349 0)
(-0.000689787 -0.000199862 0)
(-0.000621665 -0.000201229 0)
(-0.000553109 -0.000202445 0)
(-0.000484168 -0.000203513 0)
(-0.000414891 -0.000204433 0)
(-0.000345331 -0.000205201 0)
(-0.000275526 -0.000205773 0)
(-0.000205496 -0.000205778 0)
(-0.000135591 -0.000202826 0)
(-6.85168e-05 -0.000184999 0)
(-1.12764e-05 -0.000109562 0)
(1.12987e-05 -0.000151041 0)
(6.88804e-05 -0.000249591 0)
(0.000137068 -0.000270852 0)
(0.00020767 -0.000274277 0)
(0.000278085 -0.000274637 0)
(0.000348117 -0.000274325 0)
(0.000417838 -0.00027363 0)
(0.000487265 -0.000272617 0)
(0.000556373 -0.000271327 0)
(0.00062512 -0.000269788 0)
(0.000693456 -0.000268019 0)
(0.00076133 -0.000266032 0)
(0.000828688 -0.000263835 0)
(0.000895477 -0.000261431 0)
(0.000961645 -0.000258824 0)
(0.00102714 -0.000256014 0)
(0.00109191 -0.000253001 0)
(0.0011559 -0.000249786 0)
(0.00121906 -0.000246366 0)
(0.00128135 -0.000242743 0)
(0.0013427 -0.000238916 0)
(0.00140306 -0.000234884 0)
(0.00146239 -0.000230646 0)
(0.00152063 -0.000226203 0)
(0.00157773 -0.000221552 0)
(0.00163363 -0.000216694 0)
(0.00168828 -0.000211629 0)
(0.00174164 -0.000206356 0)
(0.00179365 -0.000200875 0)
(0.00184424 -0.000195187 0)
(0.00189338 -0.000189292 0)
(0.00194101 -0.000183191 0)
(0.00198708 -0.000176884 0)
(0.00203152 -0.000170372 0)
(0.0020743 -0.000163656 0)
(0.00211536 -0.000156737 0)
(0.00215464 -0.000149619 0)
(0.0021921 -0.000142301 0)
(0.00222768 -0.000134788 0)
(0.00226134 -0.00012708 0)
(0.00229302 -0.000119183 0)
(0.00232268 -0.000111098 0)
(0.00235026 -0.00010283 0)
(0.00237573 -9.43842e-05 0)
(0.00239903 -8.57642e-05 0)
(0.00242012 -7.69754e-05 0)
(0.00243896 -6.80234e-05 0)
(0.0024555 -5.89142e-05 0)
(0.00246971 -4.96545e-05 0)
(0.00248154 -4.02514e-05 0)
(0.00249096 -3.07127e-05 0)
(0.00249794 -2.10467e-05 0)
(0.00250243 -1.12624e-05 0)
(0.00250442 -1.36993e-06 0)
(0.00250386 8.62231e-06 0)
(0.00250075 1.87059e-05 0)
(0.00249504 2.88705e-05 0)
(0.00248672 3.91048e-05 0)
(0.00247578 4.9397e-05 0)
(0.00246219 5.97348e-05 0)
(0.00244595 7.01058e-05 0)
(0.00242705 8.04969e-05 0)
(0.00240548 9.08945e-05 0)
(0.00238124 0.000101285 0)
(0.00235434 0.000111653 0)
(0.00232477 0.000121986 0)
(0.00229256 0.000132267 0)
(0.0022577 0.000142482 0)
(0.00222022 0.000152616 0)
(0.00218015 0.000162652 0)
(0.0021375 0.000172575 0)
(0.0020923 0.000182369 0)
(0.0020446 0.000192018 0)
(0.00199442 0.000201504 0)
(0.00194182 0.000210813 0)
(0.00188683 0.000219926 0)
(0.00182951 0.00022883 0)
(0.00176992 0.000237506 0)
(0.00170811 0.000245941 0)
(0.00164414 0.000254116 0)
(0.0015781 0.000262018 0)
(0.00151004 0.000269631 0)
(0.00144005 0.000276939 0)
(0.0013682 0.000283928 0)
(0.00129458 0.000290584 0)
(0.00121927 0.000296894 0)
(0.00114238 0.000302845 0)
(0.00106398 0.000308425 0)
(0.000984181 0.000313623 0)
(0.000903081 0.000318427 0)
(0.000820784 0.000322828 0)
(0.000737394 0.000326816 0)
(0.00065302 0.000330383 0)
(0.000567773 0.000333521 0)
(0.000481766 0.000336223 0)
(0.000395113 0.000338484 0)
(0.000307928 0.000340298 0)
(0.00022033 0.000341661 0)
(0.000132436 0.000342571 0)
(4.4365e-05 0.000343027 0)
(-4.37696e-05 0.000343027 0)
(-0.000131841 0.000342572 0)
(-0.000219736 0.000341663 0)
(-0.000307336 0.0003403 0)
(-0.00039452 0.000338488 0)
(-0.000481174 0.000336229 0)
(-0.000567182 0.000333528 0)
(-0.00065243 0.000330391 0)
(-0.000736804 0.000326826 0)
(-0.000820196 0.000322839 0)
(-0.000902496 0.000318439 0)
(-0.000983598 0.000313636 0)
(-0.0010634 0.000308439 0)
(-0.0011418 0.00030286 0)
(-0.0012187 0.00029691 0)
(-0.00129401 0.000290601 0)
(-0.00136763 0.000283945 0)
(-0.00143948 0.000276957 0)
(-0.00150948 0.00026965 0)
(-0.00157754 0.00026204 0)
(-0.00164359 0.000254139 0)
(-0.00170756 0.000245965 0)
(-0.00176938 0.000237532 0)
(-0.00182898 0.000228856 0)
(-0.0018863 0.000219954 0)
(-0.00194129 0.000210841 0)
(-0.0019939 0.000201534 0)
(-0.00204408 0.000192048 0)
(-0.00209179 0.000182401 0)
(-0.00213699 0.000172608 0)
(-0.00217965 0.000162686 0)
(-0.00221973 0.00015265 0)
(-0.00225721 0.000142517 0)
(-0.00229207 0.000132302 0)
(-0.0023243 0.000122022 0)
(-0.00235387 0.000111691 0)
(-0.00238078 0.000101323 0)
(-0.00240502 9.09348e-05 0)
(-0.0024266 8.05389e-05 0)
(-0.00244551 7.01486e-05 0)
(-0.00246175 5.9778e-05 0)
(-0.00247534 4.94403e-05 0)
(-0.00248629 3.9148e-05 0)
(-0.00249462 2.89135e-05 0)
(-0.00250033 1.87485e-05 0)
(-0.00250346 8.66485e-06 0)
(-0.00250402 -1.32689e-06 0)
(-0.00250204 -1.12191e-05 0)
(-0.00249755 -2.1003e-05 0)
(-0.00249059 -3.06677e-05 0)
(-0.00248117 -4.02044e-05 0)
(-0.00246935 -4.96051e-05 0)
(-0.00245514 -5.88622e-05 0)
(-0.00243861 -6.79691e-05 0)
(-0.00241978 -7.69191e-05 0)
(-0.00239869 -8.5707e-05 0)
(-0.00237539 -9.43272e-05 0)
(-0.00234993 -0.000102774 0)
(-0.00232235 -0.000111042 0)
(-0.0022927 -0.000119126 0)
(-0.00226103 -0.000127024 0)
(-0.00222737 -0.000134731 0)
(-0.0021918 -0.000142244 0)
(-0.00215434 -0.000149562 0)
(-0.00211507 -0.00015668 0)
(-0.00207402 -0.000163598 0)
(-0.00203124 -0.000170313 0)
(-0.0019868 -0.000176824 0)
(-0.00194074 -0.00018313 0)
(-0.00189311 -0.00018923 0)
(-0.00184398 -0.000195124 0)
(-0.00179338 -0.00020081 0)
(-0.00174138 -0.000206289 0)
(-0.00168803 -0.00021156 0)
(-0.00163337 -0.000216621 0)
(-0.00157747 -0.000221474 0)
(-0.00152037 -0.000226121 0)
(-0.00146213 -0.000230562 0)
(-0.00140279 -0.000234797 0)
(-0.00134242 -0.000238828 0)
(-0.00128106 -0.000242654 0)
(-0.00121877 -0.000246275 0)
(-0.0011556 -0.000249694 0)
(-0.00109159 -0.000252909 0)
(-0.0010268 -0.000255922 0)
(-0.000961275 -0.000258734 0)
(-0.000895069 -0.000261346 0)
(-0.000828233 -0.00026376 0)
(-0.000760817 -0.000265978 0)
(-0.00069287 -0.000267998 0)
(-0.00062444 -0.000269821 0)
(-0.000555575 -0.000271446 0)
(-0.000486326 -0.000272873 0)
(-0.000416743 -0.000274107 0)
(-0.000346877 -0.00027514 0)
(-0.000276767 -0.000275913 0)
(-0.000206434 -0.000275942 0)
(-0.000136236 -0.000272081 0)
(-6.89119e-05 -0.000248547 0)
(-1.13686e-05 -0.000148047 0)
(1.13041e-05 -0.00018945 0)
(6.88176e-05 -0.000313575 0)
(0.000136946 -0.000340742 0)
(0.000207776 -0.000344913 0)
(0.000278536 -0.000345042 0)
(0.000348934 -0.000344402 0)
(0.000419001 -0.00034339 0)
(0.000488745 -0.00034205 0)
(0.000558147 -0.000340404 0)
(0.000627169 -0.000338468 0)
(0.000695769 -0.000336255 0)
(0.000763897 -0.000333775 0)
(0.000831504 -0.000331033 0)
(0.000898539 -0.000328033 0)
(0.00096495 -0.000324778 0)
(0.00103069 -0.000321268 0)
(0.0010957 -0.000317504 0)
(0.00115994 -0.000313485 0)
(0.00122335 -0.000309211 0)
(0.00128587 -0.000304681 0)
(0.00134747 -0.000299896 0)
(0.00140808 -0.000294853 0)
(0.00146765 -0.000289553 0)
(0.00152614 -0.000283993 0)
(0.00158348 -0.000278175 0)
(0.00163963 -0.000272096 0)
(0.00169454 -0.000265757 0)
(0.00174814 -0.000259158 0)
(0.00180039 -0.000252298 0)
(0.00185124 -0.000245178 0)
(0.00190063 -0.000237797 0)
(0.0019485 -0.000230157 0)
(0.00199481 -0.000222259 0)