/*--------------------------------*- C++ -*----------------------------------*\
| =========                 |                                                 |
| \\      /  F ield         | OpenFOAM: The Open Source CFD Toolbox           |
|  \\    /   O peration     | Version:  2412                                  |
|   \\  /    A nd           | Website:  www.openfoam.com                      |
|    \\/     M anipulation  |                                                 |
\*---------------------------------------------------------------------------*/
FoamFile
{
    version     2.0;
    format      ascii;
    arch        "LSB;label=32;scalar=64";
    class       surfaceScalarField;
    location    "1.19";
    object      alphaPhi0.water;
}
// * * * * * * * * * * * * * * * * * * * * * * * * * * * * * * * * * * * * * //

dimensions      [0 3 -1 0 0 0 0];

oriented        oriented;

internalField   nonuniform List<scalar> 
79600
(
1.65415e-197
-5.56456e-194
6.8968e-188
-9.03153e-185
9.77375e-187
-7.82016e-184
1.76869e-186
-9.97924e-184
2.30429e-186
-9.97211e-184
2.68336e-186
-9.40783e-184
2.91731e-186
-8.60018e-184
3.01367e-186
-7.67167e-184
2.98541e-186
-6.69412e-184
2.85098e-186
-5.71768e-184
2.63227e-186
-4.7792e-184
2.35327e-186
-3.90661e-184
2.03873e-186
-3.12027e-184
1.71189e-186
-2.43263e-184
1.39298e-186
-1.84905e-184
1.09789e-186
-1.36855e-184
8.37536e-187
-9.84956e-185
6.17972e-187
-6.88461e-185
4.40706e-187
-4.66821e-185
3.03473e-187
-3.06647e-185
2.01585e-187
-1.94885e-185
1.29043e-187
-1.19679e-185
7.95151e-188
-7.09202e-186
4.70732e-188
-4.04699e-186
2.66858e-188
-2.21627e-186
1.44134e-188
-1.15878e-186
7.37153e-189
-5.74906e-187
3.54146e-189
-2.68502e-187
1.58632e-189
-1.17181e-187
6.58368e-190
-4.74874e-188
2.52182e-190
-1.77942e-188
8.90692e-191
-6.1568e-189
2.91094e-191
-1.97306e-189
8.84199e-192
-5.88096e-190
2.48776e-192
-1.62495e-190
6.36632e-193
-4.08761e-191
1.44801e-193
-9.14942e-192
2.88257e-194
-1.79393e-192
5.01237e-195
-3.07303e-193
7.66178e-196
-4.6265e-194
1.02882e-196
-6.11443e-195
1.19996e-197
-7.00885e-196
1.20081e-198
-6.87692e-197
1.02411e-199
-5.73178e-198
7.42547e-201
-4.04407e-199
4.57413e-202
-2.4102e-200
2.39352e-203
-1.21082e-201
1.06382e-204
-5.1127e-203
4.01321e-206
-1.80529e-204
1.28158e-207
-5.2747e-206
3.43952e-209
-1.24528e-207
7.62372e-211
-2.2327e-209
1.33572e-212
-2.40872e-211
1.75188e-214
3.66782e-218
2.26238e-216
2.82453e-219
2.87564e-218
6.58971e-221
3.59627e-220
1.20379e-222
4.42315e-222
1.9543e-224
5.34715e-224
2.94526e-226
6.34907e-226
4.2029e-228
7.39821e-228
5.73814e-230
8.45205e-230
7.53953e-232
9.45757e-232
9.5669e-234
1.03544e-233
1.17474e-235
1.108e-235
1.39753e-237
1.15757e-237
1.61171e-239
1.17939e-239
1.80217e-241
1.17053e-241
1.95356e-243
1.1303e-243
2.05221e-245
1.06061e-245
2.08802e-247
9.65822e-248
2.05611e-249
8.52344e-250
1.9578e-251
7.27895e-252
1.80076e-253
6.00583e-254
1.59806e-255
4.77963e-256
1.36649e-257
3.66223e-258
1.12421e-259
2.69634e-260
8.88397e-262
1.90353e-262
6.73131e-264
1.2856e-264
4.88048e-266
8.28546e-267
3.37866e-268
5.0816e-269
2.22792e-270
2.95695e-271
1.39564e-272
1.62701e-273
8.28108e-275
8.43371e-276
4.63888e-277
4.10123e-278
2.44432e-279
1.86219e-280
1.2065e-281
7.8524e-283
5.55245e-284
3.05599e-285
2.36978e-286
1.08973e-287
9.32206e-289
3.53002e-290
3.35552e-291
1.02809e-292
1.09581e-293
2.65801e-295
3.21333e-296
6.00324e-298
8.3542e-299
1.15994e-300
1.89505e-301
1.86356e-303
3.67306e-304
2.38925e-306
5.91245e-307
2.29115e-309
7.58565e-310
1.46054e-312
7.27058e-313
4.64413e-316
4.62685e-316
3.65609e-322
1.46688e-319
-5.68776e-316
1.80581e-319
-1.789e-312
5.69496e-316
-2.80047e-309
8.92794e-313
-2.91235e-306
9.28732e-310
-2.26479e-303
7.21586e-307
-1.40536e-300
4.46833e-304
-7.2511e-298
2.29794e-301
-3.20078e-295
1.00981e-298
-1.23435e-292
3.87203e-296
-4.22593e-290
1.31644e-293
-1.30087e-287
4.01921e-291
-3.63807e-285
1.11339e-288
-9.32313e-283
2.8225e-286
-2.20524e-280
6.59534e-284
-4.84455e-278
1.42936e-281
-9.93793e-276
2.8885e-279
-1.91265e-273
5.46844e-277
-3.46807e-271
9.73872e-275
-5.94662e-269
1.63749e-272
-9.67469e-267
2.60809e-270
-1.49796e-264
3.9465e-268
-2.21337e-262
5.68859e-266
-3.12886e-260
7.82963e-264
-4.24126e-258
1.03126e-261
-5.52459e-256
1.30241e-259
-6.92868e-254
1.58006e-257
-8.38174e-252
1.84435e-255
-9.79678e-250
2.0744e-253
-1.10811e-247
2.25119e-251
-1.2147e-245
2.36e-249
-1.29225e-243
2.3924e-247
-1.33593e-241
2.34735e-245
-1.34376e-239
2.2308e-243
-1.31667e-237
2.05455e-241
-1.2582e-235
1.83445e-239
-1.17388e-233
1.58818e-237
-1.07046e-231
1.33296e-235
-9.55099e-230
1.08389e-233
-8.34665e-228
8.52913e-232
-7.15142e-226
6.48211e-230
-6.01302e-224
4.7412e-228
-4.96565e-222
3.31768e-226
-4.03039e-220
2.19823e-224
-3.21699e-218
1.35219e-222
-2.52624e-216
7.39454e-221
-1.95245e-214
3.1701e-219
-1.48569e-212
4.20309e-218
-8.46512e-211
-2.67057e-211
-3.80703e-209
-2.47807e-209
-1.41243e-207
-1.37888e-207
-4.3996e-206
-5.81746e-206
-1.15907e-204
-1.98062e-204
-2.58995e-203
-5.5743e-203
-4.91326e-202
-1.31092e-201
-7.91573e-201
-2.59002e-200
-1.08349e-199
-4.31223e-199
-1.26114e-198
-6.06465e-198
-1.25153e-197
-7.22214e-197
-1.06631e-196
-7.30908e-196
-7.89818e-196
-6.33599e-195
-5.14264e-195
-4.76807e-194
-2.94427e-194
-3.15198e-193
-1.4727e-193
-1.83174e-192
-6.45092e-193
-9.30216e-192
-2.51333e-192
-4.1404e-191
-8.91188e-192
-1.64102e-190
-2.92869e-191
-5.92509e-190
-8.94688e-191
-1.98429e-189
-2.52941e-190
-6.18189e-189
-6.59478e-190
-1.78402e-188
-1.58718e-189
-4.75456e-188
-3.53988e-189
-1.17188e-187
-7.36196e-189
-2.68245e-187
-1.43834e-188
-5.73849e-187
-2.66111e-188
-1.15572e-186
-4.69135e-188
-2.20875e-186
-7.92138e-188
-4.03066e-186
-1.28529e-187
-7.0599e-186
-2.00774e-187
-1.19101e-185
-3.02276e-187
-1.93915e-185
-4.3903e-187
-3.05114e-185
-6.15726e-187
-4.645e-185
-8.34623e-187
-6.85068e-185
-1.09425e-186
-9.80081e-185
-1.3887e-186
-1.3617e-184
-1.70732e-186
-1.83983e-184
-2.03449e-186
-2.42074e-184
-2.3504e-186
-3.10571e-184
-2.63224e-186
-3.88975e-184
-2.85573e-186
-4.76109e-184
-2.99772e-186
-5.7009e-184
-3.03819e-186
-6.68392e-184
-2.96259e-186
-7.67894e-184
-2.76303e-186
-8.65106e-184
-2.43366e-186
-9.56241e-184
-1.93845e-186
-1.03458e-183
-1.09557e-186
-1.06749e-183
-7.11103e-188
-8.50041e-184
-1.22634e-197
-9.05347e-185
-4.1804e-194
1.00112e-193
-1.84541e-190
2.53475e-184
-1.82836e-181
3.25562e-183
-1.46876e-180
5.62144e-183
-1.81936e-180
7.14195e-183
-1.79325e-180
8.2265e-183
-1.68611e-180
8.92269e-183
-1.54542e-180
9.23622e-183
-1.38592e-180
9.19074e-183
-1.2174e-180
8.82964e-183
-1.04768e-180
8.21069e-183
-8.83022e-181
7.4009e-183
-7.28408e-181
6.47105e-183
-5.87585e-181
5.4894e-183
-4.63034e-181
4.51714e-183
-3.56057e-181
3.60406e-183
-2.66847e-181
2.78617e-183
-1.94655e-181
2.08548e-183
-1.38039e-181
1.51039e-183
-9.50554e-182
1.05739e-183
-6.34752e-182
7.14884e-184
-4.10512e-182
4.66306e-184
-2.56806e-182
2.93137e-184
-1.55194e-182
1.77273e-184
-9.0422e-183
1.02803e-184
-5.06241e-183
5.68882e-185
-2.70988e-183
2.9861e-185
-1.37867e-183
1.47532e-185
-6.61516e-184
6.81185e-186
-2.97264e-184
2.9213e-186
-1.24326e-184
1.15901e-186
-4.81863e-185
4.24906e-187
-1.72778e-185
1.44422e-187
-5.74788e-186
4.57126e-188
-1.78153e-186
1.34335e-188
-5.12861e-187
3.60067e-189
-1.34685e-187
8.60676e-190
-3.15456e-188
1.8069e-190
-6.48728e-189
3.32467e-191
-1.16833e-189
5.39648e-192
-1.85421e-190
7.72375e-193
-2.5896e-191
9.6395e-194
-3.14168e-192
1.03642e-194
-3.26527e-193
9.54087e-196
-2.88535e-194
7.5076e-197
-2.16053e-195
5.05187e-198
-1.36806e-196
2.91125e-199
-7.31094e-198
1.44021e-200
-3.28953e-199
6.13589e-202
-1.24133e-200
2.25955e-203
-3.89694e-202
7.2178e-205
-9.98949e-204
2.00554e-206
-1.99232e-205
4.8518e-208
-2.61427e-207
1.0197e-209
2.13625e-214
2.10117e-211
3.51613e-214
4.2418e-213
1.41802e-215
8.38575e-215
4.2221e-217
1.62278e-216
1.09593e-218
3.0727e-218
2.61272e-220
5.69003e-220
5.85389e-222
1.02993e-221
1.24754e-223
1.82114e-223
2.5464e-225
3.14365e-225
4.99895e-227
5.29377e-227
9.46339e-229
8.6896e-229
1.73033e-230
1.38922e-230
3.05862e-232
2.16114e-232
5.22919e-234
3.26822e-234
8.64754e-236
4.79954e-236
1.38299e-237
6.83688e-238
2.1381e-239
9.43537e-240
3.19344e-241
1.2599e-241
4.60434e-243
1.62548e-243
6.40237e-245
2.02319e-245
8.57626e-247
2.42548e-247
1.10532e-248
2.79572e-249
1.36866e-250
3.09243e-251
1.62567e-252
3.27577e-253
1.849e-254
3.31553e-255
2.00985e-256
3.1985e-257
2.08347e-258
2.93301e-259
2.05482e-260
2.54892e-261
1.92303e-262
2.09235e-263
1.70277e-264
1.61635e-265
1.42191e-266
1.1702e-267
1.11571e-268
7.90247e-270
8.1924e-271
4.9512e-272
5.60309e-273
2.8603e-274
3.55047e-275
1.5126e-276
2.07162e-277
7.25975e-279
1.10503e-279
3.12983e-281
5.34268e-282
1.19675e-283
2.31736e-284
3.99396e-286
8.90359e-287
1.13932e-288
2.98207e-289
2.70003e-291
8.52661e-292
5.10187e-294
2.02297e-294
7.20438e-297
3.82221e-297
6.75724e-300
5.3904e-300
3.15884e-303
5.04323e-303
3.70219e-309
2.34883e-306
-3.75178e-303
2.79749e-306
-8.04494e-300
6.02023e-303
-8.57708e-297
6.43388e-300
-6.06917e-294
4.55815e-297
-3.20829e-291
2.40956e-294
-1.352e-288
1.0142e-291
-4.73275e-286
3.54175e-289
-1.41601e-283
1.05583e-286
-3.69763e-281
2.74373e-284
-8.56359e-279
6.31568e-282
-1.7815e-276
1.3042e-279
-3.3636e-274
2.44116e-277
-5.81347e-272
4.1772e-275
-9.26454e-270
6.58181e-273
-1.36982e-267
9.60845e-271
-1.88923e-265
1.30655e-268
-2.44193e-263
1.6626e-266
-2.9704e-261
1.98801e-264
-3.41299e-259
2.24182e-262
-3.71652e-257
2.39193e-260
-3.84695e-255
2.42173e-258
-3.79538e-253
2.33279e-256
-3.57787e-251
2.14302e-254
-3.23003e-249
1.8815e-252
-2.79833e-247
1.58182e-250
-2.33095e-245
1.27569e-248
-1.87013e-243
9.88448e-247
-1.44752e-241
7.36878e-245
-1.08254e-239
5.29203e-243
-7.83324e-238
3.66538e-241
-5.49135e-236
2.45073e-239
-3.73409e-234
1.58303e-237
-2.46574e-232
9.8849e-236
-1.58279e-230
5.96934e-234
-9.88626e-229
3.48682e-232
-6.0141e-227
1.96988e-230
-3.56617e-225
1.07588e-228
-2.06283e-223
5.6754e-227
-1.16484e-221
2.88695e-225
-6.42531e-220
1.41242e-223
-3.46424e-218
6.61837e-222
-1.82658e-216
2.94979e-220
-9.4232e-215
1.23563e-218
-4.75856e-213
4.75427e-217
-2.35319e-211
1.59529e-215
-1.14015e-209
3.9584e-214
-5.41642e-208
3.34535e-214
-2.23374e-206
-2.92197e-207
-8.01212e-205
-2.22628e-205
-2.49722e-203
-1.11298e-203
-6.74485e-202
-4.32264e-202
-1.5732e-200
-1.36917e-200
-3.15775e-199
-3.60409e-199
-5.43824e-198
-7.95002e-198
-8.01864e-197
-1.47568e-196
-1.01108e-195
-2.31123e-195
-1.09004e-194
-3.06128e-194
-1.00657e-193
-3.437e-193
-8.01311e-193
-3.28233e-192
-5.56765e-192
-2.68745e-191
-3.41353e-191
-1.91334e-190
-1.84675e-190
-1.19962e-189
-8.75874e-190
-6.63027e-189
-3.65073e-189
-3.21002e-188
-1.35799e-188
-1.36543e-187
-4.61025e-188
-5.18382e-187
-1.45394e-187
-1.79642e-186
-4.27083e-187
-5.78549e-186
-1.16322e-186
-1.73627e-185
-2.92794e-186
-4.83505e-185
-6.81936e-186
-1.2458e-184
-1.47549e-185
-2.97518e-184
-2.98402e-185
-6.61424e-184
-5.68092e-185
-1.37735e-183
-1.02598e-184
-2.70534e-183
-1.76833e-184
-5.05072e-183
-2.92313e-184
-9.01654e-183
-4.64913e-184
-1.54697e-182
-7.12704e-184
-2.55926e-182
-1.05421e-183
-4.0906e-182
-1.50603e-183
-6.32496e-182
-2.07988e-183
-9.47236e-182
-2.77936e-183
-1.37572e-181
-3.59635e-183
-1.94028e-181
-4.50928e-183
-2.6604e-181
-5.48291e-183
-3.55084e-181
-6.46832e-183
-4.61955e-181
-7.40538e-183
-5.86552e-181
-8.22694e-183
-7.2771e-181
-8.86349e-183
-8.83146e-181
-9.24973e-183
-1.04944e-180
-9.33067e-183
-1.22209e-180
-9.06767e-183
-1.39581e-180
-8.44158e-183
-1.5648e-180
-7.43847e-183
-1.72286e-180
-5.95189e-183
-1.85921e-180
-3.42178e-183
-1.91863e-180
-2.40652e-184
-1.5433e-180
-7.23931e-194
-1.7602e-181
-1.40431e-190
1.30208e-190
-2.13009e-187
2.07062e-181
-1.29969e-178
2.53438e-180
-9.94876e-178
4.30009e-180
-1.21474e-177
5.40371e-180
-1.18804e-177
6.19539e-180
-1.11469e-177
6.71961e-180
-1.02359e-177
6.97581e-180
-9.21871e-178
6.97445e-180
-8.14445e-178
6.74125e-180
-7.05692e-178
6.31385e-180
-5.99409e-178
5.73795e-180
-4.98752e-178
5.06324e-180
-4.06193e-178
4.33889e-180
-3.23459e-178
3.61023e-180
-2.51577e-178
2.91545e-180
-1.90883e-178
2.28344e-180
-1.41103e-178
1.73337e-180
-1.015e-178
1.27444e-180
-7.09676e-179
9.06672e-181
-4.81653e-179
6.23558e-181
-3.16905e-179
4.14183e-181
-2.0189e-179
2.6543e-181
-1.2438e-179
1.6383e-181
-7.39609e-180
9.70911e-182
-4.23133e-180
5.49834e-182
-2.31775e-180
2.95835e-182
-1.2086e-180
1.50096e-182
-5.95511e-181
7.13245e-183
-2.7544e-181
3.15531e-183
-1.18858e-181
1.29417e-183
-4.76365e-182
4.91417e-184
-1.7695e-182
1.73289e-184
-6.10781e-183
5.70008e-185
-1.96713e-183
1.74404e-185
-5.89456e-184
4.87671e-186
-1.61441e-184
1.2188e-186
-3.95255e-185
2.68139e-187
-8.51629e-186
5.18194e-188
-1.61041e-186
8.85713e-189
-2.69008e-187
1.33798e-189
-3.96248e-188
1.76484e-190
-5.07519e-189
2.00676e-191
-5.56957e-190
1.95478e-192
-5.1965e-191
1.62871e-193
-4.10824e-192
1.1611e-194
-2.74536e-193
7.09212e-196
-1.54696e-194
3.72096e-197
-7.33045e-196
1.68311e-198
-2.90982e-197
6.59427e-200
-9.60281e-199
2.24962e-201
-2.58999e-200
6.71967e-203
-5.46465e-202
1.7671e-204
-7.7925e-204
4.11208e-206
-1.33934e-206
9.28724e-208
2.1732e-210
2.05098e-209
1.00545e-211
4.42797e-211
3.3216e-213
9.3436e-213
9.47718e-215
1.92643e-214
2.47219e-216
3.87931e-216
6.04317e-218
7.6264e-218
1.40209e-219
1.46293e-219
3.11024e-221
2.73659e-221
6.62609e-223
4.98879e-223
1.35949e-224
8.85659e-225
2.69097e-226
1.52997e-226
5.14398e-228
2.56963e-228
9.50129e-230
4.19205e-230
1.69601e-231
6.6361e-232
2.92538e-233
1.01826e-233
4.87401e-235
1.51269e-235
7.83964e-237
2.1729e-237
1.21643e-238
3.01391e-239
1.81911e-240
4.03068e-241
2.61908e-242
5.18905e-243
3.62593e-244
6.41956e-245
4.82019e-246
7.61747e-247
6.14341e-248
8.65195e-249
7.49383e-250
9.38516e-251
8.73201e-252
9.69905e-253
9.69882e-254
9.5237e-255
1.02446e-255
8.85888e-257
1.0264e-257
7.78062e-259
9.72557e-260
6.42852e-261
8.68739e-262
4.97587e-263
7.28891e-264
3.59129e-265
5.72081e-266
2.40397e-267
4.18077e-268
1.48326e-269
2.82976e-270
8.3748e-272
1.76305e-272
4.29026e-274
1.00387e-274
1.97362e-276
5.17938e-277
8.05002e-279
2.39659e-279
2.86501e-281
9.82018e-282
8.71318e-284
3.50672e-284
2.20087e-286
1.06873e-286
4.43141e-289
2.70195e-289
6.66648e-292
5.43858e-292
6.66009e-295
8.16917e-295
3.31629e-298
8.13904e-298
4.98428e-304
4.03674e-301
-3.93083e-298
4.79634e-301
-7.92405e-295
9.70617e-298
-7.93793e-292
9.74913e-295
-5.2757e-289
6.48898e-292
-2.61857e-286
3.22164e-289
-1.03578e-283
1.27313e-286
-3.40229e-281
4.17291e-284
-9.54889e-279
1.16722e-281
-2.3383e-276
2.84507e-279
-5.07674e-274
6.14079e-277
-9.89749e-272
1.18867e-274
-1.75068e-269
2.08486e-272
-2.83371e-267
3.34182e-270
-4.22775e-265
4.93071e-268
-5.85002e-263
6.73796e-266
-7.54793e-261
8.5734e-264
-9.12349e-259
1.02047e-261
-1.03742e-256
1.1409e-259
-1.11381e-254
1.20247e-257
-1.13283e-252
1.19862e-255
-1.09474e-250
1.13326e-253
-1.00789e-248
1.01895e-251
-8.86227e-247
8.73319e-250
-7.45886e-245
7.15007e-248
-6.02127e-243
5.60269e-246
-4.67101e-241
4.20907e-244
-3.48814e-239
3.03635e-242
-2.5115e-237
2.10619e-240
-1.74611e-235
1.40656e-238
-1.17382e-233
9.05319e-237
-7.63973e-232
5.62113e-235
-4.81956e-230
3.36935e-233
-2.95027e-228
1.95081e-231
-1.75419e-226
1.09142e-229
-1.01404e-224
5.90106e-228
-5.70384e-223
3.08286e-226
-3.12431e-221
1.55536e-224
-1.66774e-219
7.57036e-223
-8.68096e-218
3.54857e-221
-4.4089e-216
1.59744e-219
-2.18595e-214
6.87545e-218
-1.0585e-212
2.80867e-216
-5.00787e-211
1.07521e-214
-2.31557e-209
3.76359e-213
-1.04667e-207
1.13814e-211
-4.62581e-206
2.46176e-210
-1.98483e-204
-1.42566e-206
-7.5284e-203
-8.77976e-204
-2.51126e-201
-6.15182e-202
-7.32651e-200
-2.90584e-200
-1.85917e-198
-1.0721e-198
-4.08238e-197
-3.22847e-197
-7.72205e-196
-8.07379e-196
-1.25397e-194
-1.68988e-194
-1.74427e-193
-2.97275e-193
-2.07613e-192
-4.40877e-192
-2.11431e-191
-5.52765e-191
-1.84546e-190
-5.87474e-190
-1.38963e-189
-5.31125e-189
-9.1461e-189
-4.11763e-188
-5.32425e-188
-2.77885e-187
-2.74218e-187
-1.65504e-186
-1.24097e-186
-8.71066e-186
-4.94692e-186
-4.02482e-185
-1.76387e-185
-1.63775e-184
-5.75123e-185
-5.96184e-184
-1.7453e-184
-1.98478e-183
-4.94137e-184
-6.15144e-183
-1.29938e-183
-1.77924e-182
-3.16368e-183
-4.78264e-182
-7.1429e-183
-1.19169e-181
-1.50168e-182
-2.75833e-181
-2.95744e-182
-5.95776e-181
-5.49308e-182
-1.20819e-180
-9.69449e-182
-2.31544e-180
-1.6351e-181
-4.22472e-180
-2.64832e-181
-7.38116e-180
-4.13176e-181
-1.2409e-179
-6.21986e-181
-2.01381e-179
-9.04397e-181
-3.16075e-179
-1.27137e-180
-4.80388e-179
-1.72953e-180
-7.07875e-179
-2.27898e-180
-1.01258e-178
-2.91075e-180
-1.40803e-178
-3.606e-180
-1.90538e-178
-4.33632e-180
-2.51229e-178
-5.06408e-180
-3.23193e-178
-5.74452e-180
-4.06153e-178
-6.32908e-180
-4.99183e-178
-6.76865e-180
-6.00687e-178
-7.01804e-180
-7.08381e-178
-7.04031e-180
-8.19386e-178
-6.81037e-180
-9.30391e-178
-6.31718e-180
-1.03782e-177
-5.55291e-180
-1.13796e-177
-4.44202e-180
-1.22413e-177
-2.5746e-180
-1.26154e-177
-1.92561e-181
-1.02105e-177
-9.88773e-191
-1.23369e-178
-1.67962e-187
8.8347e-188
-1.3947e-184
8.72299e-179
-5.1819e-176
1.03078e-177
-3.80847e-175
1.74016e-177
-4.61872e-175
2.18027e-177
-4.50214e-175
2.49836e-177
-4.2224e-175
2.71466e-177
-3.88551e-175
2.82853e-177
-3.51346e-175
2.8424e-177
-3.12087e-175
2.76459e-177
-2.72186e-175
2.60825e-177
-2.32941e-175
2.39004e-177
-1.95478e-175
2.12857e-177
-1.60712e-175
1.84274e-177
-1.29317e-175
1.55048e-177
-1.01728e-175
1.26736e-177
-7.81433e-176
1.00571e-177
-5.8538e-176
7.74268e-178
-4.27141e-176
5.77918e-178
-3.03252e-176
4.17806e-178
-2.09187e-176
2.92283e-178
-1.40025e-176
1.97676e-178
-9.08417e-177
1.29123e-178
-5.70498e-177
8.13256e-179
-3.46191e-177
4.92413e-179
-2.02359e-177
2.85298e-179
-1.1341e-177
1.57303e-179
-6.06075e-178
8.19409e-180
-3.06665e-178
4.00694e-180
-1.46019e-178
1.82853e-180
-6.50345e-179
7.75353e-181
-2.69646e-179
3.04928e-181
-1.03808e-179
1.11537e-181
-3.71881e-180
3.81126e-182
-1.24462e-180
1.21345e-182
-3.88186e-181
3.53746e-183
-1.1088e-181
9.23821e-184
-2.83872e-182
2.12859e-184
-6.41254e-183
4.31739e-185
-1.27411e-183
7.76327e-186
-2.24138e-184
1.2362e-186
-3.48381e-185
1.72039e-187
-4.71333e-186
2.064e-188
-5.46476e-187
2.12102e-189
-5.38714e-188
1.86389e-190
-4.49963e-189
1.40052e-191
-3.17507e-190
9.00544e-193
-1.88687e-191
4.96544e-194
-9.41349e-193
2.35575e-195
-3.9262e-194
9.66064e-197
-1.35877e-195
3.44294e-198
-3.83804e-197
1.07265e-199
-8.48819e-199
2.93934e-201
-1.28319e-200
7.12778e-203
-3.64096e-203
1.66762e-204
5.11007e-207
3.8107e-206
2.52101e-208
8.50415e-208
8.69017e-210
1.85311e-209
2.57239e-211
3.94192e-211
6.94251e-213
8.18291e-213
1.75271e-214
1.65701e-214
4.19431e-216
3.27158e-216
9.58635e-218
6.29459e-218
2.10229e-219
1.17947e-219
4.43643e-221
2.15092e-221
9.02541e-223
3.8146e-223
1.77202e-224
6.57364e-225
3.35965e-226
1.09977e-226
6.15225e-228
1.78449e-228
1.08805e-229
2.8053e-230
1.8578e-231
4.26775e-232
3.0609e-233
6.27523e-234
4.86277e-235
8.90609e-236
7.44248e-237
1.21825e-237
1.09621e-238
1.60356e-239
1.55196e-240
2.02765e-241
2.10906e-242
2.45834e-243
2.74692e-244
2.852e-245
3.42303e-246
3.159e-247
4.07336e-248
3.33259e-249
4.61912e-250
3.3395e-251
4.97981e-252
3.16928e-253
5.09079e-254
2.83916e-255
4.92066e-256
2.39206e-257
4.48255e-258
1.8876e-259
3.83459e-260
1.38859e-261
3.06784e-262
9.47193e-264
2.28482e-264
5.95414e-266
1.57568e-266
3.42437e-268
1.00004e-268
1.78652e-270
5.79926e-271
8.36799e-273
3.04671e-273
3.47464e-275
1.43523e-275
1.25868e-277
5.98609e-278
3.89555e-280
2.17542e-280
1.0012e-282
6.74614e-283
2.05084e-285
1.73514e-285
3.13826e-288
3.55262e-288
3.18878e-291
5.42731e-291
1.61486e-294
5.49884e-294
2.66976e-300
2.77335e-297
-1.9298e-294
3.32221e-297
-3.82697e-291
6.61468e-294
-3.77025e-288
6.53497e-291
-2.46381e-285
4.27743e-288
-1.2022e-282
2.08799e-285
-4.67395e-280
8.11128e-283
-1.50873e-277
2.61302e-280
-4.16043e-275
7.18223e-278
-1.0008e-272
1.71997e-275
-2.13407e-270
3.64663e-273
-4.08545e-268
6.93231e-271
-7.09454e-266
1.19387e-268
-1.12715e-263
1.8786e-266
-1.65025e-261
2.72042e-264
-2.24034e-259
3.64784e-262
-2.8353e-257
4.55342e-260
-3.36078e-255
5.31568e-258
-3.74656e-253
5.82737e-256
-3.94253e-251
6.02075e-254
-3.92913e-249
5.88158e-252
-3.71949e-247
5.44826e-250
-3.35353e-245
4.79808e-248
-2.88677e-243
4.02662e-246
-2.37782e-241
3.22695e-244
-1.87797e-239
2.47429e-242
-1.42479e-237
1.81827e-240
-1.04019e-235
1.28258e-238
-7.31922e-234
8.69608e-237
-4.97093e-232
5.67416e-235
-3.26301e-230
3.56677e-233
-2.07275e-228
2.16188e-231
-1.27563e-226
1.26439e-229
-7.61392e-225
7.13935e-228
-4.41189e-223
3.89321e-226
-2.48406e-221
2.05054e-224
-1.36012e-219
1.0429e-222
-7.24757e-218
5.11896e-221
-3.76102e-216
2.42218e-219
-1.90187e-214
1.10287e-217
-9.3767e-213
4.81814e-216
-4.5094e-211
2.01032e-214
-2.11621e-209
7.95068e-213
-9.69418e-208
2.94148e-211
-4.33594e-206
9.92304e-210
-1.89387e-204
2.87557e-208
-8.07887e-203
5.83285e-207
-3.32572e-201
-4.01749e-203
-1.21021e-199
-1.45784e-200
-3.86893e-198
-9.63028e-199
-1.07994e-196
-4.33766e-197
-2.61667e-195
-1.52722e-195
-5.47444e-194
-4.38259e-194
-9.84643e-193
-1.0423e-192
-1.5178e-191
-2.07048e-191
-2.00178e-190
-3.45086e-190
-2.25776e-189
-4.84328e-189
-2.17847e-188
-5.74405e-188
-1.80145e-187
-5.77492e-187
-1.28528e-186
-4.93972e-186
-8.02323e-186
-3.6243e-185
-4.43894e-185
-2.31742e-184
-2.17806e-184
-1.31036e-183
-9.41076e-184
-6.56281e-183
-3.58996e-183
-2.89213e-182
-1.22776e-182
-1.12538e-181
-3.84689e-182
-3.92803e-181
-1.12375e-181
-1.25635e-180
-3.06717e-181
-3.74691e-180
-7.78726e-181
-1.04421e-179
-1.83396e-180
-2.70825e-179
-4.01407e-180
-6.52298e-179
-8.20062e-180
-1.46286e-178
-1.57308e-179
-3.06925e-178
-2.85127e-179
-6.06129e-178
-4.91857e-179
-1.13348e-177
-8.11996e-179
-2.0214e-177
-1.28885e-178
-3.45671e-177
-1.97277e-178
-5.69477e-177
-2.91664e-178
-9.06629e-177
-4.16918e-178
-1.39737e-176
-5.76744e-178
-2.08755e-176
-7.72834e-178
-3.02653e-176
-1.00412e-177
-4.26378e-176
-1.2658e-177
-5.84499e-176
-1.54925e-177
-7.80541e-176
-1.84234e-177
-1.01659e-175
-2.12962e-177
-1.29307e-175
-2.39338e-177
-1.60821e-175
-2.61484e-177
-1.95799e-175
-2.77547e-177
-2.3361e-175
-2.85865e-177
-2.73392e-175
-2.85114e-177
-3.141e-175
-2.74441e-177
-3.54547e-175
-2.53527e-177
-3.93486e-175
-2.22151e-177
-4.29629e-175
-1.77445e-177
-4.60629e-175
-1.03408e-177
-4.73879e-175
-8.16592e-179
-3.85429e-175
-7.09148e-188
-4.91254e-176
-1.13873e-184
4.06897e-185
-6.21147e-182
2.44417e-176
-1.38419e-173
2.78383e-175
-9.77163e-173
4.69257e-175
-1.18104e-172
5.88226e-175
-1.15056e-172
6.75101e-175
-1.0802e-172
7.35684e-175
-9.96687e-173
7.69783e-175
-9.05008e-173
7.77719e-175
-8.08235e-173
7.61289e-175
-7.0949e-173
7.23569e-175
-6.11767e-173
6.68602e-175
-5.17757e-173
6.01037e-175
-4.29725e-173
5.25711e-175
-3.4941e-173
4.4734e-175
-2.78027e-173
3.70156e-175
-2.16238e-173
2.97643e-175
-1.64173e-173
2.32427e-175
-1.21534e-173
1.76142e-175
-8.76249e-174
1.29418e-175
-6.14435e-174
9.21013e-176
-4.18478e-174
6.34271e-176
-2.76493e-174
4.22299e-176
-1.77013e-174
2.71403e-176
-1.09617e-174
1.67884e-176
-6.54642e-175
9.95116e-177
-3.75368e-175
5.6225e-177
-2.05591e-175
3.0073e-177
-1.06839e-175
1.51374e-177
-5.23883e-176
7.12881e-178
-2.40953e-176
3.1268e-178
-1.03421e-176
1.27428e-178
-4.12919e-177
4.83686e-179
-1.53603e-177
1.71724e-179
-5.34373e-178
5.6898e-180
-1.73498e-178
1.72956e-180
-5.16993e-179
4.72228e-181
-1.3851e-179
1.1405e-181
-3.28409e-180
2.43001e-182
-6.86429e-181
4.60037e-183
-1.27302e-181
7.72751e-184
-2.08997e-182
1.13556e-184
-2.99039e-183
1.43874e-185
-3.66843e-184
1.56135e-186
-3.82744e-185
1.44874e-187
-3.38409e-186
1.14862e-188
-2.52667e-187
7.78215e-190
-1.58695e-188
4.51215e-191
-8.35276e-190
2.24552e-192
-3.66756e-191
9.63301e-194
-1.33322e-192
3.58092e-195
-3.94796e-194
1.16025e-196
-9.14854e-196
3.29689e-198
-1.45815e-197
8.2674e-200
-5.33896e-200
1.99053e-201
7.51442e-204
4.67615e-203
3.89953e-205
1.0718e-204
1.39012e-206
2.39663e-206
4.23663e-208
5.22711e-208
1.17466e-209
1.11168e-209
3.04226e-211
2.30461e-211
7.4603e-213
4.65511e-213
1.74567e-214
9.15717e-215
3.91621e-216
1.75323e-216
8.44815e-218
3.26501e-218
1.75577e-219
5.90996e-220
3.51949e-221
1.03895e-221
6.80891e-223
1.77228e-223
1.27164e-224
2.93081e-225
2.29255e-226
4.69362e-227
3.98849e-228
7.27115e-229
6.69282e-230
1.08828e-230
1.08248e-231
1.5716e-232
1.686e-233
2.18666e-234
2.52627e-235
2.92668e-236
3.63718e-237
3.7617e-238
5.02486e-239
4.63449e-240
6.65115e-241
5.462e-242
8.42063e-243
6.14427e-244
1.01776e-244
6.58119e-246
1.1719e-246
6.69412e-248
1.28253e-248
6.44695e-250
1.33062e-250
5.8595e-252
1.30496e-252
5.0075e-254
1.20588e-254
4.00723e-256
1.04619e-256
2.98881e-258
8.48669e-259
2.06664e-260
6.40742e-261
1.31663e-262
4.47858e-263
7.67294e-265
2.88034e-265
4.05551e-267
1.69228e-267
1.92415e-269
9.00591e-270
8.09162e-272
4.29675e-272
2.9681e-274
1.81472e-274
9.30034e-277
6.6771e-277
2.41964e-279
2.09609e-279
5.01648e-282
5.45676e-282
7.76844e-285
1.13066e-284
7.98708e-288
1.74778e-287
4.09232e-291
1.79158e-290
6.97184e-297
9.14084e-294
-4.95044e-291
1.10848e-293
-9.70377e-288
2.18184e-290
-9.44789e-285
2.13056e-287
-6.1008e-282
1.37817e-284
-2.94106e-279
6.64746e-282
-1.12952e-276
2.55125e-279
-3.60108e-274
8.11851e-277
-9.80618e-272
2.2039e-274
-2.32905e-269
5.21174e-272
-4.90267e-267
1.09095e-269
-9.2636e-265
2.04724e-267
-1.58745e-262
3.47973e-265
-2.48834e-260
5.40305e-263
-3.59373e-258
7.71923e-261
-4.81157e-256
1.02098e-258
-6.00424e-254
1.25682e-256
-7.01599e-252
1.44662e-254
-7.70853e-250
1.56325e-252
-7.9928e-248
1.59172e-250
-7.84687e-246
1.53201e-248
-7.31556e-244
1.39787e-246
-6.494e-242
1.21228e-244
-5.5023e-240
1.00157e-242
-4.45969e-238
7.89978e-241
-3.46475e-236
5.95965e-239
-2.58495e-234
4.30763e-237
-1.85518e-232
2.98763e-235
-1.28277e-230
1.99103e-233
-8.55803e-229
1.27646e-231
-5.51613e-227
7.88066e-230
-3.43925e-225
4.68945e-228
-2.07659e-223
2.69146e-226
-1.21547e-221
1.49067e-224
-6.90335e-220
7.96957e-223
-3.80778e-218
4.11311e-221
-2.04139e-216
2.04872e-219
-1.06446e-214
9.84221e-218
-5.40215e-213
4.55516e-216
-2.66982e-211
2.0272e-214
-1.28556e-209
8.64917e-213
-6.03367e-208
3.52117e-211
-2.76123e-206
1.35729e-209
-1.23246e-204
4.88714e-208
-5.36627e-203
1.60104e-206
-2.27956e-201
4.48571e-205
-9.44747e-200
8.64923e-204
-3.75994e-198
-5.99779e-200
-1.31898e-196
-1.67123e-197
-4.05262e-195
-1.0465e-195
-1.08389e-193
-4.49606e-194
-2.5088e-192
-1.50896e-192
-4.99998e-191
-4.11928e-191
-8.54545e-190
-9.29806e-190
-1.24919e-188
-1.7492e-188
-1.56029e-187
-2.75618e-187
-1.66565e-186
-3.65305e-186
-1.5211e-185
-4.09013e-185
-1.19059e-184
-3.88325e-184
-8.04215e-184
-3.13806e-183
-4.75806e-183
-2.17639e-182
-2.49993e-182
-1.31722e-181
-1.16757e-181
-7.06381e-181
-4.81246e-181
-3.36263e-180
-1.7559e-180
-1.41172e-179
-5.75893e-180
-5.24925e-179
-1.73384e-179
-1.75626e-178
-4.87459e-179
-5.39579e-178
-1.2821e-178
-1.54809e-177
-3.1412e-178
-4.15464e-177
-7.15183e-178
-1.03901e-176
-1.51683e-177
-2.4174e-176
-3.01051e-177
-5.2498e-176
-5.62424e-177
-1.0696e-175
-9.94803e-177
-2.0567e-175
-1.67743e-176
-3.75277e-175
-2.71064e-176
-6.54142e-175
-4.21651e-176
-1.09488e-174
-6.33182e-176
-1.76755e-174
-9.19337e-176
-2.76041e-174
-1.2918e-175
-4.17754e-174
-1.75833e-175
-6.13367e-174
-2.32059e-175
-8.74802e-174
-2.97251e-175
-1.21357e-173
-3.69793e-175
-1.63979e-173
-4.47091e-175
-2.1606e-173
-5.25702e-175
-2.77925e-173
-6.01423e-175
-3.49483e-173
-6.69574e-175
-4.30123e-173
-7.25332e-175
-5.18697e-173
-7.64047e-175
-6.13547e-173
-7.81648e-175
-7.12509e-173
-7.75006e-175
-8.13021e-173
-7.42219e-175
-9.12243e-173
-6.82756e-175
-1.00725e-172
-5.96256e-175
-1.09505e-172
-4.75399e-175
-1.17005e-172
-2.78293e-175
-1.2014e-172
-2.31426e-176
-9.81297e-173
-3.40227e-185
-1.31687e-173
-5.218e-182
1.40183e-182
-2.05097e-179
5.03892e-174
-2.69985e-171
5.51265e-173
-1.8281e-170
9.28016e-173
-2.2048e-170
1.1652e-172
-2.14992e-170
1.34065e-172
-2.0226e-170
1.46609e-172
-1.87231e-170
1.54104e-172
-1.70765e-170
1.56561e-172
-1.53351e-170
1.54259e-172
-1.35503e-170
1.4772e-172
-1.17728e-170
1.37658e-172
-1.00494e-170
1.2492e-172
-8.42088e-171
1.10407e-172
-6.9197e-171
9.50242e-173
-5.57007e-171
7.96082e-173
-4.38697e-171
6.48745e-173
-3.37624e-171
5.13938e-173
-2.53617e-171
3.95518e-173
-1.85736e-171
2.95389e-173
-1.3242e-171
2.13881e-173
-9.1783e-172
1.5e-173
-6.17701e-172
1.01805e-173
-4.03189e-172
6.67654e-174
-2.54814e-172
4.21932e-174
-1.55483e-172
2.55864e-174
-9.12167e-173
1.48153e-174
-5.12058e-173
8.13794e-175
-2.73344e-173
4.2181e-175
-1.38087e-173
2.05124e-175
-6.56292e-174
9.31309e-176
-2.91839e-174
3.93586e-176
-1.20938e-174
1.55117e-176
-4.67464e-175
5.72396e-177
-1.69112e-175
1.97407e-177
-5.71707e-176
6.25933e-178
-1.7779e-176
1.78819e-178
-4.98914e-177
4.53233e-179
-1.24328e-177
1.0157e-179
-2.73751e-178
2.02676e-180
-5.35826e-179
3.59521e-181
-9.30203e-180
5.58601e-182
-1.4096e-180
7.48616e-183
-1.83283e-181
8.59546e-184
-2.02801e-182
8.43907e-185
-1.90241e-183
7.07605e-186
-1.50666e-184
5.06361e-187
-1.00272e-185
3.09479e-188
-5.58286e-187
1.61949e-189
-2.58758e-188
7.28477e-191
-9.90632e-190
2.83091e-192
-3.08294e-191
9.55851e-194
-7.50028e-193
2.82133e-195
-1.26051e-194
7.32542e-197
-5.55557e-197
1.81781e-198
8.07266e-201
4.39654e-200
4.40348e-202
1.03643e-201
1.6243e-203
2.38135e-203
5.10133e-205
5.33212e-205
1.45455e-206
1.16326e-206
3.86864e-208
2.47185e-208
9.73176e-210
5.11411e-210
2.33383e-211
1.02973e-211
5.36162e-213
2.01672e-213
1.18358e-214
3.83953e-215
2.51549e-216
7.10099e-217
5.15335e-218
1.27479e-218
1.01834e-219
2.21958e-220
1.9416e-221
3.74467e-222
3.5717e-223
6.11543e-224
6.33755e-225
9.65674e-226
1.08415e-226
1.47265e-227
1.78682e-228
2.16605e-229
2.83487e-230
3.06841e-231
4.32518e-232
4.17988e-233
6.33848e-234
5.4662e-235
8.91032e-236
6.84982e-237
1.19971e-237
8.20868e-239
1.54453e-239
9.38666e-241
1.89778e-241
1.02175e-242
2.22083e-243
1.05589e-244
2.46945e-245
1.03289e-246
2.60246e-247
9.53303e-249
2.59191e-249
8.27104e-251
2.43173e-251
6.71821e-253
2.14145e-253
5.08495e-255
1.76292e-255
3.56731e-257
1.35046e-257
2.30537e-259
9.57531e-260