/*--------------------------------*- C++ -*----------------------------------*\
| =========                 |                                                 |
| \\      /  F ield         | OpenFOAM: The Open Source CFD Toolbox           |
|  \\    /   O peration     | Version:  2412                                  |
|   \\  /    A nd           | Website:  www.openfoam.com                      |
|    \\/     M anipulation  |                                                 |
\*---------------------------------------------------------------------------*/
FoamFile
{
    version     2.0;
    format      ascii;
    arch        "LSB;label=32;scalar=64";
    class       volScalarField;
    location    "1.19";
    object      p_rgh;
}
// * * * * * * * * * * * * * * * * * * * * * * * * * * * * * * * * * * * * * //

dimensions      [1 -1 -2 0 0 0 0];

internalField   nonuniform List<scalar> 
40000
(
1.962
1.96204
1.96199
1.96186
1.96164
1.96133
1.96093
1.96044
1.95986
1.9592
1.95845
1.95761
1.95669
1.95569
1.9546
1.95344
1.95219
1.95086
1.94945
1.94797
1.94641
1.94478
1.94307
1.9413
1.93946
1.93755
1.93557
1.93353
1.93143
1.92928
1.92706
1.92479
1.92247
1.9201
1.91768
1.91521
1.91271
1.91016
1.90757
1.90495
1.9023
1.89962
1.89691
1.89418
1.89143
1.88866
1.88587
1.88307
1.88026
1.87745
1.87463
1.87181
1.86899
1.86618
1.86337
1.86058
1.8578
1.85503
1.85229
1.84957
1.84687
1.84421
1.84157
1.83897
1.8364
1.83387
1.83139
1.82894
1.82655
1.8242
1.82191
1.81966
1.81748
1.81535
1.81328
1.81128
1.80934
1.80747
1.80566
1.80392
1.80226
1.80067
1.79915
1.79771
1.79635
1.79506
1.79386
1.79274
1.7917
1.79074
1.78987
1.78908
1.78838
1.78776
1.78723
1.78679
1.78643
1.78617
1.78599
1.7859
1.7859
1.78599
1.78616
1.78643
1.78678
1.78722
1.78775
1.78836
1.78906
1.78985
1.79072
1.79168
1.79272
1.79384
1.79504
1.79632
1.79768
1.79912
1.80064
1.80223
1.80389
1.80562
1.80743
1.8093
1.81124
1.81324
1.81531
1.81743
1.81962
1.82186
1.82415
1.8265
1.82889
1.83133
1.83382
1.83635
1.83891
1.84151
1.84415
1.84682
1.84951
1.85223
1.85498
1.85774
1.86052
1.86331
1.86611
1.86893
1.87174
1.87456
1.87738
1.8802
1.88301
1.8858
1.88859
1.89136
1.89411
1.89685
1.89955
1.90224
1.90489
1.90751
1.91009
1.91264
1.91515
1.91761
1.92003
1.9224
1.92472
1.92699
1.92921
1.93136
1.93346
1.9355
1.93748
1.93939
1.94123
1.94301
1.94471
1.94634
1.9479
1.94938
1.95079
1.95212
1.95337
1.95453
1.95562
1.95663
1.95755
1.95838
1.95913
1.9598
1.96037
1.96086
1.96127
1.96158
1.96181
1.96194
1.96199
1.96195
1.96196
1.962
1.96196
1.96182
1.9616
1.96129
1.96089
1.9604
1.95983
1.95916
1.95841
1.95758
1.95666
1.95566
1.95457
1.9534
1.95215
1.95082
1.94942
1.94794
1.94638
1.94475
1.94304
1.94127
1.93942
1.93751
1.93554
1.9335
1.9314
1.92925
1.92703
1.92476
1.92244
1.92007
1.91765
1.91519
1.91268
1.91013
1.90755
1.90493
1.90228
1.8996
1.89689
1.89416
1.89141
1.88864
1.88585
1.88305
1.88025
1.87743
1.87461
1.87179
1.86898
1.86617
1.86336
1.86057
1.85779
1.85503
1.85229
1.84957
1.84688
1.84421
1.84157
1.83897
1.83641
1.83388
1.8314
1.82896
1.82656
1.82422
1.82193
1.81969
1.8175
1.81538
1.81331
1.81131
1.80937
1.8075
1.80569
1.80396
1.8023
1.80071
1.79919
1.79776
1.79639
1.79511
1.79391
1.79279
1.79175
1.79079
1.78992
1.78913
1.78843
1.78782
1.78729
1.78685
1.78649
1.78623
1.78605
1.78596
1.78596
1.78605
1.78622
1.78649
1.78684
1.78728
1.7878
1.78842
1.78912
1.7899
1.79077
1.79173
1.79277
1.79388
1.79509
1.79637
1.79773
1.79916
1.80068
1.80226
1.80393
1.80566
1.80746
1.80933
1.81127
1.81327
1.81533
1.81746
1.81964
1.82188
1.82417
1.82651
1.82891
1.83135
1.83383
1.83635
1.83892
1.84152
1.84415
1.84682
1.84951
1.85223
1.85497
1.85773
1.86051
1.8633
1.86611
1.86892
1.87173
1.87455
1.87737
1.88018
1.88299
1.88579
1.88857
1.89134
1.89409
1.89682
1.89953
1.90221
1.90486
1.90748
1.91007
1.91261
1.91512
1.91758
1.92
1.92237
1.92469
1.92696
1.92918
1.93133
1.93343
1.93547
1.93745
1.93936
1.9412
1.94297
1.94468
1.94631
1.94787
1.94935
1.95076
1.95208
1.95333
1.9545
1.95559
1.95659
1.95751
1.95835
1.9591
1.95976
1.96034
1.96083
1.96123
1.96154
1.96177
1.96191
1.96195
1.96191
1.962
1.96205
1.962
1.96187
1.96164
1.96133
1.96093
1.96044
1.95986
1.9592
1.95845
1.95761
1.95669
1.95569
1.9546
1.95343
1.95218
1.95086
1.94945
1.94797
1.94641
1.94477
1.94307
1.94129
1.93945
1.93754
1.93556
1.93352
1.93142
1.92926
1.92705
1.92478
1.92245
1.92008
1.91766
1.91519
1.91269
1.91014
1.90755
1.90493
1.90228
1.8996
1.89689
1.89416
1.8914
1.88863
1.88584
1.88304
1.88023
1.87742
1.8746
1.87178
1.86896
1.86615
1.86334
1.86055
1.85777
1.85501
1.85226
1.84954
1.84685
1.84418
1.84155
1.83894
1.83638
1.83385
1.83137
1.82893
1.82653
1.82419
1.82189
1.81965
1.81747
1.81534
1.81328
1.81128
1.80934
1.80746
1.80566
1.80393
1.80226
1.80067
1.79916
1.79772
1.79636
1.79508
1.79387
1.79275
1.79171
1.79076
1.78989
1.7891
1.7884
1.78778
1.78725
1.78681
1.78646
1.78619
1.78601
1.78593
1.78592
1.78601
1.78619
1.78645
1.7868
1.78724
1.78777
1.78838
1.78908
1.78987
1.79074
1.79169
1.79273
1.79385
1.79505
1.79633
1.79769
1.79913
1.80064
1.80223
1.80389
1.80562
1.80743
1.8093
1.81123
1.81324
1.8153
1.81742
1.81961
1.82185
1.82414
1.82648
1.82888
1.83132
1.8338
1.83633
1.83889
1.84149
1.84413
1.84679
1.84949
1.85221
1.85495
1.85771
1.86049
1.86328
1.86609
1.8689
1.87172
1.87454
1.87736
1.88017
1.88298
1.88578
1.88857
1.89134
1.89409
1.89682
1.89953
1.90221
1.90486
1.90749
1.91007
1.91262
1.91513
1.91759
1.92001
1.92238
1.92471
1.92698
1.92919
1.93135
1.93345
1.93549
1.93747
1.93938
1.94122
1.943
1.9447
1.94634
1.9479
1.94938
1.95079
1.95212
1.95337
1.95453
1.95562
1.95663
1.95755
1.95838
1.95913
1.9598
1.96038
1.96087
1.96127
1.96158
1.96181
1.96195
1.96199
1.96195
1.96213
1.96217
1.96213
1.96199
1.96177
1.96145
1.96105
1.96056
1.95999
1.95932
1.95857
1.95773
1.95681
1.95581
1.95472
1.95355
1.95229
1.95096
1.94955
1.94807
1.94651
1.94487
1.94316
1.94139
1.93954
1.93762
1.93564
1.9336
1.9315
1.92934
1.92712
1.92484
1.92252
1.92014
1.91771
1.91525
1.91273
1.91018
1.90759
1.90497
1.90231
1.89962
1.89691
1.89417
1.89142
1.88864
1.88585
1.88304
1.88023
1.87741
1.87459
1.87176
1.86894
1.86612
1.86331
1.86051
1.85773
1.85496
1.85222
1.84949
1.84679
1.84412
1.84148
1.83888
1.83631
1.83378
1.83129
1.82884
1.82645
1.8241
1.8218
1.81956
1.81737
1.81524
1.81317
1.81117
1.80923
1.80735
1.80555
1.80381
1.80214
1.80055
1.79904
1.7976
1.79623
1.79495
1.79374
1.79262
1.79158
1.79062
1.78975
1.78896
1.78826
1.78765
1.78712
1.78667
1.78632
1.78605
1.78588
1.78579
1.78579
1.78587
1.78605
1.78631
1.78667
1.78711
1.78763
1.78825
1.78895
1.78973
1.79061
1.79156
1.7926
1.79372
1.79492
1.79621
1.79757
1.79901
1.80052
1.80211
1.80377
1.80551
1.80731
1.80919
1.81113
1.81313
1.8152
1.81733
1.81951
1.82175
1.82405
1.8264
1.82879
1.83124
1.83372
1.83625
1.83882
1.84143
1.84407
1.84674
1.84943
1.85216
1.8549
1.85767
1.86045
1.86325
1.86606
1.86888
1.8717
1.87452
1.87735
1.88017
1.88298
1.88578
1.88857
1.89135
1.89411
1.89684
1.89956
1.90224
1.9049
1.90752
1.91011
1.91267
1.91518
1.91765
1.92007
1.92245
1.92477
1.92705
1.92927
1.93143
1.93353
1.93558
1.93755
1.93947
1.94132
1.94309
1.9448
1.94644
1.948
1.94948
1.95089
1.95223
1.95348
1.95465
1.95574
1.95674
1.95767
1.9585
1.95925
1.95992
1.9605
1.96099
1.96139
1.96171
1.96193
1.96207
1.96211
1.96208
1.96234
1.96238
1.96234
1.9622
1.96198
1.96166
1.96126
1.96077
1.96019
1.95952
1.95877
1.95793
1.957
1.956
1.9549
1.95373
1.95248
1.95114
1.94973
1.94824
1.94668
1.94504
1.94332
1.94154
1.93969
1.93777
1.93579
1.93374
1.93163
1.92946
1.92724
1.92496
1.92263
1.92024
1.91781
1.91534
1.91282
1.91026
1.90766
1.90503
1.90237
1.89967
1.89695
1.89421
1.89145
1.88866
1.88586
1.88305
1.88023
1.8774
1.87457
1.87174
1.86891
1.86609
1.86327
1.86047
1.85767
1.8549
1.85215
1.84941
1.84671
1.84403
1.84138
1.83877
1.83619
1.83366
1.83116
1.82871
1.82631
1.82395
1.82165
1.8194
1.81721
1.81508
1.813
1.81099
1.80904
1.80717
1.80535
1.80361
1.80194
1.80035
1.79883
1.79738
1.79602
1.79473
1.79352
1.7924
1.79136
1.7904
1.78952
1.78873
1.78803
1.78741
1.78688
1.78644
1.78608
1.78581
1.78564
1.78555
1.78555
1.78563
1.78581
1.78607
1.78643
1.78687
1.7874
1.78801
1.78872
1.7895
1.79038
1.79134
1.79238
1.7935
1.79471
1.79599
1.79736
1.7988
1.80032
1.80191
1.80358
1.80532
1.80713
1.80901
1.81095
1.81296
1.81503
1.81716
1.81936
1.8216
1.8239
1.82626
1.82866
1.83111
1.83361
1.83614
1.83872
1.84133
1.84397
1.84665
1.84936
1.85209
1.85484
1.85761
1.8604
1.86321
1.86603
1.86885
1.87168
1.87451
1.87734
1.88017
1.88299
1.8858
1.8886
1.89138
1.89414
1.89689
1.89961
1.9023
1.90496
1.9076
1.91019
1.91275
1.91527
1.91774
1.92017
1.92256
1.92489
1.92717
1.92939
1.93156
1.93367
1.93572
1.9377
1.93962
1.94147
1.94325
1.94497
1.94661
1.94817
1.94966
1.95107
1.95241
1.95366
1.95484
1.95593
1.95694
1.95786
1.9587
1.95945
1.96012
1.9607
1.96119
1.9616
1.96191
1.96214
1.96228
1.96232
1.96228
1.96263
1.96267
1.96262
1.96249
1.96226
1.96195
1.96154
1.96105
1.96047
1.9598
1.95904
1.9582
1.95728
1.95626
1.95517
1.95399
1.95273
1.95139
1.94998
1.94848
1.94691
1.94527
1.94355
1.94176
1.9399
1.93798
1.93599
1.93393
1.93182
1.92964
1.92741
1.92512
1.92278
1.92039
1.91795
1.91547
1.91294
1.91037
1.90777
1.90513
1.90245
1.89975
1.89702
1.89427
1.89149
1.8887
1.88589
1.88307
1.88024
1.8774
1.87456
1.87172
1.86888
1.86604
1.86322
1.8604
1.8576
1.85482
1.85205
1.84931
1.84659
1.84391
1.84125
1.83863
1.83604
1.8335
1.83099
1.82853
1.82612
1.82375
1.82144
1.81919
1.81699
1.81484
1.81276
1.81074
1.80879
1.8069
1.80509
1.80334
1.80166
1.80006
1.79854
1.79709
1.79572
1.79442
1.79321
1.79208
1.79104
1.79007
1.78919
1.7884
1.78769
1.78707
1.78654
1.7861
1.78574
1.78547
1.78529
1.7852
1.7852
1.78529
1.78547
1.78574
1.78609
1.78653
1.78706
1.78768
1.78839
1.78918
1.79005
1.79102
1.79206
1.79319
1.7944
1.79569
1.79706
1.79851
1.80003
1.80163
1.8033
1.80505
1.80687
1.80875
1.8107
1.81272
1.8148
1.81694
1.81914
1.8214
1.82371
1.82607
1.82848
1.83094
1.83344
1.83599
1.83857
1.84119
1.84385
1.84654
1.84925
1.85199
1.85476
1.85754
1.86034
1.86316
1.86598
1.86882
1.87166
1.8745
1.87734
1.88017
1.883
1.88583
1.88863
1.89143
1.8942
1.89696
1.89968
1.90239
1.90506
1.9077
1.9103
1.91287
1.9154
1.91788
1.92032
1.92271
1.92505
1.92734
1.92957
1.93175
1.93386
1.93592
1.93791
1.93983
1.94169
1.94348
1.9452
1.94684
1.94841
1.94991
1.95133
1.95266
1.95392
1.9551
1.9562
1.95721
1.95813
1.95898
1.95973
1.9604
1.96098
1.96148
1.96188
1.9622
1.96243
1.96256
1.96261
1.96257
1.963
1.96304
1.963
1.96286
1.96263
1.96231
1.96191
1.96141
1.96083
1.96016
1.9594
1.95855
1.95762
1.95661
1.95551
1.95433
1.95306
1.95172
1.95029
1.94879
1.94722
1.94557
1.94384
1.94204
1.94018
1.93825
1.93625
1.93418
1.93206
1.92987
1.92763
1.92533
1.92298
1.92058
1.91813
1.91564
1.9131
1.91052
1.9079
1.90525
1.90257
1.89985
1.89711
1.89435
1.89156
1.88875
1.88593
1.8831
1.88025
1.8774
1.87455
1.87169
1.86884
1.86599
1.86315
1.86032
1.85751
1.85471
1.85193
1.84918
1.84645
1.84375
1.84108
1.83845
1.83585
1.83329
1.83077
1.8283
1.82588
1.8235
1.82118
1.81891
1.8167
1.81455
1.81246
1.81043
1.80846
1.80657
1.80474
1.80299
1.8013
1.79969
1.79816
1.7967
1.79532
1.79403
1.79281
1.79167
1.79062
1.78965
1.78877
1.78797
1.78726
1.78664
1.78611
1.78566
1.7853
1.78503
1.78485
1.78476
1.78476
1.78485
1.78503
1.78529
1.78565
1.7861
1.78663
1.78725
1.78796
1.78875
1.78964
1.7906
1.79165
1.79278
1.794
1.7953
1.79667
1.79813
1.79966
1.80127
1.80295
1.80471
1.80653
1.80842
1.81039
1.81241
1.8145
1.81665
1.81886
1.82113
1.82345
1.82583
1.82825
1.83072
1.83324
1.83579
1.83839
1.84103
1.84369
1.84639
1.84912
1.85188
1.85465
1.85745
1.86026
1.86309
1.86593
1.86878
1.87163
1.87448
1.87734
1.88019
1.88303
1.88587
1.88869
1.89149
1.89428
1.89704
1.89979
1.9025
1.90519
1.90784
1.91045
1.91303
1.91557
1.91807
1.92051
1.92292
1.92527
1.92756
1.9298
1.93199
1.93411
1.93618
1.93818
1.94011
1.94198
1.94377
1.9455
1.94715
1.94872
1.95023
1.95165
1.95299
1.95426
1.95544
1.95654
1.95755
1.95849
1.95933
1.96009
1.96076
1.96135
1.96184
1.96225
1.96257
1.9628
1.96293
1.96298
1.96294
1.96346
1.96349
1.96345
1.96331
1.96308
1.96276
1.96235
1.96186
1.96127
1.9606
1.95983
1.95898
1.95805
1.95703
1.95592
1.95473
1.95346
1.95211
1.95068
1.94918
1.94759
1.94593
1.9442
1.94239
1.94052
1.93857
1.93656
1.93449
1.93236
1.93016
1.92791
1.9256
1.92323
1.92082
1.91836
1.91585
1.9133
1.91071
1.90808
1.90541
1.90271
1.89998
1.89722
1.89444
1.89164
1.88882
1.88598
1.88313
1.88027
1.87741
1.87454
1.87166
1.8688
1.86593
1.86308
1.86023
1.8574
1.85459
1.85179
1.84902
1.84628
1.84356
1.84088
1.83823
1.83561
1.83304
1.83051
1.82802
1.82558
1.82319
1.82086
1.81857
1.81635
1.81418
1.81208
1.81004
1.80807
1.80616
1.80432
1.80255
1.80086
1.79924
1.7977
1.79623
1.79485
1.79354
1.79231
1.79117
1.79011
1.78914
1.78825
1.78745
1.78674
1.78611
1.78557
1.78512
1.78476
1.78449
1.78431
1.78422
1.78422
1.78431
1.78448
1.78475
1.78511
1.78556
1.7861
1.78672
1.78743
1.78823
1.78912
1.79009
1.79115
1.79229
1.79351
1.79482
1.7962
1.79767
1.79921
1.80083
1.80252
1.80428
1.80612
1.80803
1.81
1.81204
1.81414
1.8163
1.81853
1.82081
1.82314
1.82553
1.82797
1.83046
1.83299
1.83556
1.83817
1.84082
1.8435
1.84622
1.84896
1.85173
1.85453
1.85734
1.86017
1.86301
1.86587
1.86873
1.8716
1.87447
1.87734
1.88021
1.88307
1.88592
1.88875
1.89157
1.89438
1.89716
1.89991
1.90264
1.90534
1.90801
1.91064
1.91323
1.91578
1.91829
1.92075
1.92317
1.92553
1.92784
1.93009
1.93229
1.93442
1.9365
1.9385
1.94045
1.94232
1.94413
1.94586
1.94752
1.94911
1.95061
1.95204
1.9534
1.95467
1.95585
1.95696
1.95798
1.95892
1.95977
1.96053
1.9612
1.96179
1.96229
1.9627
1.96302
1.96325
1.96338
1.96343
1.96339
1.96399
1.96403
1.96398
1.96384
1.96361
1.96329
1.96288
1.96238
1.96179
1.96111
1.96035
1.95949
1.95855
1.95752
1.95641
1.95522
1.95394
1.95258
1.95114
1.94963
1.94803
1.94636
1.94462
1.9428
1.94092
1.93896
1.93694
1.93486
1.93271
1.9305
1.92823
1.92591
1.92353
1.9211
1.91863
1.9161
1.91354
1.91093
1.90828
1.9056
1.90288
1.90013
1.89736
1.89456
1.89174
1.8889
1.88605
1.88318
1.8803
1.87741
1.87452
1.87163
1.86875
1.86586
1.86299
1.86012
1.85727
1.85444
1.85163
1.84884
1.84607
1.84334
1.84064
1.83797
1.83534
1.83274
1.83019
1.82769
1.82523
1.82283
1.82048
1.81818
1.81594
1.81376
1.81164
1.80958
1.80759
1.80567
1.80382
1.80204
1.80033
1.7987
1.79715
1.79567
1.79428
1.79296
1.79173
1.79058
1.78951
1.78853
1.78763
1.78683
1.78611
1.78547
1.78493
1.78448
1.78412
1.78384
1.78366
1.78357
1.78357
1.78366
1.78384
1.78411
1.78447
1.78492
1.78546
1.78609
1.78681
1.78762
1.78851
1.78949
1.79055
1.7917
1.79293
1.79425
1.79564
1.79712
1.79867
1.8003
1.802
1.80378
1.80563
1.80755
1.80954
1.81159
1.81371
1.81589
1.81813
1.82043
1.82278
1.82518
1.82764
1.83014
1.83269
1.83528
1.83791
1.84058
1.84328
1.84602
1.84878
1.85157
1.85438
1.85721
1.86006
1.86293
1.8658
1.86868
1.87157
1.87446
1.87735
1.88023
1.88311
1.88598
1.88883
1.89167
1.89449
1.89729
1.90007
1.90281
1.90553
1.90821
1.91086
1.91347
1.91603
1.91856
1.92103
1.92346
1.92584
1.92816
1.93043
1.93264
1.93479
1.93687
1.93889
1.94085
1.94273
1.94455
1.94629
1.94796
1.94956
1.95107
1.95251
1.95387
1.95515
1.95634
1.95746
1.95848
1.95942
1.96028
1.96105
1.96172
1.96232
1.96282
1.96323
1.96355
1.96378
1.96392
1.96396
1.96392
1.96461
1.96464
1.9646
1.96446
1.96423
1.96391
1.96349
1.96299
1.96239
1.96171
1.96094
1.96008
1.95913
1.9581
1.95698
1.95578
1.95449
1.95312
1.95168
1.95015
1.94854
1.94686
1.94511
1.94328
1.94138
1.93941
1.93738
1.93528
1.93312
1.93089
1.92861
1.92627
1.92388
1.92143
1.91894
1.9164
1.91381
1.91118
1.90852
1.90581
1.90308
1.90031
1.89752
1.8947
1.89186
1.889
1.88612
1.88323
1.88033
1.87742
1.87451
1.8716
1.86869
1.86578
1.86289
1.86
1.85713
1.85427
1.85144
1.84863
1.84584
1.84309
1.84036
1.83767
1.83502
1.8324
1.82983
1.82731
1.82483
1.82241
1.82004
1.81772
1.81546
1.81326
1.81112
1.80905
1.80705
1.80511
1.80324
1.80145
1.79973
1.79808
1.79651
1.79502
1.79362
1.79229
1.79104
1.78988
1.78881
1.78782
1.78692
1.7861
1.78538
1.78474
1.78419
1.78374
1.78337
1.78309
1.78291
1.78282
1.78282
1.78291
1.78309
1.78336
1.78373
1.78418
1.78473
1.78536
1.78609
1.7869
1.7878
1.78879
1.78986
1.79102
1.79226
1.79359
1.795
1.79648
1.79805
1.79969
1.80141
1.8032
1.80507
1.807
1.80901
1.81108
1.81322
1.81541
1.81767
1.81999
1.82236
1.82478
1.82726
1.82978
1.83235
1.83496
1.83761
1.8403
1.84303
1.84578
1.84857
1.85138
1.85421
1.85707
1.85994
1.86283
1.86572
1.86863
1.87154
1.87445
1.87736
1.88027
1.88316
1.88605
1.88893
1.89179
1.89463
1.89745
1.90024
1.90301
1.90575
1.90845
1.91111
1.91374
1.91633
1.91887
1.92136
1.92381
1.9262
1.92854
1.93082
1.93305
1.93521
1.93731
1.93934
1.94131
1.94321
1.94504
1.94679
1.94847
1.95008
1.95161
1.95305
1.95442
1.95571
1.95691
1.95803
1.95906
1.96001
1.96087
1.96164
1.96233
1.96292
1.96343
1.96384
1.96416
1.96439
1.96453
1.96458
1.96454
1.96531
1.96535
1.9653
1.96516
1.96493
1.9646
1.96418
1.96368
1.96308
1.96239
1.96161
1.96074
1.95979
1.95875
1.95762
1.95641
1.95512
1.95374
1.95228
1.95074
1.94913
1.94743
1.94566
1.94382
1.94191
1.93993
1.93788
1.93576
1.93358
1.93134
1.92904
1.92668
1.92427
1.92181
1.91929
1.91673
1.91412
1.91148
1.90879
1.90606
1.90331
1.90052
1.8977
1.89486
1.89199
1.88911
1.88621
1.88329
1.88037
1.87744
1.8745
1.87156
1.86863
1.8657
1.86278
1.85986
1.85697
1.85409
1.85123
1.84839
1.84558
1.8428
1.84005
1.83733
1.83466
1.83202
1.82943
1.82688
1.82438
1.82193
1.81954
1.8172
1.81492
1.8127
1.81054
1.80845
1.80642
1.80447
1.80258
1.80077
1.79903
1.79737
1.79579
1.79429
1.79287
1.79153
1.79027
1.7891
1.78801
1.78701
1.7861
1.78528
1.78454
1.7839
1.78335
1.78289
1.78252
1.78224
1.78205
1.78196
1.78196
1.78205
1.78224
1.78251
1.78288
1.78334
1.78389
1.78453
1.78526
1.78608
1.78699
1.78799
1.78907
1.79024
1.7915
1.79284
1.79426
1.79576
1.79734
1.799
1.80073
1.80255
1.80443
1.80638
1.80841
1.8105
1.81265
1.81487
1.81715
1.81949
1.82188
1.82433
1.82683
1.82937
1.83197
1.8346
1.83728
1.83999
1.84274
1.84552
1.84833
1.85117
1.85403
1.85691
1.8598
1.86271
1.86563
1.86856
1.8715
1.87444
1.87737
1.8803
1.88323
1.88614
1.88904
1.89193
1.89479
1.89763
1.90045
1.90324
1.906
1.90872
1.91141
1.91405
1.91666
1.91922
1.92174
1.9242
1.92661
1.92897
1.93127
1.93351
1.93569
1.93781
1.93986
1.94184
1.94375
1.94559
1.94736
1.94906
1.95067
1.95221
1.95367
1.95505
1.95634
1.95755
1.95868
1.95972
1.96068
1.96154
1.96232
1.96301
1.96361
1.96412
1.96453
1.96486
1.96509
1.96523
1.96528
1.96524
1.96609
1.96613
1.96608
1.96594
1.96571
1.96538
1.96496
1.96445
1.96384
1.96315
1.96236
1.96149
1.96053
1.95948
1.95834
1.95712
1.95582
1.95443
1.95296
1.95141
1.94978
1.94807
1.94629
1.94443
1.9425
1.9405
1.93843
1.9363
1.9341
1.93184
1.92952
1.92714
1.92471
1.92222
1.91969
1.9171
1.91448
1.9118
1.90909
1.90634
1.90356
1.90075
1.8979
1.89504
1.89214
1.88923
1.88631
1.88337
1.88041
1.87745
1.87449
1.87152
1.86856
1.8656
1.86265
1.85971
1.85679
1.85388
1.85099
1.84812
1.84529
1.84248
1.8397
1.83696
1.83425
1.83159
1.82897
1.82639
1.82387
1.8214
1.81898
1.81661
1.81431
1.81207
1.80989
1.80777
1.80573
1.80375
1.80184
1.80001
1.79826
1.79658
1.79498
1.79346
1.79202
1.79067
1.7894
1.78821
1.78711
1.7861
1.78518
1.78435
1.78361
1.78296
1.7824
1.78194
1.78156
1.78128
1.78109
1.781
1.781
1.78109
1.78128
1.78156
1.78193
1.78239
1.78295
1.7836
1.78434
1.78517
1.78608
1.78709
1.78819
1.78937
1.79064
1.79199
1.79343
1.79495
1.79655
1.79822
1.79998
1.80181
1.80371
1.80568
1.80773
1.80984
1.81202
1.81426
1.81657
1.81893
1.82135
1.82382
1.82634
1.82892
1.83153
1.8342
1.8369
1.83964
1.84242
1.84523
1.84806
1.85093
1.85382
1.85672
1.85965
1.86259
1.86554
1.8685
1.87146
1.87442
1.87739
1.88035
1.8833
1.88624
1.88917
1.89208
1.89497
1.89784
1.90068
1.90349
1.90628
1.90902
1.91174
1.91441
1.91704
1.91962
1.92216
1.92464
1.92707
1.92945
1.93177
1.93403
1.93623
1.93836
1.94043
1.94243
1.94436
1.94622
1.948
1.94971
1.95134
1.95289
1.95436
1.95575
1.95705
1.95828
1.95941
1.96046
1.96142
1.9623
1.96308
1.96377
1.96438
1.96489
1.96531
1.96564
1.96587
1.96602
1.96606
1.96602
1.96696
1.967
1.96695
1.96681
1.96657
1.96624
1.96582
1.9653
1.96469
1.96399
1.9632
1.96232
1.96135
1.96029
1.95914
1.95791
1.95659
1.95519
1.95371
1.95214
1.9505
1.94878
1.94698
1.9451
1.94316
1.94114
1.93905
1.9369
1.93468
1.9324
1.93006
1.92766
1.9252
1.92269
1.92013
1.91752
1.91487
1.91217
1.90943
1.90666
1.90385
1.901
1.89813
1.89524
1.89232
1.88937
1.88642
1.88345
1.88046
1.87747
1.87448
1.87148
1.86849
1.8655
1.86252
1.85954
1.85659
1.85365
1.85073
1.84783
1.84496
1.84212
1.83931
1.83654
1.83381
1.83111
1.82846
1.82586
1.82331
1.8208
1.81836
1.81597
1.81363
1.81137
1.80916
1.80702
1.80495
1.80295
1.80102
1.79917
1.79739
1.7957
1.79408
1.79254
1.79108
1.78971
1.78843
1.78723
1.78612
1.7851
1.78416
1.78332
1.78257
1.78191
1.78135
1.78088
1.7805
1.78021
1.78002
1.77993
1.77993
1.78002
1.78021
1.78049
1.78087
1.78134
1.7819
1.78256
1.78331
1.78415
1.78508
1.7861
1.78721
1.7884
1.78969
1.79106
1.79251
1.79404
1.79566
1.79736
1.79913
1.80099
1.80291
1.80491
1.80698
1.80912
1.81132
1.81359
1.81592
1.81831
1.82075
1.82325
1.82581
1.82841
1.83106
1.83375
1.83648
1.83925
1.84206
1.8449
1.84777
1.85067
1.85359
1.85652
1.85948
1.86245
1.86543
1.86842
1.87142
1.87441
1.87741
1.8804
1.88338
1.88635
1.88931
1.89225
1.89517
1.89806
1.90094
1.90378
1.90659
1.90936
1.9121
1.9148
1.91745
1.92006
1.92262
1.92513
1.92759
1.92999
1.93233
1.93461
1.93683
1.93898
1.94107
1.94309
1.94503
1.94691
1.94871
1.95043
1.95207
1.95364
1.95512
1.95652
1.95784
1.95907
1.96022
1.96128
1.96225
1.96313
1.96392
1.96462
1.96523
1.96575
1.96617
1.9665
1.96674
1.96688
1.96693
1.96689
1.96791
1.96795
1.9679
1.96776
1.96752
1.96718
1.96676
1.96624
1.96562
1.96491
1.96412
1.96323
1.96225
1.96118
1.96002
1.95878
1.95745
1.95603
1.95453
1.95295
1.95129
1.94955
1.94774
1.94584
1.94388
1.94184
1.93973
1.93756
1.93532
1.93301
1.93064
1.92822
1.92574
1.9232
1.92062
1.91798
1.9153
1.91257
1.90981
1.907
1.90416
1.90129
1.89838
1.89546
1.8925
1.88953
1.88654
1.88354
1.88052
1.8775
1.87447
1.87144
1.86841
1.86538
1.86237
1.85936
1.85637
1.85339
1.85044
1.84751
1.84461
1.84173
1.83889
1.83608
1.83331
1.83059
1.82791
1.82527
1.82268
1.82015
1.81767
1.81525
1.81289
1.81059
1.80836
1.8062
1.8041
1.80207
1.80012
1.79824
1.79645
1.79472
1.79308
1.79153
1.79005
1.78866
1.78736
1.78615
1.78502
1.78399
1.78304
1.78219
1.78143
1.78076
1.78019
1.77971
1.77933
1.77904
1.77885
1.77875
1.77875
1.77884
1.77903
1.77932
1.7797
1.78018
1.78075
1.78141
1.78217
1.78302
1.78397
1.785
1.78612
1.78734
1.78864
1.79002
1.7915
1.79305
1.79469
1.79641
1.79821
1.80008
1.80203
1.80406
1.80615
1.80832
1.81055
1.81284
1.8152
1.81762
1.8201
1.82263
1.82522
1.82785
1.83053
1.83326
1.83602
1.83883
1.84167
1.84455
1.84745
1.85038
1.85333
1.85631
1.8593
1.8623
1.86532
1.86834
1.87137
1.8744
1.87743
1.88045
1.88347
1.88647
1.88946
1.89244
1.89539
1.89832
1.90122
1.90409
1.90693
1.90974
1.9125
1.91523
1.91791
1.92055
1.92313
1.92567
1.92815
1.93058
1.93294
1.93525
1.93749
1.93966
1.94177
1.94381
1.94577
1.94767
1.94948
1.95122
1.95288
1.95446
1.95596
1.95738
1.95871
1.95995
1.96111
1.96218
1.96316
1.96405
1.96485
1.96555
1.96617
1.96669
1.96712
1.96745
1.96769
1.96784
1.96788
1.96784
1.96895
1.96899
1.96894
1.9688
1.96855
1.96822
1.96778
1.96726
1.96664
1.96592
1.96511
1.96422
1.96323
1.96215
1.96098
1.95972
1.95838
1.95695
1.95543
1.95383
1.95216
1.9504
1.94856
1.94665
1.94466
1.9426
1.94047
1.93827
1.93601
1.93368
1.93129
1.92884
1.92633
1.92376
1.92115
1.91848
1.91577
1.91301
1.91021
1.90738
1.9045
1.9016
1.89866
1.8957
1.89271
1.8897
1.88668
1.88364
1.88058
1.87752
1.87446
1.87139
1.86832
1.86526
1.8622
1.85916
1.85613
1.85312
1.85013
1.84716
1.84422
1.84131
1.83843
1.83558
1.83278
1.83002
1.8273
1.82463
1.82201
1.81944
1.81693
1.81447
1.81208
1.80975
1.80749
1.80529
1.80317
1.80111
1.79913
1.79723
1.79541
1.79366
1.792
1.79042
1.78892
1.78752
1.7862
1.78496
1.78382
1.78277
1.78181
1.78095
1.78018
1.7795
1.77892
1.77843
1.77805
1.77775
1.77756
1.77746
1.77746
1.77755
1.77775
1.77804
1.77843
1.77891
1.77949
1.78016
1.78093
1.78179
1.78275
1.7838
1.78494
1.78617
1.78749
1.78889
1.79039
1.79197
1.79363
1.79537
1.79719
1.79909
1.80107
1.80312
1.80525
1.80744
1.80971
1.81203
1.81443
1.81688
1.81939
1.82195
1.82457
1.82724
1.82996
1.83272
1.83552
1.83837
1.84125
1.84416
1.8471
1.85007
1.85306
1.85607
1.8591
1.86214
1.86519
1.86826
1.87132
1.87439
1.87746
1.88052
1.88357
1.88661
1.88963
1.89264
1.89563
1.89859
1.90153
1.90443
1.90731
1.91014
1.91294
1.9157
1.91841
1.92108
1.92369
1.92626
1.92877
1.93122
1.93361
1.93594
1.9382
1.9404
1.94253
1.94459
1.94658
1.94849
1.95033
1.95209
1.95377
1.95536
1.95688
1.95831
1.95965
1.96091
1.96208
1.96316
1.96415
1.96505
1.96585
1.96657
1.96719
1.96772
1.96815
1.96849
1.96873
1.96888
1.96892
1.96888
1.97008
1.97012
1.97007
1.96992
1.96967
1.96933
1.9689
1.96836
1.96773
1.96701
1.9662
1.96529
1.96429
1.9632
1.96201
1.96074
1.95938
1.95794
1.95641
1.95479
1.95309
1.95132
1.94946
1.94753
1.94552
1.94343
1.94128
1.93905
1.93676
1.9344
1.93198
1.9295
1.92696
1.92437
1.92172
1.91903
1.91628
1.91349
1.91066
1.90778
1.90488
1.90193
1.89896
1.89596
1.89293
1.88989
1.88682
1.88374
1.88065
1.87755
1.87444
1.87134
1.86823
1.86513
1.86203
1.85895
1.85587
1.85282
1.84979
1.84678
1.8438
1.84084
1.83792
1.83504
1.8322
1.8294
1.82664
1.82393
1.82127
1.81867
1.81612
1.81363
1.8112
1.80884
1.80654
1.80431
1.80216
1.80007
1.79806
1.79613
1.79428
1.79251
1.79082
1.78922
1.7877
1.78627
1.78493
1.78368
1.78252
1.78145
1.78048
1.7796
1.77882
1.77813
1.77754
1.77705
1.77665
1.77635
1.77616
1.77606
1.77606
1.77615
1.77635
1.77664
1.77704
1.77753
1.77812
1.7788
1.77958
1.78046
1.78143
1.78249
1.78365
1.7849
1.78624
1.78767
1.78918
1.79079
1.79247
1.79424
1.79609
1.79802
1.80003
1.80211
1.80427
1.8065
1.80879
1.81115
1.81358
1.81607
1.81861
1.82122
1.82387
1.82658
1.82934
1.83214
1.83498
1.83786
1.84078
1.84373
1.84672
1.84973
1.85276
1.85581
1.85888
1.86197
1.86506
1.86816
1.87127
1.87438
1.87748
1.88058
1.88368
1.88675
1.88982
1.89287
1.89589
1.89889
1.90186
1.90481
1.90771
1.91059
1.91342
1.91621
1.91896
1.92165
1.9243
1.92689
1.92943
1.93191
1.93433
1.93669
1.93898
1.94121
1.94336
1.94545
1.94746
1.94939
1.95125
1.95302
1.95472
1.95634
1.95787
1.95931
1.96067
1.96194
1.96313
1.96422
1.96522
1.96613
1.96694
1.96767
1.96829
1.96883
1.96926
1.96961
1.96985
1.97
1.97005
1.97001
1.97129
1.97133
1.97128
1.97113
1.97088
1.97054
1.97009
1.96955
1.96892
1.96819
1.96736
1.96644
1.96543
1.96433
1.96313
1.96184
1.96047
1.95901
1.95746
1.95582
1.95411
1.95231
1.95043
1.94847
1.94643
1.94433
1.94214
1.93989
1.93757
1.93519
1.93274
1.93022
1.92765
1.92503
1.92235
1.91961
1.91683
1.91401
1.91114
1.90823
1.90528
1.9023
1.89928
1.89624
1.89318
1.89009
1.88698
1.88386
1.88073
1.87758
1.87443
1.87128
1.86813
1.86498
1.86184
1.85871
1.8556
1.8525
1.84942
1.84637
1.84334
1.84035
1.83738
1.83446
1.83157
1.82872
1.82593
1.82318
1.82048
1.81783
1.81524
1.81272
1.81025
1.80785
1.80552
1.80325
1.80106
1.79894
1.7969
1.79494
1.79306
1.79126
1.78954
1.78791
1.78637
1.78492
1.78356
1.78228
1.78111
1.78002
1.77903
1.77814
1.77734
1.77665
1.77605
1.77555
1.77514
1.77484
1.77464
1.77454
1.77454
1.77464
1.77484
1.77514
1.77554
1.77603
1.77663
1.77733
1.77812
1.77901
1.78
1.78108
1.78226
1.78353
1.78489
1.78634
1.78788
1.78951
1.79122
1.79302
1.7949
1.79686
1.7989
1.80102
1.80321
1.80547
1.8078
1.8102
1.81267
1.81519
1.81778
1.82042
1.82312
1.82587
1.82867
1.83151
1.8344
1.83732
1.84028
1.84328
1.84631
1.84936
1.85244
1.85553
1.85865
1.86178
1.86492
1.86806
1.87121
1.87437
1.87751
1.88066
1.88379
1.88691
1.89002
1.89311
1.89617
1.89921
1.90223
1.90521
1.90816
1.91107
1.91394
1.91676
1.91954
1.92228
1.92496
1.92758
1.93015
1.93267
1.93512
1.9375
1.93982
1.94207
1.94426
1.94636
1.9484
1.95036
1.95224
1.95404
1.95575
1.95739
1.95894
1.9604
1.96177
1.96306
1.96426
1.96536
1.96638
1.96729
1.96812
1.96885
1.96949
1.97003
1.97047
1.97081
1.97106
1.97121
1.97126
1.97122
1.97259
1.97263
1.97258
1.97243
1.97218
1.97183
1.97138
1.97083
1.97019
1.96945
1.96862
1.96768
1.96666
1.96554
1.96433
1.96303
1.96163
1.96015
1.95858
1.95693
1.95519
1.95337
1.95146
1.94948
1.94742
1.94529
1.94308
1.94079
1.93844
1.93603
1.93354
1.931
1.92839
1.92573
1.92301
1.92024
1.91743
1.91456
1.91165
1.9087
1.90571
1.90269
1.89963
1.89655
1.89344
1.89031
1.88715
1.88399
1.88081
1.87762
1.87442
1.87122
1.86802
1.86483
1.86164
1.85846
1.8553
1.85216
1.84903
1.84593
1.84285
1.83981
1.8368
1.83383
1.83089
1.828
1.82516
1.82237
1.81962
1.81693
1.8143
1.81173
1.80923
1.80679
1.80441
1.80211
1.79988
1.79773
1.79566
1.79366
1.79175
1.78992
1.78817
1.78651
1.78494
1.78346
1.78208
1.78079
1.77959
1.77848
1.77748
1.77657
1.77576
1.77505
1.77444
1.77393
1.77352
1.77321
1.77301
1.7729
1.7729
1.773
1.77321
1.77351
1.77392
1.77443
1.77503
1.77574
1.77655
1.77746
1.77846
1.77956
1.78076
1.78205
1.78344
1.78491
1.78648
1.78814
1.78988
1.79171
1.79362
1.79561
1.79769
1.79984
1.80207
1.80437
1.80674
1.80918
1.81168
1.81425
1.81688
1.81957
1.82231
1.8251
1.82795
1.83084
1.83377
1.83674
1.83975
1.84279
1.84587
1.84897
1.85209
1.85524
1.8584
1.86157
1.86476
1.86796
1.87115
1.87435
1.87755
1.88074
1.88392
1.88709
1.89024
1.89337
1.89648
1.89956
1.90262
1.90564
1.90863
1.91158
1.91449
1.91735
1.92017
1.92294
1.92566
1.92832
1.93093
1.93347
1.93596
1.93837
1.94072
1.94301
1.94522
1.94735
1.94941
1.95139
1.9533
1.95512
1.95686
1.95851
1.96008
1.96157
1.96296
1.96426
1.96547
1.96659
1.96762
1.96855
1.96938
1.97012
1.97077
1.97131
1.97176
1.97211
1.97236
1.97251
1.97256
1.97252
1.97398
1.97402
1.97397
1.97382
1.97356
1.97321
1.97275
1.9722
1.97155
1.9708
1.96995
1.96901
1.96797
1.96684
1.96561
1.96429
1.96288
1.96138
1.95979
1.95811
1.95635
1.9545
1.95257
1.95057
1.94848
1.94631
1.94407
1.94176
1.93938
1.93692
1.93441
1.93183
1.92918
1.92648
1.92373
1.92092
1.91806
1.91515
1.9122
1.90921
1.90618
1.90311
1.90001
1.89688
1.89372
1.89054
1.88734
1.88412
1.88089
1.87765
1.87441
1.87116
1.86791
1.86466
1.86143
1.8582
1.85498
1.85179
1.84861
1.84546
1.84233
1.83924
1.83618
1.83315
1.83017
1.82723
1.82434
1.8215
1.81871
1.81597
1.8133
1.81068
1.80813
1.80565
1.80323
1.80089
1.79862
1.79643
1.79432
1.79229
1.79034
1.78847
1.7867
1.78501