/*--------------------------------*- C++ -*----------------------------------*\
| =========                 |                                                 |
| \\      /  F ield         | OpenFOAM: The Open Source CFD Toolbox           |
|  \\    /   O peration     | Version:  2412                                  |
|   \\  /    A nd           | Website:  www.openfoam.com                      |
|    \\/     M anipulation  |                                                 |
\*---------------------------------------------------------------------------*/
FoamFile
{
    version     2.0;
    format      ascii;
    arch        "LSB;label=32;scalar=64";
    class       surfaceScalarField;
    location    "1.19";
    object      phi;
}
// * * * * * * * * * * * * * * * * * * * * * * * * * * * * * * * * * * * * * //

dimensions      [0 3 -1 0 0 0 0];

oriented        oriented;

internalField   nonuniform List<scalar> 
79600
(
1.94179e-11
-1.94049e-11
5.22267e-11
-3.28092e-11
8.91035e-11
-3.68762e-11
1.27417e-10
-3.82974e-11
1.66287e-10
-3.88602e-11
2.05285e-10
-3.90047e-11
2.44191e-10
-3.89151e-11
2.82907e-10
-3.87179e-11
3.21384e-10
-3.84718e-11
3.59589e-10
-3.82013e-11
3.975e-10
-3.79102e-11
4.35094e-10
-3.7595e-11
4.72347e-10
-3.72546e-11
5.09236e-10
-3.68887e-11
5.45734e-10
-3.64973e-11
5.81814e-10
-3.60797e-11
6.17449e-10
-3.5635e-11
6.52612e-10
-3.51624e-11
6.87273e-10
-3.46614e-11
7.21405e-10
-3.41316e-11
7.54979e-10
-3.3573e-11
7.87964e-10
-3.29854e-11
8.20333e-10
-3.23686e-11
8.52056e-10
-3.17227e-11
8.83103e-10
-3.10475e-11
9.13445e-10
-3.03431e-11
9.43054e-10
-2.96094e-11
9.719e-10
-2.88466e-11
9.99954e-10
-2.80548e-11
1.02719e-09
-2.72339e-11
1.05357e-09
-2.63841e-11
1.07908e-09
-2.55056e-11
1.10367e-09
-2.45985e-11
1.12734e-09
-2.3663e-11
1.15004e-09
-2.26995e-11
1.17175e-09
-2.17081e-11
1.19244e-09
-2.06892e-11
1.21208e-09
-1.96431e-11
1.23065e-09
-1.85701e-11
1.24812e-09
-1.74708e-11
1.26447e-09
-1.63457e-11
1.27966e-09
-1.51952e-11
1.29368e-09
-1.40201e-11
1.3065e-09
-1.28209e-11
1.3181e-09
-1.15985e-11
1.32845e-09
-1.03538e-11
1.33754e-09
-9.08763e-12
1.34534e-09
-7.80104e-12
1.35184e-09
-6.49496e-12
1.35701e-09
-5.17033e-12
1.36084e-09
-3.82793e-12
1.3633e-09
-2.46821e-12
1.3644e-09
-1.09099e-12
1.36409e-09
3.06065e-13
1.36237e-09
1.72089e-12
1.35924e-09
3.13504e-12
1.35468e-09
4.55493e-12
1.3487e-09
5.97937e-12
1.34129e-09
7.40823e-12
1.33245e-09
8.84052e-12
1.32218e-09
1.02749e-11
1.31047e-09
1.17096e-11
1.29732e-09
1.31428e-11
1.28275e-09
1.45726e-11
1.26675e-09
1.59969e-11
1.24934e-09
1.74137e-11
1.23052e-09
1.88212e-11
1.2103e-09
2.02172e-11
1.1887e-09
2.15997e-11
1.16574e-09
2.29665e-11
1.14142e-09
2.43155e-11
1.11578e-09
2.56446e-11
1.08882e-09
2.69518e-11
1.06059e-09
2.82351e-11
1.0311e-09
2.94925e-11
1.00037e-09
3.07218e-11
9.68453e-10
3.19209e-11
9.35365e-10
3.30878e-11
9.01145e-10
3.42204e-11
8.65828e-10
3.53167e-11
8.29452e-10
3.63747e-11
7.92059e-10
3.73925e-11
7.53689e-10
3.83686e-11
7.14388e-10
3.9301e-11
6.74199e-10
4.01881e-11
6.33171e-10
4.10282e-11
5.91352e-10
4.18195e-11
5.48792e-10
4.25605e-11
5.05541e-10
4.32498e-11
4.61654e-10
4.38863e-11
4.17184e-10
4.44689e-11
3.72187e-10
4.49964e-11
3.26718e-10
4.54679e-11
2.80836e-10
4.58824e-11
2.34597e-10
4.62392e-11
1.8806e-10
4.65375e-11
1.41284e-10
4.67767e-11
9.43288e-11
4.69562e-11
4.72536e-11
4.70754e-11
1.20086e-13
4.71334e-11
-4.70137e-11
4.71335e-11
-9.40894e-11
4.70755e-11
-1.41046e-10
4.69563e-11
-1.87823e-10
4.67768e-11
-2.34361e-10
4.65377e-11
-2.806e-10
4.62397e-11
-3.26483e-10
4.58833e-11
-3.71952e-10
4.54691e-11
-4.1695e-10
4.49979e-11
-4.61421e-10
4.44706e-11
-5.0531e-10
4.38883e-11
-5.48562e-10
4.32521e-11
-5.91126e-10
4.25632e-11
-6.32948e-10
4.18225e-11
-6.7398e-10
4.10314e-11
-7.14172e-10
4.01917e-11
-7.53478e-10
3.93051e-11
-7.91851e-10
3.8373e-11
-8.29249e-10
3.73969e-11
-8.65629e-10
3.63788e-11
-9.00951e-10
3.53208e-11
-9.35177e-10
3.42249e-11
-9.6827e-10
3.30927e-11
-1.0002e-09
3.19261e-11
-1.03092e-09
3.07274e-11
-1.06042e-09
2.94987e-11
-1.08866e-09
2.82417e-11
-1.11562e-09
2.69585e-11
-1.14128e-09
2.56517e-11
-1.1656e-09
2.43226e-11
-1.18857e-09
2.29737e-11
-1.21018e-09
2.16077e-11
-1.2304e-09
2.02261e-11
-1.24924e-09
1.88306e-11
-1.26666e-09
1.74236e-11
-1.28267e-09
1.60077e-11
-1.29725e-09
1.45844e-11
-1.31041e-09
1.31549e-11
-1.32213e-09
1.1722e-11
-1.33242e-09
1.0288e-11
-1.34127e-09
8.85372e-12
-1.34869e-09
7.42068e-12
-1.35468e-09
5.99085e-12
-1.35925e-09
4.56531e-12
-1.36239e-09
3.14458e-12
-1.36412e-09
1.7295e-12
-1.36444e-09
3.14133e-13
-1.36335e-09
-1.08312e-12
-1.36089e-09
-2.45941e-12
-1.35707e-09
-3.81838e-12
-1.35191e-09
-5.15945e-12
-1.34543e-09
-6.48222e-12
-1.33764e-09
-7.78624e-12
-1.32857e-09
-9.07081e-12
-1.31823e-09
-1.03357e-11
-1.30665e-09
-1.15794e-11
-1.29385e-09
-1.28009e-11
-1.27985e-09
-1.4e-11
-1.26467e-09
-1.51758e-11
-1.24835e-09
-1.63271e-11
-1.23089e-09
-1.74528e-11
-1.21234e-09
-1.85525e-11
-1.19271e-09
-1.96257e-11
-1.17204e-09
-2.06713e-11
-1.15035e-09
-2.1689e-11
-1.12767e-09
-2.26792e-11
-1.10403e-09
-2.36421e-11
-1.07945e-09
-2.45766e-11
-1.05397e-09
-2.5483e-11
-1.02761e-09
-2.63611e-11
-1.0004e-09
-2.72103e-11
-9.72369e-10
-2.80309e-11
-9.43547e-10
-2.8822e-11
-9.13964e-10
-2.95829e-11
-8.83652e-10
-3.03134e-11
-8.5264e-10
-3.10134e-11
-8.20956e-10
-3.16839e-11
-7.8863e-10
-3.23248e-11
-7.5569e-10
-3.2938e-11
-7.22167e-10
-3.35239e-11
-6.88086e-10
-3.40814e-11
-6.5348e-10
-3.4609e-11
-6.18375e-10
-3.51063e-11
-5.82804e-10
-3.55719e-11
-5.46794e-10
-3.60065e-11
-5.10382e-10
-3.64134e-11
-4.7359e-10
-3.67918e-11
-4.36448e-10
-3.71422e-11
-3.98984e-10
-3.74644e-11
-3.61223e-10
-3.77578e-11
-3.23199e-10
-3.80222e-11
-2.84939e-10
-3.82583e-11
-2.46475e-10
-3.84635e-11
-2.07838e-10
-3.86356e-11
-1.69065e-10
-3.87714e-11
-1.30213e-10
-3.88511e-11
-9.14374e-11
-3.87765e-11
-5.34304e-11
-3.8007e-11
-1.93602e-11
-3.407e-11
-1.93562e-11
3.5058e-11
-5.44619e-11
9.21765e-11
-8.99273e-11
1.53707e-10
-9.84306e-11
2.1615e-10
-1.00752e-10
2.78937e-10
-1.01636e-10
3.41818e-10
-1.0187e-10
4.04616e-10
-1.01709e-10
4.67211e-10
-1.01316e-10
5.29518e-10
-1.00783e-10
5.91469e-10
-1.00153e-10
6.53007e-10
-9.9446e-11
7.14079e-10
-9.86655e-11
7.74638e-10
-9.78128e-11
8.34638e-10
-9.68881e-11
8.94031e-10
-9.58913e-11
9.52774e-10
-9.48221e-11
1.01082e-09
-9.36799e-11
1.06812e-09
-9.2464e-11
1.12463e-09
-9.11736e-11
1.18031e-09
-8.98078e-11
1.2351e-09
-8.83664e-11
1.28897e-09
-8.6849e-11
1.34186e-09
-8.52555e-11
1.39372e-09
-8.35856e-11
1.44451e-09
-8.18391e-11
1.49418e-09
-8.00158e-11
1.54268e-09
-7.81157e-11
1.58998e-09
-7.61389e-11
1.63601e-09
-7.40854e-11
1.68073e-09
-7.19554e-11
1.72409e-09
-6.97492e-11
1.76605e-09
-6.74671e-11
1.80656e-09
-6.51093e-11
1.84558e-09
-6.26764e-11
1.88305e-09
-6.01687e-11
1.91893e-09
-5.7587e-11
1.95317e-09
-5.49319e-11
1.98573e-09
-5.22043e-11
2.01657e-09
-4.94052e-11
2.04563e-09
-4.65354e-11
2.07288e-09
-4.35962e-11
2.09828e-09
-4.05889e-11
2.12177e-09
-3.75151e-11
2.14333e-09
-3.43764e-11
2.1629e-09
-3.11749e-11
2.18046e-09
-2.79126e-11
2.19597e-09
-2.45919e-11
2.20938e-09
-2.1215e-11
2.22067e-09
-1.77843e-11
2.2298e-09
-1.43024e-11
2.23674e-09
-1.07719e-11
2.24147e-09
-7.19556e-12
2.24396e-09
-3.57556e-12
2.24418e-09
8.53607e-14
2.24212e-09
3.7863e-12
2.23774e-09
7.51072e-12
2.23104e-09
1.12585e-11
2.22199e-09
1.50269e-11
2.21058e-09
1.88127e-11
2.19681e-09
2.26121e-11
2.18066e-09
2.64207e-11
2.16214e-09
3.02336e-11
2.14124e-09
3.40461e-11
2.11796e-09
3.78531e-11
2.0923e-09
4.16493e-11
2.06429e-09
4.54297e-11
2.03392e-09
4.91887e-11
2.00122e-09
5.29207e-11
1.9662e-09
5.66199e-11
1.92888e-09
6.02807e-11
1.8893e-09
6.38972e-11
1.84748e-09
6.7464e-11
1.80346e-09
7.09754e-11
1.75727e-09
7.44257e-11
1.70895e-09
7.78091e-11
1.65855e-09
8.11197e-11
1.60612e-09
8.43516e-11
1.55171e-09
8.74991e-11
1.49537e-09
9.05564e-11
1.43717e-09
9.35182e-11
1.37716e-09
9.63791e-11
1.31542e-09
9.91339e-11
1.25201e-09
1.01777e-10
1.18701e-09
1.04304e-10
1.12049e-09
1.0671e-10
1.05253e-09
1.08989e-10
9.83209e-10
1.11137e-10
9.12619e-10
1.13149e-10
8.40844e-10
1.15023e-10
7.67975e-10
1.16755e-10
6.94102e-10
1.18341e-10
6.1932e-10
1.19777e-10
5.43726e-10
1.21062e-10
4.67418e-10
1.22191e-10
3.90495e-10
1.23164e-10
3.13057e-10
1.23977e-10
2.35206e-10
1.24629e-10
1.57044e-10
1.25118e-10
7.86741e-11
1.25445e-10
2.00864e-13
1.25606e-10
-7.82726e-11
1.25607e-10
-1.56643e-10
1.25445e-10
-2.34806e-10
1.25119e-10
-3.12658e-10
1.24629e-10
-3.90097e-10
1.23977e-10
-4.67022e-10
1.23164e-10
-5.43331e-10
1.22193e-10
-6.18925e-10
1.21064e-10
-6.93708e-10
1.1978e-10
-7.67583e-10
1.18345e-10
-8.40455e-10
1.1676e-10
-9.12232e-10
1.15029e-10
-9.82826e-10
1.13156e-10
-1.05215e-09
1.11143e-10
-1.12011e-09
1.08995e-10
-1.18664e-09
1.06717e-10
-1.25165e-09
1.04312e-10
-1.31506e-09
1.01786e-10
-1.37681e-09
9.91431e-11
-1.43682e-09
9.63887e-11
-1.49503e-09
9.35282e-11
-1.55137e-09
9.0567e-11
-1.60579e-09
8.75102e-11
-1.65823e-09
8.43631e-11
-1.70863e-09
8.11318e-11
-1.75696e-09
7.78224e-11
-1.80315e-09
7.444e-11
-1.84718e-09
7.099e-11
-1.88901e-09
6.7479e-11
-1.9286e-09
6.3913e-11
-1.96592e-09
6.02971e-11
-2.00095e-09
5.66372e-11
-2.03367e-09
5.29392e-11
-2.06404e-09
4.92086e-11
-2.09207e-09
4.54507e-11
-2.11774e-09
4.16715e-11
-2.14103e-09
3.78763e-11
-2.16194e-09
3.40702e-11
-2.18048e-09
3.02583e-11
-2.19664e-09
2.64462e-11
-2.21042e-09
2.26383e-11
-2.22184e-09
1.88382e-11
-2.2309e-09
1.50512e-11
-2.23762e-09
1.12812e-11
-2.24201e-09
7.53173e-12
-2.24408e-09
3.80571e-12
-2.24387e-09
1.04004e-13
-2.24139e-09
-3.55742e-12
-2.23668e-09
-7.17567e-12
-2.22974e-09
-1.07499e-11
-2.22062e-09
-1.42778e-11
-2.20935e-09
-1.77563e-11
-2.19595e-09
-2.11837e-11
-2.18046e-09
-2.45577e-11
-2.16292e-09
-2.78762e-11
-2.14336e-09
-3.11371e-11
-2.12182e-09
-3.43375e-11
-2.09834e-09
-3.74761e-11
-2.07297e-09
-4.05504e-11
-2.04574e-09
-4.35585e-11
-2.01669e-09
-4.64987e-11
-1.98587e-09
-4.93691e-11
-1.95333e-09
-5.21686e-11
-1.9191e-09
-5.48955e-11
-1.88324e-09
-5.75494e-11
-1.84579e-09
-6.01294e-11
-1.8068e-09
-6.26354e-11
-1.76631e-09
-6.50667e-11
-1.72437e-09
-6.74228e-11
-1.68103e-09
-6.97038e-11
-1.63633e-09
-7.19091e-11
-1.59032e-09
-7.40385e-11
-1.54305e-09
-7.60908e-11
-1.49457e-09
-7.80638e-11
-1.44493e-09
-7.99581e-11
-1.39417e-09
-8.17736e-11
-1.34234e-09
-8.35121e-11
-1.28949e-09
-8.51755e-11
-1.23566e-09
-8.67646e-11
-1.18091e-09
-8.82797e-11
-1.12527e-09
-8.97179e-11
-1.06881e-09
-9.10796e-11
-1.01155e-09
-9.23625e-11
-9.53551e-10
-9.35682e-11
-8.9486e-10
-9.46965e-11
-8.35525e-10
-9.5751e-11
-7.75586e-10
-9.67296e-11
-7.15092e-10
-9.76348e-11
-6.54086e-10
-9.84673e-11
-5.92614e-10
-9.92255e-11
-5.30725e-10
-9.99113e-11
-4.6846e-10
-1.00522e-10
-4.05867e-10
-1.01055e-10
-3.42989e-10
-1.01512e-10
-2.79871e-10
-1.01887e-10
-2.16566e-10
-1.02155e-10
-1.53231e-10
-1.02113e-10
-9.07432e-11
-1.00491e-10
-3.36845e-11
-9.1129e-11
-5.30407e-11
3.85429e-11
-9.3004e-11
1.01899e-10
-1.53259e-10
1.69891e-10
-1.66423e-10
2.38282e-10
-1.69158e-10
3.06589e-10
-1.69951e-10
3.74792e-10
-1.70068e-10
4.42854e-10
-1.69764e-10
5.10702e-10
-1.69161e-10
5.78262e-10
-1.68344e-10
6.45465e-10
-1.67359e-10
7.12248e-10
-1.66229e-10
7.78551e-10
-1.64967e-10
8.44318e-10
-1.63578e-10
9.09494e-10
-1.62063e-10
9.74028e-10
-1.60425e-10
1.03787e-09
-1.58662e-10
1.10096e-09
-1.56775e-10
1.16326e-09
-1.54763e-10
1.22472e-09
-1.52626e-10
1.28527e-09
-1.50363e-10
1.34488e-09
-1.47973e-10
1.40349e-09
-1.45456e-10
1.46104e-09
-1.42812e-10
1.5175e-09
-1.4004e-10
1.57279e-09
-1.37139e-10
1.62689e-09
-1.34111e-10
1.67973e-09
-1.30954e-10
1.73125e-09
-1.27668e-10
1.78142e-09
-1.24254e-10
1.83018e-09
-1.20711e-10
1.87747e-09
-1.17041e-10
1.92324e-09
-1.13243e-10
1.96745e-09
-1.09318e-10
2.01004e-09
-1.05266e-10
2.05096e-09
-1.01089e-10
2.09016e-09
-9.6787e-11
2.12759e-09
-9.23615e-11
2.1632e-09
-8.78137e-11
2.19694e-09
-8.31452e-11
2.22876e-09
-7.83575e-11
2.25862e-09
-7.34526e-11
2.28646e-09
-6.84326e-11
2.31225e-09
-6.33002e-11
2.33593e-09
-5.80581e-11
2.35747e-09
-5.27094e-11
2.37681e-09
-4.72576e-11
2.39393e-09
-4.17061e-11
2.40877e-09
-3.60586e-11
2.42131e-09
-3.03193e-11
2.4315e-09
-2.44925e-11
2.43931e-09
-1.85831e-11
2.44471e-09
-1.25962e-11
2.44767e-09
-6.53759e-12
2.44817e-09
-4.14152e-13
2.44619e-09
5.77006e-12
2.44169e-09
1.2008e-11
2.43465e-09
1.82932e-11
2.42506e-09
2.46188e-11
2.41289e-09
3.09777e-11
2.39814e-09
3.73626e-11
2.3808e-09
4.37658e-11
2.36085e-09
5.01793e-11
2.33831e-09
5.65948e-11
2.31316e-09
6.30039e-11
2.28541e-09
6.93978e-11
2.25507e-09
7.57675e-11
2.22216e-09
8.21039e-11
2.18668e-09
8.83975e-11
2.14866e-09
9.46386e-11
2.10813e-09
1.00818e-10
2.0651e-09
1.06925e-10
2.01961e-09
1.12951e-10
1.9717e-09
1.18886e-10
1.92141e-09
1.2472e-10
1.86877e-09
1.30443e-10
1.81385e-09
1.36044e-10
1.75668e-09
1.41515e-10
1.69734e-09
1.46845e-10
1.63587e-09
1.52024e-10
1.57234e-09
1.57043e-10
1.50683e-09
1.61893e-10
1.4394e-09
1.66565e-10
1.37012e-09
1.71049e-10
1.29909e-09
1.75336e-10
1.22638e-09
1.79418e-10
1.15209e-09
1.83287e-10
1.07629e-09
1.86935e-10
9.9908e-10
1.90355e-10
9.20563e-10
1.93539e-10
8.40835e-10
1.96483e-10
7.59996e-10
1.99179e-10
6.78151e-10
2.01622e-10
5.95406e-10
2.03806e-10
5.11869e-10
2.05728e-10
4.27651e-10
2.07382e-10
3.42862e-10
2.08766e-10
2.57615e-10
2.09876e-10
1.72024e-10
2.1071e-10
8.62021e-11
2.11267e-10
2.63642e-13
2.11545e-10
-8.56751e-11
2.11545e-10
-1.71498e-10
2.11267e-10
-2.57091e-10
2.10711e-10
-3.42339e-10
2.09877e-10
-4.27128e-10
2.08767e-10
-5.11347e-10
2.07384e-10
-5.94884e-10
2.05731e-10
-6.7763e-10
2.03811e-10
-7.59477e-10
2.01627e-10
-8.40318e-10
1.99186e-10
-9.20049e-10
1.96491e-10
-9.98568e-10
1.93549e-10
-1.07578e-09
1.90364e-10
-1.15158e-09
1.86945e-10
-1.22588e-09
1.83297e-10
-1.29859e-09
1.79429e-10
-1.36963e-09
1.75348e-10
-1.43891e-09
1.71061e-10
-1.50634e-09
1.66578e-10
-1.57186e-09
1.61908e-10
-1.63539e-09
1.57059e-10
-1.69687e-09
1.5204e-10
-1.75622e-09
1.46861e-10
-1.81339e-09
1.41532e-10
-1.86832e-09
1.36062e-10
-1.92096e-09
1.30462e-10
-1.97126e-09
1.2474e-10
-2.01917e-09
1.18907e-10
-2.06467e-09
1.12973e-10
-2.1077e-09
1.06948e-10
-2.14825e-09
1.00842e-10
-2.18627e-09
9.46635e-11
-2.22176e-09
8.84232e-11
-2.25468e-09
8.2131e-11
-2.28502e-09
7.5796e-11
-2.31278e-09
6.94273e-11
-2.33794e-09
6.30346e-11
-2.36049e-09
5.66269e-11
-2.38045e-09
5.02126e-11
-2.3978e-09
4.38e-11
-2.41256e-09
3.73972e-11
-2.42473e-09
3.10119e-11
-2.43434e-09
2.4652e-11
-2.44138e-09
1.8325e-11
-2.44589e-09
1.20381e-11
-2.44788e-09
5.79892e-12
-2.44739e-09
-3.85733e-13
-2.44443e-09
-6.50907e-12
-2.43904e-09
-1.25663e-11
-2.43124e-09
-1.8551e-11
-2.42106e-09
-2.44577e-11
-2.40853e-09
-3.02812e-11
-2.3937e-09
-3.60176e-11
-2.3766e-09
-4.16624e-11
-2.35726e-09
-4.72115e-11
-2.33573e-09
-5.26619e-11
-2.31206e-09
-5.80098e-11
-2.28628e-09
-6.32517e-11
-2.25845e-09
-6.83844e-11
-2.2286e-09
-7.34046e-11
-2.19679e-09
-7.83105e-11
-2.16306e-09
-8.30985e-11
-2.12746e-09
-8.77671e-11
-2.09004e-09
-9.23141e-11
-2.05085e-09
-9.67387e-11
-2.00994e-09
-1.01039e-10
-1.96737e-09
-1.05215e-10
-1.92317e-09
-1.09265e-10
-1.87741e-09
-1.13188e-10
-1.83012e-09
-1.16985e-10
-1.78138e-09
-1.20654e-10
-1.73122e-09
-1.24195e-10
-1.67971e-09
-1.27608e-10
-1.62688e-09
-1.3089e-10
-1.5728e-09
-1.34041e-10
-1.51751e-09
-1.37063e-10
-1.46106e-09
-1.39956e-10
-1.40352e-09
-1.42723e-10
-1.34492e-09
-1.45363e-10
-1.28532e-09
-1.47877e-10
-1.22478e-09
-1.50264e-10
-1.16334e-09
-1.52523e-10
-1.10104e-09
-1.54653e-10
-1.03795e-09
-1.56657e-10
-9.74116e-10
-1.58535e-10
-9.09579e-10
-1.60287e-10
-8.44393e-10
-1.61915e-10
-7.78607e-10
-1.63419e-10
-7.1227e-10
-1.648e-10
-6.45435e-10
-1.6606e-10
-5.78149e-10
-1.67198e-10
-5.10458e-10
-1.68211e-10
-4.42412e-10
-1.691e-10
-3.74057e-10
-1.69865e-10
-3.0544e-10
-1.70503e-10
-2.36621e-10
-1.70974e-10
-1.67768e-10
-1.70964e-10
-9.98017e-11
-1.68457e-10
-3.74642e-11
-1.53465e-10
-9.0508e-11
3.86663e-11
-1.31686e-10
1.02885e-10
-2.17466e-10
1.72418e-10
-2.35943e-10
2.4236e-10
-2.39101e-10
3.12022e-10
-2.39619e-10
3.81424e-10
-2.39473e-10
4.50589e-10
-2.38926e-10
5.1949e-10
-2.38059e-10
5.88079e-10
-2.36931e-10
6.56299e-10
-2.35579e-10
7.24093e-10
-2.34024e-10
7.91405e-10
-2.32278e-10
8.58177e-10
-2.3035e-10
9.24357e-10
-2.28242e-10
9.89889e-10
-2.25957e-10
1.05472e-09
-2.23496e-10
1.11881e-09
-2.20859e-10
1.18209e-09
-2.18044e-10
1.24451e-09
-2.15052e-10
1.30604e-09
-2.11882e-10
1.3666e-09
-2.08534e-10
1.42615e-09
-2.05007e-10
1.48464e-09
-2.01301e-10
1.54201e-09
-1.97415e-10
1.59822e-09
-1.93349e-10
1.65321e-09
-1.89101e-10
1.70693e-09
-1.84672e-10
1.75932e-09
-1.80062e-10
1.81034e-09
-1.75271e-10
1.85993e-09
-1.70299e-10
1.90803e-09
-1.65146e-10
1.9546e-09
-1.59813e-10
1.99958e-09
-1.54301e-10
2.04293e-09
-1.4861e-10
2.08458e-09
-1.42742e-10
2.12449e-09
-1.36697e-10
2.16261e-09
-1.30477e-10
2.19888e-09
-1.24084e-10
2.23325e-09
-1.1752e-10
2.26568e-09
-1.10788e-10
2.29612e-09
-1.0389e-10
2.32452e-09
-9.68282e-11
2.35083e-09
-8.96075e-11
2.375e-09
-8.22314e-11
2.39699e-09
-7.4704e-11
2.41677e-09
-6.70298e-11
2.43427e-09
-5.92136e-11
2.44948e-09
-5.12608e-11
2.46234e-09
-4.3177e-11
2.47281e-09
-3.49687e-11
2.48087e-09
-2.66425e-11
2.48648e-09
-1.82059e-11
2.48961e-09
-9.66698e-12
2.49023e-09
-1.03499e-12
2.48832e-09
7.68352e-12
2.48384e-09
1.64812e-11
2.47679e-09
2.5349e-11
2.46713e-09
3.42768e-11
2.45485e-09
4.32542e-11
2.43994e-09
5.22706e-11
2.42239e-09
6.13151e-11
2.4022e-09
7.03764e-11
2.37935e-09
7.94428e-11
2.35385e-09
8.85021e-11
2.32571e-09
9.75419e-11
2.29493e-09
1.06549e-10
2.26152e-09
1.15512e-10
2.2255e-09
1.24416e-10
2.1869e-09
1.33248e-10
2.14572e-09
1.41994e-10
2.102e-09
1.50641e-10
2.05578e-09
1.59175e-10
2.00708e-09
1.67582e-10
1.95596e-09
1.75847e-10
1.90244e-09
1.83957e-10
1.84659e-09
1.91896e-10
1.78845e-09
1.99651e-10
1.72809e-09
2.07208e-10
1.66556e-09
2.14553e-10
1.60093e-09
2.21673e-10
1.53427e-09
2.28554e-10
1.46565e-09
2.35182e-10
1.39515e-09
2.41545e-10
1.32286e-09
2.47631e-10
1.24885e-09
2.53426e-10
1.17322e-09
2.58919e-10
1.09606e-09
2.64099e-10
1.01745e-09
2.68957e-10
9.37513e-10
2.73481e-10
8.56333e-10
2.77663e-10
7.74019e-10
2.81493e-10
6.90676e-10
2.84965e-10
6.06413e-10
2.88069e-10
5.2134e-10
2.908e-10
4.35571e-10
2.93151e-10
3.49219e-10
2.95118e-10
2.62398e-10
2.96697e-10
1.75225e-10
2.97883e-10
8.78169e-11
2.98675e-10
2.90318e-13
2.99071e-10
-8.72367e-11
2.99072e-10
-1.74646e-10
2.98676e-10
-2.6182e-10
2.97884e-10
-3.48642e-10
2.96698e-10
-4.34995e-10
2.95121e-10
-5.20765e-10
2.93155e-10
-6.05837e-10
2.90805e-10
-6.90101e-10
2.88076e-10
-7.73446e-10
2.84972e-10
-8.55762e-10
2.81502e-10
-9.36944e-10
2.77673e-10
-1.01689e-09
2.73492e-10
-1.09549e-09
2.68969e-10
-1.17266e-09
2.64112e-10
-1.2483e-09
2.58933e-10
-1.32231e-09
2.5344e-10
-1.3946e-09
2.47646e-10
-1.46511e-09
2.41562e-10
-1.53373e-09
2.352e-10
-1.60039e-09
2.28573e-10
-1.66503e-09
2.21693e-10
-1.72756e-09
2.14574e-10
-1.78793e-09
2.0723e-10
-1.84607e-09
1.99674e-10
-1.90193e-09
1.9192e-10
-1.95545e-09
1.83981e-10
-2.00658e-09
1.75874e-10
-2.05528e-09
1.6761e-10
-2.10151e-09
1.59204e-10
-2.14523e-09
1.50671e-10
-2.18642e-09
1.42025e-10
-2.22503e-09
1.33279e-10
-2.26106e-09
1.24448e-10
-2.29447e-09
1.15545e-10
-2.32526e-09
1.06584e-10
-2.35341e-09
9.75772e-11
-2.37891e-09
8.85387e-11
-2.40176e-09
7.94812e-11
-2.42197e-09
7.04165e-11
-2.43952e-09
6.13558e-11
-2.45444e-09
5.23115e-11
-2.46672e-09
4.32947e-11
-2.47638e-09
3.43168e-11
-2.48345e-09
2.53883e-11
-2.48793e-09
1.65195e-11
-2.48985e-09
7.72142e-12
-2.48924e-09
-9.9675e-13
-2.48612e-09
-9.62849e-12
-2.48052e-09
-1.81669e-11
-2.47246e-09
-2.66019e-11
-2.462e-09
-3.4926e-11
-2.44915e-09
-4.31317e-11
-2.43395e-09
-5.12129e-11
-2.41645e-09
-5.91634e-11
-2.39668e-09
-6.69772e-11
-2.37469e-09
-7.46502e-11
-2.35052e-09
-8.21775e-11
-2.32422e-09
-8.95537e-11
-2.29583e-09
-9.67747e-11
-2.2654e-09
-1.03836e-10
-2.23298e-09
-1.10735e-10
-2.19861e-09
-1.17467e-10
-2.16234e-09
-1.2403e-10
-2.12424e-09
-1.30422e-10
-2.08433e-09
-1.36642e-10
-2.04269e-09
-1.42686e-10
-1.99935e-09
-1.48553e-10
-1.95437e-09
-1.54243e-10
-1.90781e-09
-1.59754e-10
-1.85971e-09
-1.65085e-10
-1.81012e-09
-1.70236e-10
-1.75911e-09
-1.75207e-10
-1.70672e-09
-1.79996e-10
-1.65301e-09
-1.84603e-10
-1.59802e-09
-1.89028e-10
-1.54182e-09
-1.9327e-10
-1.48444e-09
-1.97332e-10
-1.42595e-09
-2.01215e-10
-1.36639e-09
-2.04918e-10
-1.30583e-09
-2.08443e-10
-1.2443e-09
-2.11789e-10
-1.18187e-09
-2.14956e-10
-1.11858e-09
-2.17944e-10
-1.05448e-09
-2.20756e-10
-9.89628e-10
-2.2339e-10
-9.24066e-10
-2.25849e-10
-8.57847e-10
-2.28132e-10
-7.91022e-10
-2.30241e-10
-7.23642e-10
-2.32179e-10
-6.55758e-10
-2.33945e-10
-5.87415e-10
-2.3554e-10
-5.18665e-10
-2.36961e-10
-4.49553e-10
-2.3821e-10
-3.80129e-10
-2.39288e-10
-3.10441e-10
-2.4019e-10
-2.40553e-10
-2.40864e-10
-1.70636e-10
-2.4088e-10
-1.01625e-10
-2.37472e-10
-3.82958e-11
-2.16791e-10
-1.28803e-10
3.84958e-11
-1.70192e-10
1.02566e-10
-2.81547e-10
1.72406e-10
-3.05774e-10
2.42889e-10
-3.09577e-10
3.13101e-10
-3.0983e-10
3.82987e-10
-3.09361e-10
4.5257e-10
-3.0851e-10
5.21845e-10
-3.07333e-10
5.90777e-10
-3.05863e-10
6.59323e-10
-3.04124e-10
7.27431e-10
-3.02131e-10
7.9505e-10
-2.99896e-10
8.62127e-10
-2.97426e-10
9.28608e-10
-2.94723e-10
9.94441e-10
-2.91791e-10
1.05958e-09
-2.88631e-10
1.12396e-09
-2.85242e-10
1.18754e-09
-2.81624e-10
1.25027e-09
-2.77777e-10
1.31209e-09
-2.73701e-10
1.37295e-09
-2.69394e-10
1.4328e-09
-2.64857e-10
1.49158e-09
-2.60088e-10
1.54925e-09
-2.55086e-10
1.60575e-09
-2.49852e-10
1.66104e-09
-2.44384e-10
1.71505e-09
-2.38681e-10
1.76773e-09
-2.32745e-10
1.81903e-09
-2.26575e-10
1.8689e-09
-2.20171e-10
1.91729e-09
-2.13533e-10
1.96414e-09
-2.06663e-10
2.0094e-09
-1.9956e-10
2.05301e-09
-1.92226e-10
2.09493e-09
-1.84662e-10
2.1351e-09
-1.76869e-10
2.17348e-09
-1.6885e-10
2.21e-09
-1.60607e-10
2.24462e-09
-1.52142e-10
2.27729e-09
-1.43459e-10
2.30797e-09
-1.3456e-10
2.33659e-09
-1.25451e-10
2.36312e-09
-1.16135e-10
2.3875e-09
-1.06616e-10
2.4097e-09
-9.69015e-11
2.42966e-09
-8.69957e-11
2.44736e-09
-7.69052e-11
2.46273e-09
-6.66369e-11
2.47575e-09
-5.61981e-11
2.48638e-09
-4.55969e-11
2.49458e-09
-3.48421e-11
2.50032e-09
-2.39428e-11
2.50356e-09
-1.29091e-11
2.50428e-09
-1.75192e-12
2.50244e-09
9.51938e-12
2.49803e-09
2.08942e-11
2.49101e-09
3.2361e-11
2.48138e-09
4.3907e-11
2.46912e-09
5.55191e-11
2.45421e-09
6.71837e-11
2.43663e-09
7.88866e-11
2.4164e-09
9.06131e-11
2.39349e-09
1.02348e-10
2.36792e-09
1.14075e-10
2.33969e-09
1.25779e-10
2.3088e-09
1.37443e-10
2.27526e-09
1.4905e-10
2.23909e-09
1.60583e-10
2.20031e-09
1.72026e-10
2.15895e-09
1.83359e-10
2.11502e-09
1.94566e-10
2.06857e-09
2.05627e-10
2.01963e-09
2.16525e-10
1.96824e-09
2.2724e-10
1.91444e-09
2.37755e-10
1.85828e-09
2.48051e-10
1.79982e-09
2.58109e-10
1.73912e-09
2.67912e-10
1.67623e-09
2.77442e-10
1.61122e-09
2.8668e-10
1.54417e-09
2.95609e-10
1.47514e-09
3.04211e-10
1.40421e-09
3.1247e-10
1.33147e-09
3.20369e-10
1.25701e-09
3.27892e-10
1.1809e-09
3.35024e-10
1.10325e-09
3.41751e-10
1.02415e-09
3.48059e-10
9.43694e-10
3.53935e-10
8.61991e-10
3.59367e-10
7.79142e-10
3.64342e-10
6.95255e-10
3.68851e-10
6.1044e-10
3.72884e-10
5.24807e-10
3.76432e-10
4.38471e-10
3.79487e-10
3.51546e-10
3.82043e-10
2.64149e-10
3.84094e-10
1.76397e-10
3.85636e-10
8.84068e-11
3.86666e-10
2.9777e-13
3.8718e-10
-8.78118e-11
3.87181e-10
-1.75803e-10
3.86666e-10
-2.63556e-10
3.85638e-10
-3.50954e-10
3.84097e-10
-4.37879e-10
3.82048e-10
-5.24215e-10
3.79493e-10
-6.09849e-10
3.76439e-10
-6.94665e-10
3.72893e-10
-7.78553e-10
3.68861e-10
-8.61404e-10
3.64353e-10
-9.4311e-10
3.59379e-10
-1.02357e-09
3.53949e-10
-1.10267e-09
3.48074e-10
-1.18033e-09
3.41768e-10
-1.25644e-09
3.35042e-10
-1.33091e-09
3.27911e-10
-1.40365e-09
3.20388e-10
-1.47458e-09
3.12491e-10
-1.54361e-09
3.04233e-10
-1.61067e-09
2.95632e-10
-1.67568e-09
2.86705e-10
-1.73858e-09
2.77468e-10
-1.79929e-09
2.67939e-10
-1.85775e-09
2.58138e-10
-1.91391e-09
2.48081e-10
-1.96771e-09
2.37786e-10
-2.01911e-09
2.27272e-10
-2.06806e-09
2.16558e-10
-2.11452e-09
2.05662e-10
-2.15844e-09
1.94601e-10
-2.19982e-09
1.83396e-10
-2.2386e-09
1.72063e-10
-2.27477e-09
1.60622e-10
-2.30832e-09
1.49089e-10
-2.33922e-09
1.37483e-10
-2.36746e-09
1.2582e-10
-2.39303e-09
1.14118e-10
-2.41594e-09
1.02392e-10
-2.43619e-09
9.06585e-11
-2.45376e-09
7.89326e-11
-2.46868e-09
6.723e-11
-2.48095e-09
5.55656e-11
-2.49059e-09
4.39535e-11
-2.49761e-09
3.24076e-11
-2.50203e-09
2.09409e-11
-2.50387e-09
9.56623e-12
-2.50316e-09
-1.70452e-12
-2.49993e-09
-1.28616e-11
-2.4942e-09
-2.38952e-11
-2.48601e-09
-3.47935e-11
-2.47539e-09
-4.55466e-11
-2.46237e-09
-5.61456e-11
-2.447e-09
-6.65818e-11
-2.42932e-09
-7.6848e-11
-2.40936e-09
-8.69369e-11
-2.38716e-09
-9.6842e-11
-2.36278e-09
-1.06557e-10
-2.33626e-09
-1.16076e-10
-2.30764e-09
-1.25392e-10
-2.27698e-09
-1.34502e-10
-2.24431e-09
-1.43399e-10
-2.20969e-09
-1.52082e-10
-2.17318e-09
-1.60546e-10
-2.13481e-09
-1.6879e-10
-2.09464e-09
-1.76808e-10
-2.05273e-09
-1.846e-10
-2.00912e-09
-1.92164e-10
-1.96386e-09
-1.99496e-10
-1.91702e-09
-2.06598e-10
-1.86864e-09
-2.13468e-10
-1.81877e-09
-2.20104e-10
-1.76747e-09
-2.26507e-10
-1.71479e-09
-2.32676e-10
-1.66078e-09
-2.3861e-10
-1.6055e-09
-2.44309e-10
-1.54899e-09
-2.49774e-10
-1.49132e-09
-2.55006e-10
-1.43253e-09
-2.60005e-10
-1.37267e-09
-2.64773e-10
-1.31181e-09
-2.6931e-10
-1.24998e-09
-2.73617e-10
-1.18724e-09
-2.77693e-10
-1.12365e-09
-2.81541e-10
-1.05924e-09
-2.85159e-10
-9.94085e-10
-2.8855e-10
-9.28218e-10
-2.91714e-10
-8.61693e-10
-2.94654e-10
-7.94563e-10
-2.9737e-10
-7.26877e-10
-2.99865e-10
-6.58686e-10
-3.02138e-10
-5.90035e-10
-3.04189e-10
-5.20978e-10
-3.06019e-10
-4.51559e-10
-3.07628e-10
-3.81828e-10
-3.09019e-10
-3.11835e-10
-3.10185e-10
-2.41643e-10
-3.11056e-10
-1.71429e-10
-3.11093e-10
-1.02132e-10
-3.06773e-10
-3.85437e-11
-2.80379e-10
-1.67344e-10
3.84747e-11
-2.08661e-10
1.02467e-10
-3.45554e-10
1.7241e-10
-3.7572e-10
2.43171e-10
-3.80333e-10
3.13735e-10
-3.8039e-10
3.83975e-10
-3.79599e-10
4.53889e-10
-3.78424e-10
5.23469e-10
-3.76912e-10
5.92686e-10
-3.75079e-10
6.61501e-10
-3.72937e-10
7.29869e-10
-3.70497e-10
7.9774e-10
-3.67766e-10
8.65064e-10
-3.64749e-10
9.3179e-10
-3.6145e-10
9.97868e-10
-3.5787e-10
1.06325e-09
-3.5401e-10
1.12787e-09
-3.49869e-10
1.1917e-09
-3.45449e-10
1.25467e-09
-3.40748e-10
1.31673e-09
-3.35765e-10
1.37784e-09
-3.305e-10
1.43794e-09
-3.24953e-10
1.49697e-09
-3.19121e-10
1.55489e-09
-3.13005e-10
1.61164e-09
-3.06603e-10
1.66717e-09
-2.99914e-10
1.72142e-09
-2.92938e-10
1.77435e-09
-2.85676e-10
1.8259e-09
-2.78126e-10
1.87602e-09
-2.7029e-10
1.92465e-09
-2.62167e-10
1.97175e-09
-2.53757e-10
2.01725e-09
-2.45062e-10
2.06111e-09
-2.36083e-10
2.10327e-09
-2.26822e-10
2.14368e-09
-2.17279e-10
2.18228e-09
-2.07459e-10
2.21904e-09
-1.97362e-10
2.25389e-09
-1.86993e-10
2.28679e-09
-1.76355e-10
2.31768e-09
-1.65452e-10
2.34652e-09
-1.5429e-10
2.37325e-09
-1.42873e-10
2.39784e-09
-1.31207e-10
2.42024e-09
-1.19298e-10
2.4404e-09
-1.07153e-10
2.45827e-09
-9.47812e-11
2.47383e-09
-8.21894e-11
2.48701e-09
-6.9387e-11
2.4978e-09
-5.63839e-11
2.50615e-09
-4.31903e-11
2.51202e-09
-2.98175e-11
2.51539e-09
-1.62774e-11
2.51622e-09
-2.58294e-12
2.51449e-09
1.12538e-11
2.51016e-09
2.52189e-11
2.50323e-09
3.92982e-11
2.49366e-09
5.34764e-11
2.48144e-09
6.77377e-11
2.46656e-09
8.20653e-11
2.449e-09
9.6442e-11
2.42877e-09
1.10849e-10
2.40585e-09
1.25269e-10
2.38024e-09
1.3968e-10
2.35196e-09
1.54065e-10
2.321e-09
1.68403e-10
2.28738e-09
1.82673e-10
2.25111e-09
1.96854e-10
2.21221e-09
2.10925e-10
2.1707e-09
2.24864e-10
2.12662e-09
2.38649e-10
2.07999e-09
2.52256e-10
2.03085e-09
2.65664e-10
1.97925e-09
2.78849e-10
1.92521e-09
2.91788e-10
1.8688e-09
3.04459e-10
1.81007e-09
3.1684e-10
1.74908e-09
3.28908e-10
1.68588e-09
3.4064e-10
1.62054e-09
3.52014e-10
1.55315e-09
3.63008e-10
1.48375e-09
3.73601e-10
1.41245e-09
3.83772e-10
1.33932e-09
3.935e-10
1.26444e-09
4.02767e-10
1.18791e-09
4.11554e-10
1.10982e-09
4.19842e-10
1.03027e-09
4.27614e-10
9.49351e-10
4.34854e-10
8.67172e-10
4.41546e-10
7.83837e-10
4.47677e-10
6.99454e-10
4.53234e-10
6.14133e-10
4.58204e-10
5.27988e-10
4.62577e-10
4.41132e-10
4.66343e-10
3.53682e-10
4.69493e-10
2.65755e-10
4.72021e-10
1.7747e-10
4.73922e-10
8.89448e-11
4.75191e-10
2.99536e-13
4.75826e-10
-8.83461e-11
4.75827e-10
-1.76872e-10
4.75193e-10
-2.65158e-10
4.73925e-10
-3.53085e-10
4.72026e-10
-4.40536e-10
4.69499e-10
-5.27392e-10
4.6635e-10
-6.13538e-10
4.62586e-10
-6.9886e-10
4.58215e-10
-7.83244e-10
4.53246e-10
-8.66581e-10
4.47691e-10
-9.48763e-10
4.41561e-10
-1.02968e-09
4.3487e-10
-1.10924e-09
4.27632e-10
-1.18733e-09
4.19861e-10
-1.26387e-09
4.11575e-10
-1.33875e-09
4.0279e-10
-1.41188e-09
3.93524e-10
-1.48319e-09
3.83797e-10
-1.55258e-09
3.73627e-10
-1.61999e-09
3.63035e-10
-1.68533e-09
3.52043e-10
-1.74853e-09
3.4067e-10
-1.80953e-09
3.2894e-10
-1.86826e-09
3.16874e-10
-1.92468e-09
3.04495e-10
-1.97872e-09
2.91825e-10
-2.03033e-09
2.78886e-10
-2.07947e-09
2.65702e-10
-2.12611e-09
2.52296e-10
-2.1702e-09
2.3869e-10
-2.21171e-09
2.24906e-10
-2.25061e-09
2.10969e-10
-2.28689e-09
1.96899e-10
-2.32051e-09
1.82719e-10
-2.35148e-09
1.6845e-10
-2.37977e-09
1.54113e-10
-2.40538e-09
1.39729e-10
-2.42831e-09
1.25318e-10
-2.44855e-09
1.10899e-10
-2.46611e-09
9.6493e-11
-2.481e-09
8.21174e-11
-2.49322e-09
6.77908e-11
-2.5028e-09
5.35302e-11
-2.50974e-09
3.93523e-11
-2.51407e-09
2.52736e-11
-2.51581e-09
1.13087e-11
-2.51499e-09
-2.52779e-12
-2.51163e-09
-1.62221e-11
-2.50576e-09
-2.97616e-11
-2.49742e-09
-4.31332e-11
-2.48664e-09
-5.63249e-11
-2.47346e-09
-6.93261e-11
-2.45791e-09
-8.21263e-11
-2.44004e-09
-9.47165e-11
-2.41989e-09
-1.07088e-10
-2.3975e-09
-1.19232e-10
-2.37292e-09
-1.31141e-10
-2.34618e-09
-1.42808e-10
-2.31735e-09
-1.54225e-10
-2.28646e-09
-1.65387e-10
-2.25357e-09
-1.76288e-10
-2.21873e-09
-1.86926e-10
-2.18198e-09
-1.97295e-10
-2.14337e-09
-2.07392e-10
-2.10297e-09
-2.17213e-10
-2.06081e-09
-2.26754e-10
-2.01696e-09
-2.36015e-10
-1.97146e-09
-2.44993e-10
-1.92437e-09
-2.53687e-10
-1.87575e-09
-2.62097e-10
-1.82563e-09
-2.70219e-10
-1.77408e-09
-2.78055e-10
-1.72115e-09
-2.85604e-10
-1.6669e-09
-2.92865e-10
-1.61137e-09