/*--------------------------------*- C++ -*----------------------------------*\
| =========                 |                                                 |
| \\      /  F ield         | OpenFOAM: The Open Source CFD Toolbox           |
|  \\    /   O peration     | Version:  2412                                  |
|   \\  /    A nd           | Website:  www.openfoam.com                      |
|    \\/     M anipulation  |                                                 |
\*---------------------------------------------------------------------------*/
FoamFile
{
    version     2.0;
    format      ascii;
    arch        "LSB;label=32;scalar=64";
    class       volScalarField;
    location    "1.18";
    object      alpha.water;
}
// * * * * * * * * * * * * * * * * * * * * * * * * * * * * * * * * * * * * * //

dimensions      [0 0 0 0 0 0 0];

internalField   nonuniform List<scalar> 
40000
(
1.8748e-187
2.73555e-178
2.12573e-177
2.65597e-177
2.64957e-177
2.49939e-177
2.28318e-177
2.03402e-177
1.77166e-177
1.51004e-177
1.25921e-177
1.02658e-177
8.17511e-178
6.35237e-178
4.8108e-178
3.54644e-178
2.54146e-178
1.7683e-178
1.19324e-178
7.79909e-179
4.93129e-179
3.01265e-179
1.7758e-179
1.00775e-179
5.48618e-180
2.84958e-180
1.40291e-180
6.49088e-181
2.79967e-181
1.11852e-181
4.12424e-182
1.40322e-182
4.42472e-183
1.29925e-183
3.53698e-184
8.74607e-185
1.9162e-185
3.66404e-186
6.11509e-187
8.98066e-188
1.15864e-188
1.29533e-189
1.23854e-190
1.00672e-191
6.94455e-193
4.06447e-194
2.0187e-195
8.51149e-197
3.04636e-198
9.2395e-200
2.36105e-201
5.00862e-203
8.49581e-205
1.06673e-206
1.32231e-208
1.61767e-210
1.95178e-212
2.32036e-214
2.71534e-216
3.12464e-218
3.53231e-220
3.91916e-222
4.26389e-224
4.54467e-226
4.74115e-228
4.83657e-230
4.8199e-232
4.68743e-234
4.44383e-236
4.10207e-238
3.68249e-240
3.21074e-242
2.71512e-244
2.22357e-246
1.76075e-248
1.34583e-250
9.91129e-253
7.01876e-255
4.76927e-257
3.10239e-259
1.92707e-261
1.13986e-263
6.40085e-266
3.40091e-268
1.70332e-270
8.00792e-273
3.51727e-275
1.43551e-277
5.4102e-280
1.86927e-282
5.87008e-285
1.65818e-287
4.16014e-290
9.12207e-293
1.71198e-295
2.6727e-298
3.3311e-301
3.10637e-304
1.9262e-307
5.95743e-311
7.56455e-311
2.43896e-307
3.91717e-304
4.18214e-301
3.34067e-298
2.13045e-295
1.1303e-292
5.13308e-290
2.03763e-287
7.18477e-285
2.27914e-282
6.57203e-280
1.73754e-277
4.24258e-275
9.62707e-273
2.04113e-270
4.06276e-268
7.62365e-266
1.3537e-263
2.28222e-261
3.66428e-259
5.6184e-257
8.24757e-255
1.16181e-252
1.57385e-250
2.05432e-248
2.58847e-246
3.15376e-244
3.72146e-242
4.25932e-240
4.73489e-238
5.11906e-236
5.38902e-234
5.53055e-232
5.53909e-230
5.4196e-228
5.18537e-226
4.85609e-224
4.45539e-222
4.00842e-220
3.53952e-218
3.07051e-216
2.61936e-214
2.19955e-212
1.81993e-210
1.48506e-208
1.19584e-206
9.50552e-205
5.5926e-203
2.62731e-201
1.02347e-199
3.35556e-198
9.31378e-197
2.19276e-195
4.38026e-194
7.42379e-193
1.06758e-191
1.30328e-190
1.35309e-189
1.2023e-188
9.26655e-188
6.27894e-187
3.7448e-186
1.9497e-185
8.86444e-185
3.57374e-184
1.30957e-183
4.4516e-183
1.40939e-182
4.1359e-182
1.12009e-181
2.80012e-181
6.48505e-181
1.40037e-180
2.84206e-180
5.46741e-180
1.00362e-179
1.76763e-179
2.99791e-179
4.90652e-179
7.7598e-179
1.18726e-178
1.75946e-178
2.52866e-178
3.52836e-178
4.78619e-178
6.3204e-178
8.13569e-178
1.02201e-177
1.25433e-177
1.50553e-177
1.7688e-177
2.03579e-177
2.29716e-177
2.54273e-177
2.75601e-177
2.86025e-177
2.34285e-177
2.78281e-178
1.37003e-187
6.48547e-184
6.0491e-175
4.36468e-174
5.28297e-174
5.19304e-174
4.88064e-174
4.47012e-174
4.00395e-174
3.51142e-174
3.01587e-174
2.53594e-174
2.08629e-174
1.67785e-174
1.31773e-174
1.00951e-174
7.53513e-175
5.47268e-175
3.86301e-175
2.6473e-175
1.75907e-175
1.132e-175
7.04657e-176
4.23741e-176
2.45642e-176
1.36795e-176
7.27926e-177
3.67759e-177
1.74933e-177
7.77367e-178
3.20692e-178
1.22372e-178
4.31789e-179
1.41495e-179
4.32728e-180
1.22997e-180
3.18406e-181
7.32504e-182
1.47531e-182
2.6019e-183
4.05266e-184
5.56633e-185
6.64924e-186
6.81843e-187
5.96928e-188
4.45763e-189
2.84152e-190
1.54875e-191
7.23695e-193
2.9096e-194
1.01068e-195
3.04577e-197
7.99086e-199
1.82851e-200
3.64421e-202
7.07603e-204
1.34837e-205
2.5207e-207
4.62126e-209
8.30505e-211
1.46236e-212
2.52156e-214
4.25527e-216
7.02348e-218
1.13303e-219
1.78515e-221
2.74469e-223
4.11459e-225
6.00851e-227
8.53848e-229
1.17951e-230
1.58208e-232
2.0579e-234
2.59247e-236
3.15848e-238
3.71579e-240
4.21419e-242
4.59931e-244
4.82112e-246
4.84362e-248
4.65338e-250
4.26442e-252
3.71757e-254
3.07367e-256
2.40218e-258
1.76802e-260
1.22037e-262
7.86259e-265
4.70297e-267
2.59544e-269
1.31199e-271
6.02288e-274
2.48506e-276
9.09921e-279
2.90961e-281
7.95688e-284
1.80869e-286
3.27973e-289
4.44658e-292
4.00586e-295
1.79907e-298
2.18756e-298
4.8744e-295
5.4045e-292
3.97953e-289
2.19036e-286
9.6162e-284
3.50898e-281
1.09503e-278
2.98424e-276
7.21744e-274
1.56892e-271
3.09729e-269
5.60091e-267
9.34505e-265
1.44761e-262
2.09318e-260
2.83857e-258
3.62528e-256
4.37672e-254
5.0115e-252
5.45893e-250
5.67224e-248
5.63623e-246
5.36786e-244
4.91021e-242
4.32238e-240
3.66814e-238
3.00596e-236
2.38233e-234
1.82861e-232
1.36118e-230
9.83827e-229
6.91247e-227
4.72632e-225
3.1479e-223
2.04424e-221
1.29548e-219
8.01802e-218
4.85024e-216
2.86958e-214
1.66153e-212
9.42076e-211
5.23336e-209
2.84971e-207
1.5217e-205
7.97136e-204
4.09774e-202
2.05334e-200
8.95154e-199
3.39983e-197
1.12292e-195
3.21422e-194
7.94111e-193
1.6867e-191
3.0697e-190
4.77563e-189
6.34239e-188
7.18689e-187
6.95569e-186
5.78301e-185
4.18595e-184
2.67404e-183
1.50911e-182
7.4592e-182
3.22982e-181
1.24379e-180
4.36532e-180
1.42477e-179
4.34066e-179
1.22826e-178
3.21425e-178
7.78186e-178
1.74936e-177
3.67454e-177
7.26796e-177
1.36494e-176
2.44971e-176
4.22424e-176
7.02316e-176
1.12813e-175
1.75306e-175
2.63844e-175
3.85054e-175
5.45592e-175
7.51364e-175
1.00694e-174
1.31495e-174
1.67536e-174
2.085e-174
2.53741e-174
3.0226e-174
3.52749e-174
4.0365e-174
4.5326e-174
4.99768e-174
5.40266e-174
5.60575e-174
4.6314e-174
5.85492e-175
4.80006e-184
8.02422e-181
4.7866e-172
3.30346e-171
3.93723e-171
3.83691e-171
3.59699e-171
3.29992e-171
2.96797e-171
2.61756e-171
2.26328e-171
1.91767e-171
1.5911e-171
1.29165e-171
1.02487e-171
7.9396e-172
5.99821e-172
4.41355e-172
3.15933e-172
2.1978e-172
1.48397e-172
9.71396e-173
6.15749e-173
3.77483e-173
2.23358e-173
1.27125e-173
6.92342e-174
3.58544e-174
1.75125e-174
8.00699e-175
3.40579e-175
1.34274e-175
4.9044e-176
1.66673e-176
5.29661e-177
1.5676e-177
4.23338e-178
1.0179e-178
2.14696e-179
3.97441e-180
6.51655e-181
9.44473e-182
1.19182e-182
1.29147e-183
1.19529e-184
9.44173e-186
6.36878e-187
3.67384e-188
1.81726e-189
7.73899e-191
2.85177e-192
9.14498e-194
2.56733e-195
6.34716e-197
1.38957e-198
2.94043e-200
6.09597e-202
1.2379e-203
2.46165e-205
4.79201e-207
9.12837e-209
1.70081e-210
3.09801e-212
5.51352e-214
9.58122e-216
1.62465e-217
2.68606e-219
4.3265e-221
6.78322e-223
1.03418e-224
1.5317e-226
2.20128e-228
3.06609e-230
4.13369e-232
5.38675e-234
6.77481e-236
8.20997e-238
9.56965e-240
1.07085e-241
1.148e-243
1.17639e-245
1.14943e-247
1.06796e-249
9.40741e-252
7.83035e-254
6.13592e-256
4.50774e-258
3.0901e-260
1.96601e-262
1.15373e-264
6.19988e-267
3.02479e-269
1.32602e-271
5.15737e-274
1.75131e-276
5.08477e-279
1.22685e-281
2.3609e-284
3.3962e-287
3.24592e-290
1.54668e-293
1.87291e-293
3.93986e-290
4.12169e-287
2.86257e-284
1.48563e-281
6.14815e-279
2.11418e-276
6.21559e-274
1.59538e-271
3.63294e-269
7.4335e-267
1.3809e-264
2.34906e-262
3.68583e-260
5.36763e-258
7.2941e-256
9.29286e-254
1.11461e-251
1.26329e-249
1.35747e-247
1.3871e-245
1.35149e-243
1.2587e-241
1.1231e-239
9.62051e-238
7.92672e-236
6.29314e-234
4.822e-232
3.57129e-230
2.56018e-228
1.77878e-226
1.19923e-224
7.85412e-223
5.00211e-221
3.10089e-219
1.87275e-217
1.10278e-215
6.33633e-214
3.55487e-212
1.94859e-210
1.04416e-208
5.47257e-207
2.8066e-205
1.40897e-203
6.92628e-202
3.33493e-200
1.57307e-198
7.17378e-197
2.89395e-195
1.02691e-193
3.18632e-192
8.59368e-191
2.00341e-189
4.01752e-188
6.9044e-187
1.0145e-185
1.27307e-184
1.36394e-183
1.24872e-182
9.82472e-182
6.7378e-181
4.08823e-180
2.19788e-179
1.03729e-178
4.29709e-178
1.58624e-177
5.3465e-177
1.67934e-176
4.93337e-176
1.34858e-175
3.41575e-175
8.02052e-175
1.75241e-174
3.58491e-174
6.91779e-174
1.2695e-173
2.22949e-173
3.76675e-173
6.14318e-173
9.69057e-173
1.48042e-172
2.19275e-172
3.15264e-172
4.40539e-172
5.9892e-172
7.93125e-172
1.02442e-171
1.29211e-171
1.59334e-171
1.92301e-171
2.27371e-171
2.63607e-171
2.99921e-171
3.35133e-171
3.68023e-171
3.96603e-171
4.10905e-171
3.41294e-171
4.54975e-172
6.18378e-181
5.72286e-178
2.14846e-169
1.42992e-168
1.69212e-168
1.64253e-168
1.53868e-168
1.41426e-168
1.27687e-168
1.13203e-168
9.85059e-169
8.40797e-169
7.03428e-169
5.76333e-169
4.61962e-169
3.61868e-169
2.76694e-169
2.06257e-169
1.49722e-169
1.05725e-169
7.25353e-170
4.82938e-170
3.11689e-170
1.94767e-170
1.17607e-170
6.83955e-171
3.81139e-171
2.02283e-171
1.01436e-171
4.77161e-172
2.09279e-172
8.52573e-173
3.22368e-173
1.13606e-173
3.75037e-174
1.15527e-174
3.25307e-175
8.17174e-176
1.80426e-176
3.50401e-177
6.04398e-178
9.23498e-179
1.22936e-179
1.40498e-180
1.37125e-181
1.142e-182
8.11584e-184
4.92562e-185
2.55858e-186
1.14172e-187
4.39835e-189
1.47134e-190
4.30085e-192
1.10567e-193
2.51608e-195
5.50494e-197
1.17871e-198
2.46964e-200
5.06226e-202
1.01491e-203
1.98944e-205
3.81144e-207
7.13343e-209
1.30356e-210
2.32452e-212
4.04224e-214
6.8499e-216
1.13026e-217
1.8144e-219
2.83101e-221
4.2891e-223
6.30281e-225
8.97287e-227
1.23596e-228
1.64494e-230
2.11217e-232
2.61237e-234
3.10678e-236
3.54597e-238
3.87624e-240
4.04912e-242
4.03197e-244
3.81685e-246
3.42473e-248
2.90298e-250
2.31606e-252
1.73198e-254
1.20831e-256
7.82218e-259
4.6698e-261
2.5524e-263
1.26635e-265
5.64452e-268
2.23179e-270
7.70308e-273
2.27292e-275
5.57253e-278
1.0895e-280
1.59212e-283
1.54565e-286
7.48102e-290
9.13247e-290
1.89237e-286
1.94953e-283
1.33309e-280
6.8106e-278
2.77407e-275
9.38732e-273
2.71541e-270
6.85637e-268
1.53564e-265
3.08992e-263
5.64362e-261
9.43726e-259
1.45532e-256
2.0825e-254
2.78012e-252
3.47882e-250
4.09728e-248
4.55892e-246
4.80804e-244
4.82071e-242
4.6075e-240
4.20824e-238
3.68122e-236
3.09055e-234
2.49491e-232
1.94001e-230
1.45541e-228
1.05499e-226
7.39915e-225
5.02744e-223
3.31324e-221
2.12019e-219
1.31871e-217
7.97959e-216
4.70153e-214
2.69939e-212
1.51136e-210
8.2572e-209
4.40463e-207
2.29522e-205
1.16889e-203
5.8201e-202
2.83424e-200
1.35021e-198
6.29382e-197
2.87093e-195
1.25929e-193
4.88377e-192
1.6637e-190
4.94599e-189
1.27519e-187
2.83516e-186
5.41008e-185
8.83054e-184
1.23069e-182
1.46392e-181
1.48659e-180
1.28993e-179
9.61729e-179
6.25476e-178
3.60706e-177
1.84824e-176
8.33207e-176
3.30374e-175
1.16958e-174
3.7874e-174
1.14516e-173
3.24413e-173
8.56655e-173
2.09983e-172
4.78177e-172
1.01549e-171
2.02347e-171
3.81017e-171
6.83375e-171
1.17458e-170
1.94465e-170
3.11153e-170
4.82069e-170
7.24056e-170
1.05548e-169
1.49501e-169
2.06017e-169
2.76479e-169
3.61768e-169
4.62134e-169
5.77024e-169
7.05015e-169
8.43822e-169
9.90282e-169
1.14052e-168
1.29015e-168
1.43448e-168
1.56873e-168
1.685e-168
1.74261e-168
1.45363e-168
2.03624e-169
4.58662e-178
2.80688e-175
6.5183e-167
4.18539e-166
4.93599e-166
4.78686e-166
4.48765e-166
4.13508e-166
3.74831e-166
3.34056e-166
2.92525e-166
2.51518e-166
2.12175e-166
1.75452e-166
1.42075e-166
1.12539e-166
8.70986e-167
6.57813e-167
4.84269e-167
3.47152e-167
2.42023e-167
1.63906e-167
1.07709e-167
6.86028e-168
4.22718e-168
2.51178e-168
1.43214e-168
7.78962e-169
4.01081e-169
1.94172e-169
8.78552e-170
3.70042e-170
1.44922e-170
5.29819e-171
1.8173e-171
5.82707e-172
1.71123e-172
4.49342e-173
1.03945e-173
2.11977e-174
3.84973e-175
6.20637e-176
8.7233e-177
1.0525e-177
1.08451e-178
9.53506e-180
7.14851e-181
4.56989e-182
2.49496e-183
1.1671e-184
4.69973e-186
1.63839e-187
4.97565e-189
1.32495e-190
3.11398e-192
7.00406e-194
1.54019e-195
3.31102e-197
6.95754e-199
1.42878e-200
2.8666e-202
5.61707e-204
1.07452e-205
2.00571e-207
3.65118e-209
6.47803e-211
1.11943e-212
1.88264e-214
3.0789e-216
4.89197e-218
7.54407e-220
1.12797e-221
1.63324e-223
2.2873e-225
3.09402e-227
4.03655e-229
5.07095e-231
6.12365e-233
7.09504e-235
7.87107e-237
8.34209e-239
8.42585e-241
8.08873e-243
7.35837e-245
6.32242e-247
5.11191e-249
3.8733e-251
2.73742e-253
1.79486e-255
1.08509e-257
6.00488e-260
3.01596e-262
1.36065e-264
5.44443e-267
1.90142e-269
5.67611e-272
1.40771e-274
2.78368e-277
4.11385e-280
4.0384e-283
1.97626e-286
2.44275e-286
5.00661e-283
5.10091e-280
3.44899e-277
1.74211e-274
7.01458e-272
2.34615e-269
6.70683e-267
1.67331e-264
3.70256e-262
7.35902e-260
1.32744e-257
2.19187e-255
3.33701e-253
4.71341e-251
6.20978e-249
7.66692e-247
8.90777e-245
9.77513e-243
1.01652e-240
1.00471e-238
9.46394e-237
8.51665e-235
7.33843e-233
6.06689e-231
4.8214e-229
3.68957e-227
2.72312e-225
1.94126e-223
1.33851e-221
8.93759e-220
5.7861e-218
3.63566e-216
2.21941e-214
1.31748e-212
7.6113e-211
4.28265e-209
2.34855e-207
1.25599e-205
6.55408e-204
3.33873e-202
1.66102e-200
8.07307e-199
3.83437e-197
1.78004e-195
8.0779e-194
3.58363e-192
1.52156e-190
5.69477e-189
1.86633e-187
5.32079e-186
1.31145e-184
2.77924e-183
5.04169e-182
7.8063e-181
1.03052e-179
1.1604e-178
1.11557e-177
9.16515e-177
6.46968e-176
3.98705e-175
2.18349e-174
1.06535e-173
4.58363e-173
1.73858e-172
5.90144e-172
1.83584e-171
5.34231e-171
1.45886e-170
3.71926e-170
8.81775e-170
1.94645e-169
4.01653e-169
7.79462e-169
1.43216e-168
2.51052e-168
4.22335e-168
6.85216e-168
1.07564e-167
1.6367e-167
2.41676e-167
3.46691e-167
4.83726e-167
6.57275e-167
8.70613e-167
1.12546e-166
1.42173e-166
1.75711e-166
2.12694e-166
2.52434e-166
2.94021e-166
3.36371e-166
3.78278e-166
4.18483e-166
4.55719e-166
4.87848e-166
5.03537e-166
4.21624e-166
6.19542e-167
2.32209e-175
1.02949e-172
1.456e-164
9.00672e-164
1.06004e-163
1.02875e-163
9.66253e-164
8.931e-164
8.13043e-164
7.28505e-164
6.42033e-164
5.56124e-164
4.73072e-164
3.9486e-164
3.23051e-164
2.58792e-164
2.02758e-164
1.55172e-164
1.15871e-164
8.4336e-165
5.97552e-165
4.11675e-165
2.75472e-165
1.78844e-165
1.12454e-165
6.82707e-166
3.98276e-166
2.22024e-166
1.17404e-166
5.85196e-167
2.73321e-167
1.19111e-167
4.83513e-168
1.83476e-168
6.54079e-169
2.1835e-169
6.68987e-170
1.83777e-170
4.45944e-171
9.56162e-172
1.83038e-172
3.1169e-173
4.63169e-174
5.90912e-175
6.44046e-176
5.99082e-177
4.74919e-178
3.20572e-179
1.84404e-180
9.06509e-182
3.82496e-183
1.39285e-184
4.40414e-186
1.21705e-187
2.95872e-189
6.85244e-191
1.54992e-192
3.42377e-194
7.38589e-196
1.55576e-197
3.19906e-199
6.41976e-201
1.25681e-202
2.39929e-204
4.46414e-206
8.09066e-208
1.42737e-209
2.44952e-211
4.08572e-213
6.61785e-215
1.03994e-216
1.58376e-218
2.33488e-220
3.3281e-222
4.58036e-224
6.07776e-226
7.76322e-228
9.52903e-230
1.1219e-231
1.26436e-233
1.36093e-235
1.39569e-237
1.36007e-239
1.25566e-241
1.09467e-243
8.97844e-246
6.89968e-248
4.9446e-250
3.28687e-252
2.01419e-254
1.12965e-256
5.74906e-259
2.62772e-261
1.06507e-263
3.76729e-266
1.13884e-268
2.85971e-271
5.7249e-274
8.56398e-277
8.50861e-280
4.21365e-283
5.28396e-283
1.07012e-279
1.07717e-276
7.19482e-274
3.5895e-271
1.42735e-268
4.71403e-266
1.33044e-263
3.27663e-261
7.1558e-259
1.40349e-256
2.49783e-254
4.06857e-252
6.10922e-250
8.50903e-248
1.10523e-245
1.34505e-243
1.54005e-241
1.66509e-239
1.70562e-237
1.66016e-235
1.53961e-233
1.36372e-231
1.15626e-229
9.40339e-228
7.34896e-226
5.52869e-224
4.01015e-222
2.80848e-220
1.90168e-218
1.2465e-216
7.91837e-215
4.87997e-213
2.92049e-211
1.69875e-209
9.61143e-208
5.2935e-206
2.83973e-204
1.4847e-202
7.56918e-201
3.76439e-199
1.82698e-197
8.65552e-196
4.00373e-194
1.80846e-192
7.97721e-191
3.4362e-189
1.41005e-187
5.08311e-186
1.59905e-184
4.36126e-183
1.02506e-181
2.0653e-180
3.55265e-179
5.20505e-178
6.49305e-177
6.90602e-176
6.27336e-175
4.87219e-174
3.25203e-173
1.89697e-172
9.85434e-172
4.57254e-171
1.87533e-170
6.79898e-170
2.21202e-169
6.60924e-169
1.85047e-168
4.86833e-168
1.19743e-167
2.74382e-167
5.86751e-167
1.17598e-166
2.22217e-166
3.98373e-166
6.82522e-166
1.12378e-165
1.78673e-165
2.7516e-165
4.11169e-165
5.96811e-165
8.42392e-165
1.1576e-164
1.55068e-164
2.02697e-164
2.58831e-164
3.23286e-164
3.95424e-164
4.74151e-164
5.57959e-164
6.44929e-164
7.32842e-164
8.19272e-164
9.01732e-164
9.7777e-164
1.04312e-163
1.07444e-163
9.02713e-164
1.38996e-164
8.72974e-173
2.95919e-170
2.51083e-162
1.49426e-161
1.75601e-161
1.70691e-161
1.60735e-161
1.49096e-161
1.36353e-161
1.22859e-161
1.08987e-161
9.5116e-162
8.16009e-162
6.87573e-162
5.68438e-162
4.60602e-162
3.65384e-162
2.83407e-162
2.147e-162
1.58695e-162
1.14296e-162
8.01167e-163
5.45961e-163
3.61326e-163
2.3185e-163
1.43812e-163
8.58419e-164
4.905e-164
2.66435e-164
1.36798e-164
6.60012e-165
2.97849e-165
1.25424e-165
4.94311e-166
1.8321e-166
6.36883e-167
2.03663e-167
5.85881e-168
1.49335e-168
3.37115e-169
6.81023e-170
1.22634e-170
1.92943e-171
2.60751e-172
3.01239e-173
2.97159e-174
2.49733e-175
1.78468e-176
1.08468e-177
5.61953e-179
2.49177e-180
9.50585e-182
3.13865e-183
9.02681e-185
2.27621e-186
5.44225e-188
1.26928e-189
2.88798e-191
6.41059e-193
1.38815e-194
2.93182e-196
6.0381e-198
1.21224e-199
2.37157e-201
4.51892e-203
8.38212e-205
1.51261e-206
2.65369e-208
4.52266e-210
7.48147e-212
1.20011e-213
1.86491e-215
2.80418e-217
4.07512e-219
5.71594e-221
7.72719e-223
1.00523e-224
1.25626e-226
1.50542e-228
1.72633e-230
1.89025e-232
1.97146e-234
1.9533e-236
1.83307e-238
1.62403e-240
1.35338e-242
1.05648e-244
7.68937e-247
5.1902e-249
3.22894e-251
1.83817e-253
9.49387e-256
4.40308e-258
1.81057e-260
6.49619e-263
1.99166e-265
5.07148e-268
1.02938e-270
1.56105e-273
1.57207e-276
7.8901e-280
1.00543e-279
2.00892e-276
1.99481e-273
1.31421e-270
6.4661e-268
2.53537e-265
8.25539e-263
2.29672e-260
5.57492e-258
1.19977e-255
2.31846e-253
4.0647e-251
6.52085e-249
9.64187e-247
1.32216e-244
1.69042e-242
2.02454e-240
2.28072e-238
2.42562e-236
2.44348e-234
2.33836e-232
2.13153e-230
1.85525e-228
1.54527e-226
1.23417e-224
9.46928e-223
6.99146e-221
4.97515e-219
3.41708e-217
2.26824e-215
1.45691e-213
9.06503e-212
5.46946e-210
3.20304e-208
1.82218e-206
1.00777e-204
5.42215e-203
2.83981e-201
1.44858e-199
7.20006e-198
3.48845e-196
1.64804e-194
7.59346e-193
3.41283e-191
1.49631e-189
6.39951e-188
2.66957e-186
1.05576e-184
3.65509e-183
1.1004e-181
2.86251e-180
6.39635e-179
1.22164e-177
1.98696e-176
2.74708e-175
3.22979e-174
3.23695e-173
2.77255e-172
2.03192e-171
1.28056e-170
7.06243e-170
3.47599e-169
1.53176e-168
5.98019e-168
2.07037e-167
6.45363e-167
1.85165e-166
4.98628e-166
1.26304e-165
2.99471e-165
6.6267e-165
1.37182e-164
2.66915e-164
4.91005e-164
8.58762e-164
1.43795e-163
2.31726e-163
3.61029e-163
5.4541e-163
8.00267e-163
1.14165e-162
1.58524e-162
2.14506e-162
2.83224e-162
3.65268e-162
4.60644e-162
5.68779e-162
6.88405e-162
8.17586e-162
9.53803e-162
1.09396e-161
1.23457e-161
1.3719e-161
1.50219e-161
1.62181e-161
1.72419e-161
1.77214e-161
1.49339e-161
2.40772e-162
2.55809e-170
6.86156e-168
3.43922e-160
1.96701e-159
2.3088e-159
2.24891e-159
2.12413e-159
1.978e-159
1.8177e-159
1.64727e-159
1.47113e-159
1.29378e-159
1.11957e-159
9.5248e-160
7.95851e-160
6.52413e-160
5.24123e-160
4.12114e-160
3.16817e-160
2.3787e-160
1.74189e-160
1.24258e-160
8.62497e-161
5.8196e-161
3.81101e-161
2.4153e-161
1.47518e-161
8.6407e-162
4.82257e-162
2.55197e-162
1.2729e-162
5.95406e-163
2.60333e-163
1.06638e-163
4.11083e-164
1.48841e-164
4.97001e-165
1.49883e-165
4.01925e-166
9.56703e-167
2.04193e-167
3.8927e-168
6.4946e-169
9.31548e-170
1.14325e-170
1.19895e-171
1.07101e-172
8.12588e-174
5.23325e-175
2.86604e-176
1.33966e-177
5.37102e-179
1.85771e-180
5.57802e-182
1.46347e-183
3.6221e-185
8.73347e-187
2.05189e-188
4.69799e-190
1.04824e-191
2.2791e-193
4.8278e-195
9.96108e-197
2.00119e-198
3.91306e-200
7.44346e-202
1.37662e-203
2.47375e-205
4.31593e-207
7.30495e-209
1.19837e-210
1.90355e-212
2.92458e-214
4.3408e-216
6.2161e-218
8.57618e-220
1.13822e-221
1.45073e-223
1.77244e-225
2.07165e-227
2.31134e-229
2.45565e-231
2.47781e-233
2.36751e-235
2.13509e-237
1.81072e-239
1.43816e-241
1.06478e-243
7.30952e-246
4.62398e-248
2.67615e-250
1.40494e-252
6.62196e-255
2.76684e-257
1.00855e-259
3.14091e-262
8.1228e-265
1.67422e-267
2.57782e-270
2.63539e-273
1.34254e-276
1.7415e-276
3.4277e-273
3.35238e-270
2.17503e-267
1.05373e-264
4.0677e-262
1.30376e-259
3.56986e-257
8.52693e-255
1.80546e-252
3.43201e-250
5.91778e-248
9.33538e-246
1.35707e-243
1.82914e-241
2.29821e-239
2.70431e-237
2.99252e-235
3.12551e-233
3.09121e-231
2.90361e-229
2.59721e-227
2.21759e-225
1.8114e-223
1.41833e-221
1.06652e-219
7.71462e-218
5.37634e-216
3.61492e-214
2.34809e-212
1.4752e-210
8.97388e-209
5.29094e-207
3.02623e-205
1.6805e-203
9.06698e-202
4.75613e-200
2.42694e-198
1.20529e-196
5.8281e-195
2.74479e-193
1.25934e-191
5.62994e-190
2.45256e-188
1.04108e-186
4.30571e-185
1.73463e-183
6.59073e-182
2.18428e-180
6.27284e-179
1.55126e-177
3.28486e-176
5.92846e-175
9.08985e-174
1.18252e-172
1.30681e-171
1.23103e-170
9.92004e-170
6.84696e-169
4.06797e-168
2.1188e-167
9.86866e-167
4.12375e-166
1.53019e-165
5.0534e-165
1.50855e-164
4.15539e-164
1.07583e-163
2.62185e-163
5.98699e-163
1.27813e-162
2.55937e-162
4.83177e-162
8.65057e-162
1.47592e-161
2.41524e-161
3.80929e-161
5.81523e-161
8.61678e-161
1.24123e-160
1.73993e-160
2.37614e-160
3.16523e-160
4.11825e-160
5.23906e-160
6.52376e-160
7.96154e-160
9.53333e-160
1.12125e-159
1.29661e-159
1.47549e-159
1.65357e-159
1.82633e-159
1.98932e-159
2.13831e-159
2.26528e-159
2.32303e-159
1.96272e-159
3.31167e-160
6.02336e-168
1.30775e-165
3.80739e-158
2.0908e-157
2.45192e-157
2.39394e-157
2.26858e-157
2.12124e-157
1.95915e-157
1.78604e-157
1.60606e-157
1.42355e-157
1.24277e-157
1.06771e-157
9.01838e-158
7.4811e-158
6.08793e-158
4.85395e-158
3.78782e-158
2.88978e-158
2.15231e-158
1.56299e-158
1.10536e-158
7.60558e-159
5.08369e-159
3.29222e-159
2.05758e-159
1.23559e-159
7.08753e-160
3.86769e-160
1.99618e-160
9.68845e-161
4.40319e-161
1.87623e-161
7.52627e-162
2.83903e-162
9.90369e-163
3.13486e-163
8.85957e-164
2.22727e-164
5.02841e-165
1.01602e-165
1.80065e-166
2.74699e-167
3.58966e-168
4.01246e-169
3.82038e-170
3.08628e-171
2.11261e-172
1.22694e-173
6.0655e-175
2.56427e-176
9.32223e-178
2.93216e-179
8.03061e-181
2.06333e-182
5.15722e-184
1.2544e-185
2.96978e-187
6.84418e-189
1.53543e-190
3.35279e-192
7.12481e-194
1.47302e-195
2.96183e-197
5.78938e-199
1.09951e-200
2.02764e-202
3.62836e-204
6.29527e-206
1.0581e-207
1.72117e-209
2.70676e-211
4.11049e-213
6.02008e-215
8.49122e-217
1.15169e-218
1.4996e-220
1.87112e-222
2.23279e-224
2.54253e-226
2.75625e-228
2.83694e-230
2.76435e-232
2.54172e-234
2.1972e-236
1.77843e-238
1.34154e-240
9.38117e-243
6.04394e-245
3.56177e-247
1.90364e-249
9.13279e-252
3.88343e-254
1.44035e-256
4.56345e-259
1.20044e-261
2.51638e-264
3.93984e-267
4.09509e-270
2.12066e-273
2.80587e-273
5.43188e-270
5.22449e-267
3.333e-264
1.5875e-261
6.02391e-259
1.89759e-256
5.10575e-254
1.1982e-251
2.49216e-249
4.65275e-247
7.87788e-245
1.22008e-242
1.74089e-240
2.30273e-238
2.83866e-236
3.2765e-234
3.55562e-232
3.64096e-230
3.52962e-228
3.2488e-226
2.84677e-224
2.38043e-222
1.90363e-220
1.45879e-218
1.0732e-216
7.5921e-215
5.17249e-213
3.39859e-211
2.15632e-209
1.32265e-207
7.85159e-206
4.5151e-204
2.5174e-202
1.36191e-200
7.15417e-199
3.65127e-197
1.81147e-195
8.73998e-194
4.10236e-192
1.87377e-190
8.32984e-189
3.60438e-187
1.51808e-185
6.22268e-184
2.4819e-182
9.62859e-181
3.50294e-179
1.10752e-177
3.02341e-176
7.08316e-175
1.41652e-173
2.40783e-172
3.46932e-171
4.2342e-170
4.38594e-169
3.87337e-168
2.9296e-167
1.90028e-166
1.06256e-165
5.22072e-165
2.29835e-164
9.09181e-164
3.2009e-163
1.00715e-162
2.87799e-162
7.60894e-162
1.89305e-161
4.43476e-161
9.74242e-161
2.00447e-160
3.87912e-160
7.10152e-160
1.23709e-159
2.05875e-159
3.29231e-159
5.0816e-159
7.60007e-159
1.10433e-158
1.5613e-158
2.14985e-158
2.88656e-158
3.78404e-158
4.85005e-158
6.08455e-158
7.4792e-158
9.01943e-158
1.06829e-157
1.24407e-157
1.42583e-157
1.60962e-157
1.79116e-157
1.96609e-157
2.13019e-157
2.27956e-157
2.40627e-157
2.46181e-157
2.08435e-157
3.67979e-158
1.16259e-165
2.07402e-163
3.44026e-156
1.81199e-155
2.12387e-155
2.07895e-155
1.97694e-155
1.8565e-155
1.72356e-155
1.58088e-155
1.43161e-155
1.2791e-155
1.12675e-155
9.77773e-156
8.35051e-156
7.01146e-156
5.78143e-156
4.6757e-156
3.70524e-156
2.8736e-156
2.17785e-156
1.61073e-156
1.16111e-156
8.14974e-157
5.56162e-157
3.68094e-157
2.35433e-157
1.44961e-157
8.54834e-158
4.81357e-158
2.57312e-158
1.29737e-158
6.1365e-159
2.72296e-159
1.13732e-159
4.47108e-160
1.6303e-160
5.42386e-161
1.61868e-161
4.30569e-162
1.02951e-162
2.20739e-163
4.16348e-164
6.77142e-165
9.44503e-166
1.12828e-166
1.14832e-167
9.90744e-169
7.23132e-170
4.46863e-171
2.34458e-172
1.04892e-173
4.02246e-175
1.33008e-176
3.81616e-178
1.0209e-179
2.65265e-181
6.69764e-183
1.64382e-184
3.92258e-186
9.10153e-188
2.05342e-189
4.5042e-191
9.6038e-193
1.98988e-194
4.00498e-196
7.82631e-198
1.48407e-199
2.729e-201
4.8628e-203
8.38954e-205
1.40008e-206
2.25779e-208
3.51427e-210
5.27308e-212
7.61685e-214
1.05759e-215
1.4092e-217
1.79873e-219
2.19502e-221
2.55533e-223
2.83112e-225
2.97735e-227
2.96342e-229
2.78251e-231
2.45574e-233
2.02884e-235
1.56177e-237
1.11424e-239
7.32245e-242
4.40079e-244
2.39824e-246
1.17293e-248
5.08354e-251
1.92143e-253
6.20266e-256
1.66219e-258
3.54895e-261
5.65869e-264
5.98887e-267
3.15734e-270
4.27101e-270
8.11999e-267
7.66886e-264
4.8033e-261
2.24577e-258
8.36385e-256
2.58544e-253
6.82527e-251
1.57124e-248
3.20523e-246
5.86789e-244
9.74059e-242
1.47869e-239
2.0677e-237
2.6797e-235
3.23583e-233
3.6577e-231
3.88626e-229
3.89527e-227
3.69519e-225
3.32733e-223
2.8514e-221
2.3311e-219
1.82196e-217
1.36412e-215
9.80127e-214
6.76921e-212
4.50062e-210
2.88455e-208
1.78443e-206
1.06666e-204
6.16747e-203
3.45259e-201
1.87284e-199
9.85136e-198
5.0282e-196
2.49167e-194
1.19932e-192
5.60935e-191
2.55003e-189
1.12699e-187
4.84257e-186
2.0231e-184
8.21662e-183
3.24346e-181
1.24398e-179
4.63331e-178
1.6082e-176
4.83287e-175
1.24945e-173
2.76278e-172
5.19901e-171
8.2944e-170
1.11936e-168
1.27768e-167
1.2369e-166
1.02131e-165
7.23213e-165
4.39815e-164
2.31014e-163
1.0695e-162
4.44465e-162
1.66136e-161
5.53859e-161
1.65815e-160
4.53325e-160
1.14996e-159
2.74756e-159
6.1806e-159
1.3046e-158
2.58383e-158
4.8279e-158
8.56553e-158
1.45145e-157
2.35576e-157
3.68113e-157
5.55941e-157
8.14384e-157
1.16001e-156
1.60895e-156
2.17526e-156
2.87021e-156
3.7012e-156
4.67136e-156
5.77726e-156
7.00816e-156
8.34913e-156
9.77957e-156
1.12742e-155
1.28044e-155
1.43378e-155
1.58407e-155
1.72788e-155
1.86203e-155
1.98365e-155
2.08629e-155
2.12917e-155
1.80549e-155
3.33595e-156
1.86362e-163
2.75806e-161
2.54726e-154
1.28465e-153
1.50571e-153
1.47785e-153
1.41042e-153
1.33036e-153
1.24169e-153
1.14604e-153
1.04531e-153
9.41621e-154
8.37123e-154
7.33913e-154
6.33921e-154
5.38922e-154
4.50436e-154
3.69667e-154
2.97636e-154
2.34799e-154
1.81192e-154
1.36576e-154
1.00416e-154
7.19391e-155
5.01447e-155
3.3928e-155
2.22123e-155
1.40253e-155
8.50491e-156
4.94498e-156
2.74066e-156
1.43744e-156
7.08671e-157
3.27923e-157
1.42741e-157
5.85083e-158
2.23131e-158
7.81423e-159
2.46817e-159
6.96118e-160
1.76514e-160
4.02119e-161
8.08947e-162
1.40632e-162
2.09926e-163
2.68752e-164
2.93271e-165
2.71101e-166
2.11707e-167
1.397e-168
7.80809e-170
3.71069e-171
1.50683e-172
5.25811e-174
1.58638e-175
4.43282e-177
1.20095e-178
3.15658e-180
8.05312e-182
1.99487e-183
4.79911e-185
1.12134e-186
2.54474e-188
5.60813e-190
1.19996e-191
2.49199e-193
5.02086e-195
9.80932e-197
1.85723e-198
3.40529e-200
6.04169e-202
1.03631e-203
1.71677e-205
2.74375e-207
4.22529e-209
6.26131e-211
8.91513e-213
1.2177e-214
1.59269e-216
1.9909e-218
2.37337e-220
2.69184e-222
2.89711e-224
2.95018e-226
2.83333e-228
2.55703e-230
2.15968e-232
1.69919e-234
1.23876e-236
8.31685e-239
5.10543e-241
2.84123e-243
1.41877e-245
6.27698e-248
2.42143e-250
7.97645e-253
2.18083e-255
4.74978e-258
7.72411e-261
8.33612e-264
4.48075e-267
6.21353e-267
1.15839e-263
1.07265e-260
6.58603e-258
3.01812e-255
1.10151e-252
3.33622e-250
8.62776e-248
1.94535e-245
3.88607e-243
6.96535e-241
1.13179e-238
1.68147e-236
2.30055e-234
2.91652e-232
3.44426e-230
3.80665e-228
3.95347e-226
3.87238e-224
3.58879e-222
3.15608e-220
2.64069e-218
2.10708e-216
1.60684e-214
1.17338e-212
8.21965e-211
5.53244e-209
3.5832e-207
2.23613e-205
1.34625e-203
7.82772e-202
4.40006e-200
2.39323e-198
1.26053e-196
6.43384e-195
3.18416e-193
1.52878e-191
7.12362e-190
3.22253e-188
1.41557e-186
6.03877e-185
2.50182e-183
1.00649e-181
3.93106e-180
1.49007e-178
5.47878e-177
1.95281e-175
6.44178e-174
1.83271e-172
4.46927e-171
9.29038e-170
1.63869e-168
2.44456e-167
3.07909e-166
3.27621e-165
2.95504e-164
2.2749e-163
1.5042e-162
8.55336e-162
4.21132e-161
1.83479e-160
7.18817e-160
2.53345e-159
7.97974e-159
2.26968e-158
5.93319e-158
1.44344e-157
3.309e-157
7.13752e-157
1.4454e-156
2.75199e-156
4.95967e-156
8.52211e-156
1.40434e-155
2.22261e-155
3.393e-155
5.01243e-155
7.18858e-155
1.00319e-154
1.36419e-154
1.80967e-154
2.34505e-154
2.97283e-154
3.69276e-154
4.50034e-154
5.3855e-154
6.33642e-154
7.33799e-154
8.37267e-154
9.4212e-154
1.04625e-153
1.1475e-153
1.24372e-153
1.33298e-153
1.41358e-153
1.48123e-153
1.50775e-153
1.27972e-153
2.47737e-154
2.50139e-161
3.0874e-159
1.54327e-152
7.42952e-152
8.71204e-152
8.57517e-152
8.21434e-152
7.7833e-152
7.30424e-152
6.78476e-152
6.23413e-152
5.66289e-152
5.08208e-152
4.50258e-152
3.9347e-152
3.38819e-152
2.87183e-152
2.393e-152
1.95903e-152
1.57334e-152
1.23743e-152
9.51522e-153
7.14267e-153
5.2276e-153
3.72464e-153
2.57767e-153
1.72797e-153
1.11916e-153
6.98077e-154
4.19377e-154
2.4126e-154
1.3183e-154
6.78727e-155
3.28134e-155
1.49052e-155
6.37446e-156
2.54435e-156
9.39571e-157
3.14901e-157
9.4404e-158
2.54256e-158
6.16276e-159
1.32559e-159
2.47072e-160
3.95801e-161
5.44665e-162
6.39347e-163
6.35419e-164
5.32837e-165
3.76902e-166
2.25303e-167
1.14205e-168
4.93113e-170
1.8234e-171
5.80842e-173
1.70111e-174
4.82072e-176
1.32299e-177