/*--------------------------------*- C++ -*----------------------------------*\
| =========                 |                                                 |
| \\      /  F ield         | OpenFOAM: The Open Source CFD Toolbox           |
|  \\    /   O peration     | Version:  2412                                  |
|   \\  /    A nd           | Website:  www.openfoam.com                      |
|    \\/     M anipulation  |                                                 |
\*---------------------------------------------------------------------------*/
FoamFile
{
    version     2.0;
    format      ascii;
    arch        "LSB;label=32;scalar=64";
    class       surfaceScalarField;
    location    "1.18";
    object      phi;
}
// * * * * * * * * * * * * * * * * * * * * * * * * * * * * * * * * * * * * * //

dimensions      [0 3 -1 0 0 0 0];

oriented        oriented;

internalField   nonuniform List<scalar> 
79600
(
2.03025e-11
-2.02674e-11
5.32412e-11
-3.29379e-11
9.00128e-11
-3.67698e-11
1.28195e-10
-3.81807e-11
1.66945e-10
-3.87506e-11
2.05834e-10
-3.88908e-11
2.44631e-10
-3.87975e-11
2.83234e-10
-3.86016e-11
3.21591e-10
-3.83567e-11
3.59677e-10
-3.80856e-11
3.97471e-10
-3.77935e-11
4.3495e-10
-3.74789e-11
4.72091e-10
-3.71412e-11
5.08871e-10
-3.67796e-11
5.45263e-10
-3.63928e-11
5.81243e-10
-3.59798e-11
6.16783e-10
-3.55397e-11
6.51856e-10
-3.50721e-11
6.86433e-10
-3.45766e-11
7.20487e-10
-3.40532e-11
7.53989e-10
-3.35014e-11
7.8691e-10
-3.2921e-11
8.19221e-10
-3.23117e-11
8.50894e-10
-3.16733e-11
8.819e-10
-3.10056e-11
9.12209e-10
-3.03088e-11
9.41793e-10
-2.95829e-11
9.70621e-10
-2.88281e-11
9.98666e-10
-2.80443e-11
1.0259e-09
-2.72315e-11
1.05229e-09
-2.639e-11
1.07781e-09
-2.55197e-11
1.10243e-09
-2.4621e-11
1.12612e-09
-2.3694e-11
1.14886e-09
-2.2739e-11
1.17062e-09
-2.17559e-11
1.19136e-09
-2.0745e-11
1.21107e-09
-1.97066e-11
1.22971e-09
-1.86411e-11
1.24726e-09
-1.75491e-11
1.26369e-09
-1.6431e-11
1.27897e-09
-1.52873e-11
1.29309e-09
-1.41184e-11
1.30602e-09
-1.29248e-11
1.31772e-09
-1.17074e-11
1.32819e-09
-1.04673e-11
1.3374e-09
-9.20541e-12
1.34532e-09
-7.92291e-12
1.35194e-09
-6.6206e-12
1.35724e-09
-5.29923e-12
1.3612e-09
-3.95943e-12
1.3638e-09
-2.6016e-12
1.36503e-09
-1.22527e-12
1.36486e-09
1.65355e-13
1.36328e-09
1.58444e-12
1.36028e-09
2.99759e-12
1.35586e-09
4.41796e-12
1.35002e-09
5.84401e-12
1.34274e-09
7.27551e-12
1.33403e-09
8.71132e-12
1.32388e-09
1.01498e-11
1.31229e-09
1.15892e-11
1.29927e-09
1.30276e-11
1.2848e-09
1.44631e-11
1.26891e-09
1.58936e-11
1.25159e-09
1.73172e-11
1.23286e-09
1.87319e-11
1.21273e-09
2.01357e-11
1.1912e-09
2.15265e-11
1.1683e-09
2.29022e-11
1.14404e-09
2.42605e-11
1.11844e-09
2.55992e-11
1.09153e-09
2.69163e-11
1.06332e-09
2.82097e-11
1.03384e-09
2.94774e-11
1.00312e-09
3.07173e-11
9.71193e-10
3.19274e-11
9.38087e-10
3.31054e-11
9.03838e-10
3.42493e-11
8.68481e-10
3.5357e-11
8.32055e-10
3.64264e-11
7.94599e-10
3.74555e-11
7.56156e-10
3.84425e-11
7.16771e-10
3.93855e-11
6.76488e-10
4.02829e-11
6.35356e-10
4.11329e-11
5.93423e-10
4.19338e-11
5.50739e-10
4.2684e-11
5.07358e-10
4.3382e-11
4.63331e-10
4.40266e-11
4.18715e-10
4.46167e-11
3.73564e-10
4.51513e-11
3.27936e-10
4.56293e-11
2.81888e-10
4.60495e-11
2.35478e-10
4.6411e-11
1.88765e-10
4.67132e-11
1.4181e-10
4.69555e-11
9.46728e-11
4.71373e-11
4.74143e-11
4.7258e-11
9.70127e-14
4.73168e-11
-4.722e-11
4.73168e-11
-9.44779e-11
4.72582e-11
-1.41615e-10
4.71376e-11
-1.8857e-10
4.69559e-11
-2.35283e-10
4.67136e-11
-2.81694e-10
4.64113e-11
-3.27744e-10
4.60498e-11
-3.73373e-10
4.56299e-11
-4.18526e-10
4.51523e-11
-4.63144e-10
4.46181e-11
-5.07171e-10
4.40282e-11
-5.50555e-10
4.33838e-11
-5.9324e-10
4.26863e-11
-6.35176e-10
4.19367e-11
-6.76311e-10
4.11362e-11
-7.16597e-10
4.02864e-11
-7.55986e-10
3.93896e-11
-7.94432e-10
3.8447e-11
-8.31891e-10
3.74601e-11
-8.68323e-10
3.64309e-11
-9.03685e-10
3.53616e-11
-9.37939e-10
3.42541e-11
-9.7105e-10
3.31106e-11
-1.00298e-09
3.1933e-11
-1.03371e-09
3.07232e-11
-1.06319e-09
2.94836e-11
-1.09141e-09
2.82164e-11
-1.11833e-09
2.6923e-11
-1.14393e-09
2.56058e-11
-1.1682e-09
2.42672e-11
-1.19111e-09
2.29091e-11
-1.21264e-09
2.15336e-11
-1.23279e-09
2.01436e-11
-1.25153e-09
1.87406e-11
-1.26885e-09
1.73263e-11
-1.28476e-09
1.59032e-11
-1.29923e-09
1.44741e-11
-1.31227e-09
1.30399e-11
-1.32387e-09
1.16017e-11
-1.33403e-09
1.01629e-11
-1.34276e-09
8.72507e-12
-1.35005e-09
7.28924e-12
-1.3559e-09
5.85695e-12
-1.36033e-09
4.42951e-12
-1.36334e-09
3.00805e-12
-1.36493e-09
1.59404e-12
-1.3651e-09
1.74106e-13
-1.36388e-09
-1.21772e-12
-1.36129e-09
-2.59333e-12
-1.35734e-09
-3.94986e-12
-1.35205e-09
-5.28874e-12
-1.34544e-09
-6.60876e-12
-1.33753e-09
-7.90894e-12
-1.32834e-09
-9.18908e-12
-1.31789e-09
-1.04488e-11
-1.3062e-09
-1.16875e-11
-1.2933e-09
-1.29038e-11
-1.2792e-09
-1.40969e-11
-1.26393e-09
-1.52664e-11
-1.24752e-09
-1.6411e-11
-1.22999e-09
-1.75299e-11
-1.21137e-09
-1.86222e-11
-1.19168e-09
-1.96873e-11
-1.17095e-09
-2.07251e-11
-1.14922e-09
-2.17354e-11
-1.1265e-09
-2.27179e-11
-1.10283e-09
-2.36723e-11
-1.07823e-09
-2.45984e-11
-1.05274e-09
-2.5496e-11
-1.02637e-09
-2.63655e-11
-9.9916e-10
-2.72064e-11
-9.71141e-10
-2.80185e-11
-9.42339e-10
-2.88016e-11
-9.12785e-10
-2.95547e-11
-8.82508e-10
-3.02767e-11
-8.5154e-10
-3.09682e-11
-8.19909e-10
-3.16304e-11
-7.87644e-10
-3.2264e-11
-7.54772e-10
-3.28705e-11
-7.21324e-10
-3.34502e-11
-6.87324e-10
-3.40007e-11
-6.52803e-10
-3.4521e-11
-6.17791e-10
-3.50114e-11
-5.82321e-10
-3.54713e-11
-5.46419e-10
-3.59013e-11
-5.10118e-10
-3.63026e-11
-4.73443e-10
-3.6676e-11
-4.36422e-10
-3.70209e-11
-3.99083e-10
-3.73393e-11
-3.61454e-10
-3.76303e-11
-3.23562e-10
-3.78918e-11
-2.85437e-10
-3.81252e-11
-2.47109e-10
-3.83273e-11
-2.08611e-10
-3.84973e-11
-1.6998e-10
-3.86328e-11
-1.31265e-10
-3.87144e-11
-9.26058e-11
-3.86587e-11
-5.46173e-11
-3.79883e-11
-2.02277e-11
-3.43942e-11
-2.02322e-11
3.56098e-11
-5.58765e-11
9.19492e-11
-8.92764e-11
1.52086e-10
-9.69058e-11
2.13001e-10
-9.90949e-11
2.74246e-10
-9.99945e-11
3.35596e-10
-1.0024e-10
3.96882e-10
-1.00084e-10
4.57979e-10
-9.96996e-11
5.18802e-10
-9.9178e-11
5.79279e-10
-9.85623e-11
6.39356e-10
-9.78698e-11
6.98983e-10
-9.71052e-11
7.58112e-10
-9.62705e-11
8.16699e-10
-9.53661e-11
8.74698e-10
-9.43916e-11
9.32065e-10
-9.33464e-11
9.88756e-10
-9.22296e-11
1.04473e-09
-9.10406e-11
1.09993e-09
-8.9779e-11
1.15432e-09
-8.84443e-11
1.20786e-09
-8.70357e-11
1.26049e-09
-8.55529e-11
1.31217e-09
-8.39952e-11
1.36286e-09
-8.23623e-11
1.41251e-09
-8.0654e-11
1.46107e-09
-7.88703e-11
1.5085e-09
-7.70111e-11
1.55475e-09
-7.50765e-11
1.59977e-09
-7.30666e-11
1.64352e-09
-7.09816e-11
1.68596e-09
-6.88215e-11
1.72702e-09
-6.65867e-11
1.76668e-09
-6.42774e-11
1.80488e-09
-6.18937e-11
1.84157e-09
-5.94361e-11
1.87672e-09
-5.69049e-11
1.91027e-09
-5.43008e-11
1.94219e-09
-5.16247e-11
1.97243e-09
-4.88775e-11
2.00094e-09
-4.60602e-11
2.02768e-09
-4.31739e-11
2.05261e-09
-4.02196e-11
2.07569e-09
-3.71986e-11
2.09688e-09
-3.41127e-11
2.11614e-09
-3.09639e-11
2.13343e-09
-2.77545e-11
2.14871e-09
-2.44868e-11
2.16195e-09
-2.11629e-11
2.17311e-09
-1.77852e-11
2.18217e-09
-1.43558e-11
2.18909e-09
-1.08776e-11
2.19384e-09
-7.35323e-12
2.1964e-09
-3.78535e-12
2.19674e-09
-1.76264e-13
2.19485e-09
3.47274e-12
2.1907e-09
7.14778e-12
2.18427e-09
1.08476e-11
2.17554e-09
1.45696e-11
2.16451e-09
1.83103e-11
2.15116e-09
2.20656e-11
2.13548e-09
2.5831e-11
2.11747e-09
2.96016e-11
2.09712e-09
3.33729e-11
2.07445e-09
3.71398e-11
2.04944e-09
4.08973e-11
2.02212e-09
4.46404e-11
1.99249e-09
4.83634e-11
1.96057e-09
5.20607e-11
1.92637e-09
5.57265e-11
1.88992e-09
5.93551e-11
1.85124e-09
6.29407e-11
1.81036e-09
6.64778e-11
1.76731e-09
6.9961e-11
1.72214e-09
7.33845e-11
1.67487e-09
7.67428e-11
1.62556e-09
8.00298e-11
1.57425e-09
8.32397e-11
1.52099e-09
8.63666e-11
1.46583e-09
8.94048e-11
1.40884e-09
9.23488e-11
1.35007e-09
9.5193e-11
1.2896e-09
9.79322e-11
1.22748e-09
1.00561e-10
1.16379e-09
1.03074e-10
1.09861e-09
1.05467e-10
1.032e-09
1.07735e-10
9.64067e-10
1.09872e-10
8.94876e-10
1.11876e-10
8.24517e-10
1.13741e-10
7.53079e-10
1.15465e-10
6.80653e-10
1.17044e-10
6.07332e-10
1.18475e-10
5.33209e-10
1.19754e-10
4.58381e-10
1.20878e-10
3.82947e-10
1.21847e-10
3.07004e-10
1.22656e-10
2.30654e-10
1.23305e-10
1.53997e-10
1.23793e-10
7.71356e-11
1.24119e-10
1.72204e-13
1.2428e-10
-7.67909e-11
1.24281e-10
-1.53651e-10
1.2412e-10
-2.30308e-10
1.23795e-10
-3.06659e-10
1.23307e-10
-3.82602e-10
1.22657e-10
-4.58038e-10
1.21847e-10
-5.32867e-10
1.20879e-10
-6.06992e-10
1.19755e-10
-6.80315e-10
1.18477e-10
-7.52744e-10
1.17047e-10
-8.24183e-10
1.15469e-10
-8.94544e-10
1.13746e-10
-9.63738e-10
1.11881e-10
-1.03168e-09
1.09879e-10
-1.09828e-09
1.07742e-10
-1.16347e-09
1.05475e-10
-1.22716e-09
1.03082e-10
-1.28928e-09
1.0057e-10
-1.34976e-09
9.79413e-11
-1.40854e-09
9.52021e-11
-1.46553e-09
9.23582e-11
-1.5207e-09
8.94149e-11
-1.57396e-09
8.63775e-11
-1.62528e-09
8.32514e-11
-1.6746e-09
8.00423e-11
-1.72187e-09
7.67562e-11
-1.76705e-09
7.3399e-11
-1.81011e-09
6.99756e-11
-1.85099e-09
6.64917e-11
-1.88968e-09
6.29543e-11
-1.92614e-09
5.93692e-11
-1.96035e-09
5.57414e-11
-1.99228e-09
5.20763e-11
-2.02192e-09
4.83806e-11
-2.04925e-09
4.46597e-11
-2.07426e-09
4.09181e-11
-2.09695e-09
3.71618e-11
-2.11731e-09
3.33962e-11
-2.13533e-09
2.9626e-11
-2.15102e-09
2.58561e-11
-2.16439e-09
2.20917e-11
-2.17543e-09
1.83366e-11
-2.18417e-09
1.45955e-11
-2.19061e-09
1.08725e-11
-2.19477e-09
7.17081e-12
-2.19667e-09
3.49366e-12
-2.19634e-09
-1.56959e-13
-2.19379e-09
-3.76734e-12
-2.18904e-09
-7.3348e-12
-2.18214e-09
-1.08572e-11
-2.17309e-09
-1.43328e-11
-2.16194e-09
-1.7759e-11
-2.14871e-09
-2.11332e-11
-2.13345e-09
-2.4454e-11
-2.11618e-09
-2.77191e-11
-2.09693e-09
-3.09263e-11
-2.07576e-09
-3.40736e-11
-2.0527e-09
-3.71588e-11
-2.02779e-09
-4.01799e-11
-2.00106e-09
-4.31343e-11
-1.97257e-09
-4.60212e-11
-1.94235e-09
-4.88393e-11
-1.91045e-09
-5.15866e-11
-1.87692e-09
-5.42619e-11
-1.84179e-09
-5.68648e-11
-1.80511e-09
-5.93948e-11
-1.76693e-09
-6.18506e-11
-1.7273e-09
-6.42326e-11
-1.68625e-09
-6.65404e-11
-1.64384e-09
-6.87741e-11
-1.60011e-09
-7.09336e-11
-1.55511e-09
-7.30185e-11
-1.50889e-09
-7.50267e-11
-1.46148e-09
-7.69571e-11
-1.41295e-09
-7.88097e-11
-1.36333e-09
-8.05856e-11
-1.31267e-09
-8.22855e-11
-1.26103e-09
-8.3912e-11
-1.20843e-09
-8.54658e-11
-1.15494e-09
-8.69463e-11
-1.10059e-09
-8.83515e-11
-1.04543e-09
-8.96817e-11
-9.89501e-10
-9.09361e-11
-9.32859e-10
-9.21141e-11
-8.75544e-10
-9.32176e-11
-8.17603e-10
-9.42466e-11
-7.59076e-10
-9.52017e-11
-7.00011e-10
-9.6086e-11
-6.40451e-10
-9.68999e-11
-5.80437e-10
-9.76426e-11
-5.20019e-10
-9.83128e-11
-4.59234e-10
-9.89085e-11
-3.9813e-10
-9.94294e-11
-3.36752e-10
-9.98757e-11
-2.75139e-10
-1.00245e-10
-2.13342e-10
-1.00513e-10
-1.51488e-10
-1.0051e-10
-9.03336e-11
-9.91337e-11
-3.40411e-11
-9.0677e-11
-5.4274e-11
3.86911e-11
-9.45656e-11
1.00813e-10
-1.51397e-10
1.66922e-10
-1.63015e-10
2.33265e-10
-1.65439e-10
2.99494e-10
-1.66223e-10
3.65617e-10
-1.66363e-10
4.31613e-10
-1.66079e-10
4.97412e-10
-1.65497e-10
5.62938e-10
-1.64704e-10
6.28124e-10
-1.63748e-10
6.92905e-10
-1.62651e-10
7.57225e-10
-1.61424e-10
8.21028e-10
-1.60073e-10
8.84262e-10
-1.586e-10
9.46878e-10
-1.57006e-10
1.00882e-09
-1.55292e-10
1.07005e-09
-1.53456e-10
1.13051e-09
-1.515e-10
1.19015e-09
-1.49421e-10
1.24893e-09
-1.4722e-10
1.30679e-09
-1.44896e-10
1.36369e-09
-1.42448e-10
1.41957e-09
-1.39876e-10
1.47438e-09
-1.37178e-10
1.52809e-09
-1.34356e-10
1.58062e-09
-1.31408e-10
1.63195e-09
-1.28334e-10
1.68201e-09
-1.25134e-10
1.73075e-09
-1.21809e-10
1.77813e-09
-1.18359e-10
1.82409e-09
-1.14783e-10
1.86858e-09
-1.11083e-10
1.91156e-09
-1.07258e-10
1.95298e-09
-1.03308e-10
1.99277e-09
-9.9235e-11
2.03091e-09
-9.50387e-11
2.06733e-09
-9.07206e-11
2.10198e-09
-8.6282e-11
2.13483e-09
-8.17242e-11
2.16582e-09
-7.7049e-11
2.1949e-09
-7.22578e-11
2.22204e-09
-6.73527e-11
2.24717e-09
-6.2336e-11
2.27027e-09
-5.72105e-11
2.29129e-09
-5.19793e-11
2.31018e-09
-4.66459e-11
2.32691e-09
-4.12136e-11
2.34143e-09
-3.56861e-11
2.35371e-09
-3.00671e-11
2.36371e-09
-2.4361e-11
2.37141e-09
-1.85724e-11
2.37676e-09
-1.27066e-11
2.37975e-09
-6.76925e-12
2.38034e-09
-7.66636e-13
2.37851e-09
5.29715e-12
2.37424e-09
1.14162e-11
2.36751e-09
1.75839e-11
2.35828e-09
2.37934e-11
2.34656e-09
3.00374e-11
2.33232e-09
3.63083e-11
2.31555e-09
4.25985e-11
2.29625e-09
4.89002e-11
2.27442e-09
5.52054e-11
2.25005e-09
6.1506e-11
2.22316e-09
6.77934e-11
2.19374e-09
7.40588e-11
2.16181e-09
8.02929e-11
2.12739e-09
8.64861e-11
2.09048e-09
9.26291e-11
2.05113e-09
9.87122e-11
2.00934e-09
1.04726e-10
1.96516e-09
1.10661e-10
1.91861e-09
1.16508e-10
1.86974e-09
1.22256e-10
1.81859e-09
1.27897e-10
1.7652e-09
1.33419e-10
1.70962e-09
1.38813e-10
1.65192e-09
1.4407e-10
1.59215e-09
1.49179e-10
1.53037e-09
1.54131e-10
1.46664e-09
1.58917e-10
1.40105e-09
1.63527e-10
1.33366e-09
1.67952e-10
1.26455e-09
1.72185e-10
1.1938e-09
1.76215e-10
1.1215e-09
1.80035e-10
1.04774e-09
1.83637e-10
9.72596e-10
1.87015e-10
8.96176e-10
1.90161e-10
8.18572e-10
1.93069e-10
7.39884e-10
1.95733e-10
6.60213e-10
1.98147e-10
5.79663e-10
2.00305e-10
4.98338e-10
2.02203e-10
4.16347e-10
2.03838e-10
3.33798e-10
2.05205e-10
2.50801e-10
2.06302e-10
1.67467e-10
2.07127e-10
8.39085e-11
2.07678e-10
2.36015e-13
2.07953e-10
-8.34362e-11
2.07954e-10
-1.66995e-10
2.07679e-10
-2.50329e-10
2.07129e-10
-3.33326e-10
2.06305e-10
-4.15876e-10
2.05207e-10
-4.97868e-10
2.0384e-10
-5.79194e-10
2.02206e-10
-6.59746e-10
2.00308e-10
-7.39419e-10
1.98151e-10
-8.18109e-10
1.95738e-10
-8.95715e-10
1.93076e-10
-9.72136e-10
1.9017e-10
-1.04728e-09
1.87025e-10
-1.12105e-09
1.83647e-10
-1.19335e-09
1.80045e-10
-1.2641e-09
1.76226e-10
-1.33321e-09
1.72196e-10
-1.40061e-09
1.67964e-10
-1.46621e-09
1.63539e-10
-1.52993e-09
1.58929e-10
-1.59172e-09
1.54144e-10
-1.6515e-09
1.49193e-10
-1.70921e-09
1.44085e-10
-1.76478e-09
1.38829e-10
-1.81818e-09
1.33436e-10
-1.86934e-09
1.27915e-10
-1.91821e-09
1.22275e-10
-1.96476e-09
1.16528e-10
-2.00895e-09
1.10681e-10
-2.05075e-09
1.04746e-10
-2.09011e-09
9.87329e-11
-2.12702e-09
9.26504e-11
-2.16145e-09
8.65079e-11
-2.19339e-09
8.0316e-11
-2.22281e-09
7.40843e-11
-2.24971e-09
6.78212e-11
-2.27409e-09
6.1535e-11
-2.29592e-09
5.52357e-11
-2.31523e-09
4.89317e-11
-2.332e-09
4.26307e-11
-2.34625e-09
3.63409e-11
-2.35798e-09
3.007e-11
-2.36721e-09
2.38261e-11
-2.37396e-09
1.76166e-11
-2.37823e-09
1.14477e-11
-2.38006e-09
5.32685e-12
-2.37948e-09
-7.38109e-13
-2.37651e-09
-6.74132e-12
-2.37116e-09
-1.26788e-11
-2.36348e-09
-1.85431e-11
-2.35348e-09
-2.43288e-11
-2.34121e-09
-3.00315e-11
-2.32669e-09
-3.5647e-11
-2.30997e-09
-4.11717e-11
-2.29109e-09
-4.66014e-11
-2.27008e-09
-5.19325e-11
-2.24699e-09
-5.71623e-11
-2.22186e-09
-6.22869e-11
-2.19474e-09
-6.73031e-11
-2.16567e-09
-7.22078e-11
-2.13469e-09
-7.69992e-11
-2.10185e-09
-8.1675e-11
-2.0672e-09
-8.62329e-11
-2.0308e-09
-9.06711e-11
-1.99267e-09
-9.49878e-11
-1.95288e-09
-9.91824e-11
-1.91148e-09
-1.03254e-10
-1.86851e-09
-1.07202e-10
-1.82402e-09
-1.11026e-10
-1.77807e-09
-1.14725e-10
-1.7307e-09
-1.18301e-10
-1.68197e-09
-1.21751e-10
-1.63193e-09
-1.25073e-10
-1.58061e-09
-1.28269e-10
-1.52809e-09
-1.31336e-10
-1.47439e-09
-1.34277e-10
-1.41959e-09
-1.37092e-10
-1.36371e-09
-1.39785e-10
-1.30683e-09
-1.42353e-10
-1.24898e-09
-1.44798e-10
-1.19021e-09
-1.4712e-10
-1.13057e-09
-1.49317e-10
-1.07012e-09
-1.5139e-10
-1.00889e-09
-1.53339e-10
-9.46946e-10
-1.55164e-10
-8.84325e-10
-1.56867e-10
-8.21077e-10
-1.58448e-10
-7.57251e-10
-1.59912e-10
-6.92895e-10
-1.61256e-10
-6.28054e-10
-1.62481e-10
-5.62779e-10
-1.63588e-10
-4.97112e-10
-1.64572e-10
-4.31103e-10
-1.65438e-10
-3.64796e-10
-1.66183e-10
-2.98233e-10
-1.66806e-10
-2.3147e-10
-1.67276e-10
-1.64652e-10
-1.67334e-10
-9.85665e-11
-1.65223e-10
-3.75188e-11
-1.51724e-10
-9.17952e-11
3.86483e-11
-1.33213e-10
1.01486e-10
-2.14232e-10
1.69013e-10
-2.30542e-10
2.36783e-10
-2.3321e-10
3.04242e-10
-2.33682e-10
3.71442e-10
-2.33562e-10
4.38412e-10
-2.33048e-10
5.05129e-10
-2.32214e-10
5.7155e-10
-2.31124e-10
6.37618e-10
-2.29815e-10
7.03277e-10
-2.28309e-10
7.68472e-10
-2.26618e-10
8.33148e-10
-2.24748e-10
8.97253e-10
-2.22704e-10
9.60737e-10
-2.20488e-10
1.02355e-09
-2.18101e-10
1.08563e-09
-2.15542e-10
1.14695e-09
-2.12812e-10
1.20744e-09
-2.0991e-10
1.26705e-09
-2.06836e-10
1.32574e-09
-2.03588e-10
1.38346e-09
-2.00166e-10
1.44016e-09
-1.9657e-10
1.49578e-09
-1.92798e-10
1.55027e-09
-1.8885e-10
1.60359e-09
-1.84726e-10
1.65568e-09
-1.80425e-10
1.7065e-09
-1.75948e-10
1.75598e-09
-1.71294e-10
1.80409e-09
-1.66464e-10
1.85076e-09
-1.61457e-10
1.89595e-09
-1.56274e-10
1.93961e-09
-1.50916e-10
1.98168e-09
-1.45383e-10
2.02212e-09
-1.39675e-10
2.06087e-09
-1.33794e-10
2.09789e-09
-1.27741e-10
2.13313e-09
-1.21519e-10
2.16653e-09
-1.15128e-10
2.19806e-09
-1.08571e-10
2.22765e-09
-1.01851e-10
2.25527e-09
-9.49706e-11
2.28087e-09
-8.79326e-11
2.3044e-09
-8.07411e-11
2.32582e-09
-7.34001e-11
2.34509e-09
-6.59141e-11
2.36216e-09
-5.82878e-11
2.377e-09
-5.05261e-11
2.38957e-09
-4.26348e-11
2.39982e-09
-3.46198e-11
2.40774e-09
-2.6488e-11
2.41328e-09
-1.82464e-11
2.41641e-09
-9.90274e-12
2.41711e-09
-1.4657e-12
2.41535e-09
7.05846e-12
2.4111e-09
1.56627e-11
2.40435e-09
2.43379e-11
2.39507e-09
3.3074e-11
2.38325e-09
4.18606e-11
2.36887e-09
5.06871e-11
2.35193e-09
5.95428e-11
2.33241e-09
6.84169e-11
2.31032e-09
7.7298e-11
2.28565e-09
8.61745e-11
2.25841e-09
9.5034e-11
2.22861e-09
1.03864e-10
2.19625e-09
1.12652e-10
2.16135e-09
1.21384e-10
2.12393e-09
1.30047e-10
2.08401e-09
1.38628e-10
2.04163e-09
1.47113e-10
1.9968e-09
1.55489e-10
1.94957e-09
1.63741e-10
1.89997e-09
1.71857e-10
1.84804e-09
1.7982e-10
1.79384e-09
1.87618e-10
1.73742e-09
1.95237e-10
1.67883e-09
2.02663e-10
1.61812e-09
2.09881e-10
1.55538e-09
2.16879e-10
1.49065e-09
2.23643e-10
1.42402e-09
2.30159e-10
1.35556e-09
2.36415e-10
1.28534e-09
2.42399e-10
1.21346e-09
2.48098e-10
1.13999e-09
2.53501e-10
1.06503e-09
2.58597e-10
9.88671e-10
2.63376e-10
9.11005e-10
2.67828e-10
8.32132e-10
2.71943e-10
7.52154e-10
2.75712e-10
6.71172e-10
2.79128e-10
5.89293e-10
2.82183e-10
5.06625e-10
2.84871e-10
4.23277e-10
2.87185e-10
3.39361e-10
2.89122e-10
2.54987e-10
2.90676e-10
1.7027e-10
2.91844e-10
8.53237e-11
2.92625e-10
2.62158e-13
2.93015e-10
-8.47994e-11
2.93015e-10
-1.69746e-10
2.92626e-10
-2.54464e-10
2.91846e-10
-3.38838e-10
2.90679e-10
-4.22755e-10
2.89125e-10
-5.06104e-10
2.8719e-10
-5.88773e-10
2.84876e-10
-6.70653e-10
2.82189e-10
-7.51636e-10
2.79135e-10
-8.31616e-10
2.7572e-10
-9.10491e-10
2.71952e-10
-9.88159e-10
2.67839e-10
-1.06452e-09
2.63388e-10
-1.13948e-09
2.5861e-10
-1.21295e-09
2.53515e-10
-1.28484e-09
2.48112e-10
-1.35506e-09
2.42414e-10
-1.42352e-09
2.3643e-10
-1.49016e-09
2.30174e-10
-1.55489e-09
2.23658e-10
-1.61764e-09
2.16895e-10
-1.67835e-09
2.09899e-10
-1.73694e-09
2.02681e-10
-1.79337e-09
1.95256e-10
-1.84758e-09
1.87639e-10
-1.8995e-09
1.79842e-10
-1.94911e-09
1.7188e-10
-1.99635e-09
1.63766e-10
-2.04118e-09
1.55514e-10
-2.08357e-09
1.47139e-10
-2.12349e-09
1.38654e-10
-2.16092e-09
1.30074e-10
-2.19582e-09
1.21411e-10
-2.22819e-09
1.1268e-10
-2.258e-09
1.03895e-10
-2.28524e-09
9.50671e-11
-2.30991e-09
8.62089e-11
-2.33201e-09
7.73336e-11
-2.35153e-09
6.84534e-11
-2.36848e-09
5.95796e-11
-2.38286e-09
5.07237e-11
-2.39469e-09
4.18972e-11
-2.40398e-09
3.31111e-11
-2.41073e-09
2.43758e-11
-2.41499e-09
1.57006e-11
-2.41675e-09
7.09575e-12
-2.41606e-09
-1.42895e-12
-2.41294e-09
-9.86634e-12
-2.4074e-09
-1.82103e-11
-2.3995e-09
-2.64511e-11
-2.38924e-09
-3.45804e-11
-2.37668e-09
-4.25921e-11
-2.36185e-09
-5.04804e-11
-2.34478e-09
-5.82392e-11
-2.32552e-09
-6.58632e-11
-2.3041e-09
-7.33475e-11
-2.28058e-09
-8.06875e-11
-2.25498e-09
-8.78781e-11
-2.22737e-09
-9.49153e-11
-2.19778e-09
-1.01795e-10
-2.16627e-09
-1.08515e-10
-2.13287e-09
-1.15072e-10
-2.09764e-09
-1.21462e-10
-2.06063e-09
-1.27685e-10
-2.02188e-09
-1.33736e-10
-1.98144e-09
-1.39616e-10
-1.93937e-09
-1.45322e-10
-1.89572e-09
-1.50855e-10
-1.85054e-09
-1.56212e-10
-1.80387e-09
-1.61394e-10
-1.75577e-09
-1.66401e-10
-1.70629e-09
-1.7123e-10
-1.65548e-09
-1.75882e-10
-1.60339e-09
-1.80356e-10
-1.55008e-09
-1.84652e-10
-1.49558e-09
-1.88771e-10
-1.43996e-09
-1.92714e-10
-1.38326e-09
-1.96482e-10
-1.32554e-09
-2.00076e-10
-1.26684e-09
-2.03495e-10
-1.20722e-09
-2.06742e-10
-1.14672e-09
-2.09815e-10
-1.0854e-09
-2.12714e-10
-1.02329e-09
-2.15442e-10
-9.6046e-10
-2.17996e-10
-8.96946e-10
-2.2038e-10
-8.328e-10
-2.22595e-10
-7.68069e-10
-2.24641e-10
-7.02804e-10
-2.26522e-10
-6.37049e-10
-2.28234e-10
-5.70854e-10
-2.2978e-10
-5.04265e-10
-2.31159e-10
-4.37328e-10
-2.32372e-10
-3.70091e-10
-2.3342e-10
-3.02597e-10
-2.34298e-10
-2.34902e-10
-2.34965e-10
-1.67159e-10
-2.35073e-10
-1.0017e-10
-2.32213e-10
-3.82648e-11
-2.13623e-10
-1.30064e-10
3.84305e-11
-1.71644e-10
1.0108e-10
-2.7688e-10
1.68884e-10
-2.98345e-10
2.37167e-10
-3.01493e-10
3.05152e-10
-3.01667e-10
3.72812e-10
-3.01222e-10
4.40176e-10
-3.0041e-10
5.07241e-10
-2.99279e-10
5.73977e-10
-2.97861e-10
6.40342e-10
-2.9618e-10
7.06287e-10
-2.94253e-10
7.71761e-10
-2.92091e-10
8.36713e-10
-2.89699e-10
9.01092e-10
-2.87083e-10
9.64848e-10
-2.84244e-10
1.02793e-09
-2.81183e-10
1.09029e-09
-2.77901e-10
1.15187e-09
-2.74397e-10
1.21264e-09
-2.70672e-10
1.27252e-09
-2.66723e-10
1.33149e-09
-2.62552e-10
1.38947e-09
-2.58156e-10
1.44644e-09
-2.53534e-10
1.50233e-09
-2.48687e-10
1.55709e-09
-2.43613e-10
1.61068e-09
-2.38311e-10
1.66304e-09
-2.32783e-10
1.71412e-09
-2.27026e-10
1.76386e-09
-2.21042e-10
1.81223e-09
-2.1483e-10
1.85916e-09
-2.0839e-10
1.90461e-09
-2.01722e-10
1.94852e-09
-1.94827e-10
1.99084e-09
-1.87707e-10
2.03153e-09
-1.80361e-10
2.07052e-09
-1.72792e-10
2.10778e-09
-1.65e-10
2.14325e-09
-1.56989e-10
2.17689e-09
-1.4876e-10
2.20863e-09
-1.40317e-10
2.23844e-09
-1.31662e-10
2.26628e-09
-1.228e-10
2.29208e-09
-1.13734e-10
2.31581e-09
-1.0447e-10
2.33742e-09
-9.50112e-11
2.35687e-09
-8.53643e-11
2.37411e-09
-7.55352e-11
2.38912e-09
-6.55304e-11
2.40184e-09
-5.53571e-11
2.41224e-09
-4.50233e-11
2.42029e-09
-3.45372e-11
2.42595e-09
-2.39078e-11
2.42919e-09
-1.31446e-11
2.42998e-09
-2.25793e-12
2.4283e-09
8.74316e-12
2.42412e-09
1.98482e-11
2.41741e-09
3.10455e-11
2.40816e-09
4.23227e-11
2.39636e-09
5.36667e-11
2.38198e-09
6.50641e-11
2.36502e-09
7.65013e-11
2.34548e-09
8.79641e-11
2.32334e-09
9.94376e-11
2.2986e-09
1.10907e-10
2.27128e-09
1.22355e-10
2.24138e-09
1.33767e-10
2.2089e-09
1.45125e-10
2.17387e-09
1.56414e-10
2.1363e-09
1.67616e-10
2.09622e-09
1.78713e-10
2.05364e-09
1.89688e-10
2.00861e-09
2.00523e-10
1.96116e-09
2.11199e-10
1.91131e-09
2.21699e-10
1.85913e-09
2.32003e-10
1.80465e-09
2.42095e-10
1.74793e-09
2.51956e-10
1.68903e-09
2.61568e-10
1.628e-09
2.70914e-10
1.5649e-09
2.79974e-10
1.49981e-09
2.88731e-10
1.4328e-09
2.97169e-10
1.36394e-09
3.05271e-10
1.29332e-09
3.13021e-10
1.22101e-09
3.20404e-10
1.14711e-09
3.27404e-10
1.0717e-09
3.34007e-10
9.94875e-10
3.402e-10
9.16735e-10
3.45968e-10
8.37377e-10
3.51301e-10
7.56903e-10
3.56186e-10
6.75418e-10
3.60613e-10
5.93027e-10
3.64573e-10
5.0984e-10
3.68058e-10
4.25967e-10
3.71058e-10
3.4152e-10
3.73569e-10
2.56612e-10
3.75584e-10
1.71357e-10
3.77099e-10
8.58712e-11
3.7811e-10
2.69341e-13
3.78616e-10
-8.53326e-11
3.78617e-10
-1.70819e-10
3.78112e-10
-2.56074e-10
3.77101e-10
-3.40983e-10
3.75587e-10
-4.25431e-10
3.73573e-10
-5.09305e-10
3.71064e-10
-5.92493e-10
3.68065e-10
-6.74885e-10
3.64581e-10
-7.56372e-10
3.60623e-10
-8.36847e-10
3.56197e-10
-9.16206e-10
3.51313e-10
-9.94349e-10
3.45982e-10
-1.07117e-09
3.40214e-10
-1.14659e-09
3.34023e-10
-1.22049e-09
3.27421e-10
-1.2928e-09
3.20422e-10
-1.36343e-09
3.1304e-10
-1.43229e-09
3.0529e-10
-1.49931e-09
2.97188e-10
-1.5644e-09
2.8875e-10
-1.6275e-09
2.79993e-10
-1.68853e-09
2.70934e-10
-1.74744e-09
2.6159e-10
-1.80417e-09
2.51979e-10
-1.85865e-09
2.4212e-10
-1.91084e-09
2.3203e-10
-1.96068e-09
2.21726e-10
-2.00814e-09
2.11227e-10
-2.05318e-09
2.00552e-10
-2.09576e-09
1.89718e-10
-2.13585e-09
1.78744e-10
-2.17343e-09
1.67648e-10
-2.20846e-09
1.56448e-10
-2.24094e-09
1.4516e-10
-2.27085e-09
1.33803e-10
-2.29818e-09
1.22393e-10
-2.32291e-09
1.10946e-10
-2.34506e-09
9.94775e-11
-2.36461e-09
8.80047e-11
-2.38157e-09
7.65422e-11
-2.39595e-09
6.51051e-11
-2.40776e-09
5.37083e-11
-2.41701e-09
4.23651e-11
-2.42373e-09
3.10885e-11
-2.42792e-09
1.98918e-11
-2.42961e-09
8.78691e-12
-2.42882e-09
-2.21421e-12
-2.42559e-09
-1.31011e-11
-2.41993e-09
-2.38642e-11
-2.41189e-09
-3.44925e-11
-2.40149e-09
-4.49764e-11
-2.38878e-09
-5.53076e-11
-2.37378e-09
-6.54782e-11
-2.35653e-09
-7.54805e-11
-2.33709e-09
-8.53079e-11
-2.31548e-09
-9.49535e-11
-2.29176e-09
-1.04411e-10
-2.26596e-09
-1.13675e-10
-2.23813e-09
-1.2274e-10
-2.20833e-09
-1.31602e-10
-2.17659e-09
-1.40256e-10
-2.14296e-09
-1.48699e-10
-2.10749e-09
-1.56927e-10
-2.07024e-09
-1.64939e-10
-2.03125e-09
-1.72729e-10
-1.99057e-09
-1.80297e-10
-1.94825e-09
-1.87642e-10
-1.90434e-09
-1.94762e-10
-1.8589e-09
-2.01656e-10
-1.81197e-09
-2.08323e-10
-1.7636e-09
-2.14763e-10
-1.71386e-09
-2.20974e-10
-1.66278e-09
-2.26958e-10
-1.61043e-09
-2.32712e-10
-1.55684e-09
-2.38238e-10
-1.50208e-09
-2.43536e-10
-1.44619e-09
-2.48607e-10
-1.38921e-09
-2.53452e-10
-1.33122e-09
-2.58072e-10
-1.27225e-09
-2.62468e-10
-1.21235e-09
-2.6664e-10
-1.15157e-09
-2.70589e-10
-1.08997e-09
-2.74316e-10
-1.02759e-09
-2.77821e-10
-9.64484e-10
-2.81105e-10
-9.00694e-10
-2.84169e-10
-8.36271e-10
-2.87017e-10
-7.71265e-10
-2.89647e-10
-7.05722e-10
-2.92064e-10
-6.3969e-10
-2.94265e-10
-5.73217e-10
-2.96252e-10
-5.06351e-10
-2.98025e-10
-4.39138e-10
-2.99586e-10
-3.71622e-10
-3.00935e-10
-3.03852e-10
-3.02068e-10
-2.35887e-10
-3.02932e-10
-1.67876e-10
-3.03083e-10
-1.00635e-10
-2.99459e-10
-3.84974e-11
-2.75752e-10
-1.6856e-10
3.83954e-11
-2.1004e-10
1.00952e-10
-3.39438e-10
1.68851e-10
-3.66243e-10
2.37403e-10
-3.70044e-10
3.05728e-10
-3.69993e-10
3.73732e-10
-3.69225e-10
4.41418e-10
-3.68097e-10
5.0878e-10
-3.66641e-10
5.75792e-10
-3.64873e-10
6.42416e-10
-3.62804e-10
7.0861e-10
-3.60446e-10
7.74326e-10
-3.57805e-10
8.39515e-10
-3.54888e-10
9.0413e-10
-3.51696e-10
9.68119e-10
-3.48233e-10
1.03144e-09
-3.44499e-10
1.09403e-09
-3.40493e-10
1.15585e-09
-3.36216e-10
1.21684e-09
-3.31668e-10
1.27696e-09
-3.26846e-10
1.33616e-09
-3.21751e-10
1.39439e-09
-3.16382e-10
1.45159e-09
-3.10736e-10
1.50772e-09
-3.04814e-10
1.56272e-09
-2.98614e-10
1.61654e-09
-2.92136e-10
1.66914e-09
-2.85379e-10
1.72046e-09
-2.78343e-10
1.77044e-09
-2.71028e-10
1.81905e-09
-2.63433e-10
1.86622e-09
-2.55559e-10
1.9119e-09
-2.47406e-10
1.95604e-09
-2.38974e-10
1.9986e-09
-2.30265e-10
2.03952e-09
-2.21279e-10
2.07875e-09
-2.12019e-10
2.11624e-09
-2.02486e-10
2.15193e-09
-1.92684e-10
2.18579e-09
-1.82614e-10
2.21775e-09
-1.72281e-10
2.24778e-09
-1.61688e-10
2.27582e-09
-1.5084e-10
2.30183e-09
-1.39741e-10
2.32576e-09
-1.28398e-10
2.34756e-09
-1.16816e-10
2.3672e-09
-1.05002e-10
2.38463e-09
-9.29628e-11
2.3998e-09
-8.07074e-11
2.41269e-09
-6.82444e-11
2.42325e-09
-5.55829e-11
2.43144e-09
-4.2733e-11
2.43724e-09
-2.97054e-11
2.4406e-09
-1.65115e-11
2.44151e-09
-3.16387e-12
2.43993e-09
1.03259e-11
2.43584e-09
2.3944e-11
2.42921e-09
3.76764e-11
2.42002e-09
5.15081e-11
2.40826e-09
6.54235e-11
2.39392e-09
7.94065e-11
2.37698e-09
9.34403e-11
2.35744e-09
1.07507e-10
2.33529e-09
1.21589e-10
2.31053e-09
1.35666e-10
2.28316e-09
1.4972e-10
2.2532e-09
1.63731e-10
2.22065e-09
1.77678e-10
2.18552e-09
1.91542e-10
2.14783e-09
2.053e-10
2.10762e-09
2.18932e-10
2.06489e-09
2.32414e-10
2.01969e-09
2.45726e-10
1.97204e-09
2.58844e-10
1.922e-09
2.71746e-10
1.86959e-09
2.84411e-10
1.81487e-09
2.96815e-10
1.75789e-09
3.08937e-10
1.6987e-09
3.20754e-10
1.63737e-09
3.32243e-10
1.57396e-09
3.43383e-10
1.50854e-09
3.54152e-10
1.44118e-09
3.64529e-10
1.37195e-09
3.74493e-10
1.30095e-09
3.84026e-10
1.22824e-09
3.93108e-10
1.15393e-09
4.0172e-10
1.07809e-09
4.09844e-10
1.00083e-09
4.17463e-10
9.22239e-10
4.2456e-10
8.42419e-10
4.31122e-10
7.61472e-10
4.37133e-10
6.79504e-10
4.42582e-10
5.96622e-10
4.47455e-10
5.12937e-10
4.51744e-10
4.28558e-10
4.55437e-10
3.436e-10
4.58527e-10
2.58176e-10
4.61007e-10
1.72402e-10
4.62872e-10
8.63952e-11
4.64117e-10
2.71145e-13
4.6474e-10
-8.58531e-11
4.6474e-10
-1.71861e-10
4.64118e-10
-2.57635e-10
4.62874e-10
-3.43059e-10
4.61011e-10
-4.28018e-10
4.58532e-10
-5.12398e-10
4.55443e-10
-5.96085e-10
4.51751e-10
-6.78968e-10
4.47465e-10
-7.60937e-10
4.42593e-10
-8.41885e-10
4.37146e-10
-9.21707e-10
4.31136e-10
-1.0003e-09
4.24576e-10
-1.07757e-09
4.17479e-10
-1.1534e-09
4.09862e-10
-1.22772e-09
4.0174e-10
-1.30043e-09
3.9313e-10
-1.37144e-09
3.84049e-10
-1.44067e-09
3.74516e-10
-1.50803e-09
3.64552e-10
-1.57346e-09
3.54175e-10
-1.63687e-09
3.43406e-10
-1.6982e-09
3.32267e-10
-1.75739e-09
3.20779e-10
-1.81438e-09
3.08965e-10
-1.8691e-09
2.96845e-10
-1.92151e-09
2.84442e-10
-1.97157e-09
2.71778e-10
-2.01922e-09
2.58876e-10
-2.06443e-09
2.45759e-10
-2.10716e-09
2.32448e-10
-2.14738e-09
2.18967e-10
-2.18507e-09
2.05337e-10
-2.2202e-09
1.91581e-10
-2.25276e-09
1.77719e-10
-2.28273e-09
1.63773e-10
-2.3101e-09
1.49763e-10
-2.33486e-09
1.35709e-10
-2.35702e-09
1.21633e-10
-2.37656e-09
1.07552e-10
-2.39351e-09
9.34861e-11
-2.40785e-09
7.94532e-11
-2.41961e-09
6.54713e-11
-2.4288e-09
5.15565e-11
-2.43544e-09
3.77248e-11
-2.43954e-09
2.39928e-11
-2.44113e-09
1.03751e-11
-2.44023e-09
-3.11419e-12
-2.43687e-09
-1.64615e-11
-2.43108e-09
-2.96542e-11
-2.42289e-09
-4.26801e-11
-2.41233e-09
-5.55282e-11
-2.39945e-09
-6.81878e-11
-2.38428e-09
-8.06491e-11
-2.36686e-09
-9.29026e-11
-2.34723e-09
-1.0494e-10
-2.32543e-09
-1.16753e-10
-2.3015e-09
-1.28334e-10
-2.2755e-09
-1.39677e-10
-2.24746e-09
-1.50774e-10
-2.21744e-09
-1.61622e-10
-2.18548e-09
-1.72215e-10
-2.15163e-09
-1.82549e-10
-2.11594e-09
-1.92619e-10
-2.07846e-09
-2.02421e-10
-2.03923e-09
-2.11953e-10
-1.99832e-09
-2.21212e-10
-1.95577e-09
-2.30196e-10
-1.91162e-09
-2.38905e-10
-1.86594e-09
-2.47337e-10
-1.81878e-09
-2.5549e-10
-1.77017e-09
-2.63364e-10
-1.72019e-09
-2.70958e-10
-1.66888e-09
-2.78273e-10
-1.61628e-09