/*--------------------------------*- C++ -*----------------------------------*\
| =========                 |                                                 |
| \\      /  F ield         | OpenFOAM: The Open Source CFD Toolbox           |
|  \\    /   O peration     | Version:  2412                                  |
|   \\  /    A nd           | Website:  www.openfoam.com                      |
|    \\/     M anipulation  |                                                 |
\*---------------------------------------------------------------------------*/
FoamFile
{
    version     2.0;
    format      ascii;
    arch        "LSB;label=32;scalar=64";
    class       volScalarField;
    location    "1.07";
    object      alpha.water;
}
// * * * * * * * * * * * * * * * * * * * * * * * * * * * * * * * * * * * * * //

dimensions      [0 0 0 0 0 0 0];

internalField   nonuniform List<scalar> 
40000
(
1.03061e-200
5.09923e-192
3.70159e-191
4.92712e-191
5.27975e-191
5.0831e-191
4.65195e-191
4.11147e-191
3.53005e-191
2.95888e-191
2.42172e-191
1.93338e-191
1.5046e-191
1.13999e-191
8.39707e-192
6.0032e-192
4.15747e-192
2.78395e-192
1.79857e-192
1.11841e-192
6.67658e-193
3.81551e-193
2.08098e-193
1.07956e-193
5.30765e-194
2.46324e-194
1.07439e-194
4.38324e-195
1.66391e-195
5.84366e-196
1.8868e-196
5.56202e-197
1.4855e-197
3.56418e-198
7.61045e-199
1.43123e-199
2.3437e-200
3.30053e-201
3.94265e-202
3.93458e-203
3.2256e-204
2.13299e-205
1.11613e-206
4.53226e-208
1.40223e-209
3.25968e-211
5.67677e-213
7.54208e-215
8.01487e-217
7.28337e-219
5.98462e-221
4.55745e-223
3.20693e-225
2.02126e-227
1.38394e-229
1.05696e-231
8.05889e-234
6.12803e-236
4.64235e-238
3.49993e-240
2.62308e-242
1.95214e-244
1.44098e-246
1.05376e-248
7.62502e-251
5.45268e-253
3.84849e-255
2.67732e-257
1.83332e-259
1.2339e-261
8.15033e-264
5.27521e-266
3.3401e-268
2.06531e-270
1.24486e-272
7.30014e-275
4.15643e-277
2.29265e-279
1.22227e-281
6.28215e-284
3.10444e-286
1.47064e-288
6.65696e-291
2.86915e-293
1.17283e-295
4.52716e-298
1.64207e-300
5.56565e-303
1.75155e-305
5.08027e-308
1.34619e-310
3.22493e-313
6.90213e-316
0
0
0
0
0
0
0
0
0
0
0
0
0
1.97255e-316
1.1561e-313
5.39883e-311
2.25066e-308
8.48323e-306
2.92152e-303
9.27358e-301
2.73336e-298
7.5288e-296
1.94872e-293
4.76321e-291
1.10425e-288
2.43755e-286
5.14157e-284
1.03967e-281
2.02132e-279
3.78875e-277
6.86392e-275
1.2047e-272
2.05291e-270
3.40356e-268
5.50057e-266
8.6813e-264
1.34034e-261
2.02775e-259
3.01068e-257
4.39354e-255
6.3109e-253
8.93498e-251
1.24853e-248
1.72413e-246
2.35581e-244
3.18888e-242
4.28126e-240
5.70738e-238
7.56342e-236
9.97453e-234
1.31046e-231
1.71701e-229
2.2459e-227
2.93577e-225
3.56203e-223
3.61478e-221
3.12363e-219
2.30596e-217
1.44884e-215
7.68972e-214
3.41643e-212
1.25895e-210
3.8177e-209
9.47586e-208
1.92106e-206
3.18686e-205
4.35e-204
4.92578e-203
4.67382e-202
3.75704e-201
2.58729e-200
1.54345e-199
8.06017e-199
3.72234e-198
1.53454e-197
5.69617e-197
1.91912e-196
5.91184e-196
1.67622e-195
4.39994e-195
1.07488e-194
2.45633e-194
5.27596e-194
1.07008e-193
2.05823e-193
3.76845e-193
6.58894e-193
1.10327e-192
1.77361e-192
2.74374e-192
4.09373e-192
5.90434e-192
8.24853e-192
1.11849e-191
1.47481e-191
1.89399e-191
2.37199e-191
2.89917e-191
3.46098e-191
4.0394e-191
4.6141e-191
5.16435e-191
5.66304e-191
6.02238e-191
5.50877e-191
1.034e-191
3.95473e-201
6.00719e-197
3.88953e-188
1.9403e-187
2.3304e-187
2.37797e-187
2.27865e-187
2.10147e-187
1.87693e-187
1.63113e-187
1.38255e-187
1.14353e-187
9.22622e-188
7.25638e-188
5.55735e-188
4.13921e-188
2.99374e-188
2.09893e-188
1.4239e-188
9.32667e-189
5.88512e-189
3.56831e-189
2.07324e-189
1.15085e-189
6.08337e-190
3.05114e-190
1.44632e-190
6.45184e-191
2.69571e-191
1.04953e-191
3.78628e-192
1.25785e-192
3.82183e-193
1.05402e-193
2.61658e-194
5.79295e-195
1.13213e-195
1.93128e-196
2.84063e-197
3.55389e-198
3.7254e-199
3.21799e-200
2.24946e-201
1.24857e-202
5.39743e-204
1.7843e-205
4.44835e-207
8.3383e-209
1.19722e-210
1.38393e-212
1.38604e-214
1.28501e-216
1.14478e-218
9.95466e-221
8.50225e-223
7.7447e-225
7.35292e-227
6.96937e-229
6.58806e-231
6.20433e-233
5.81488e-235
5.41779e-237
5.0125e-239
4.59982e-241
4.1819e-243
3.76208e-245
3.34473e-247
2.93506e-249
2.53872e-251
2.1615e-253
1.80889e-255
1.48572e-257
1.19577e-259
9.41518e-262
7.23988e-264
5.42703e-266
3.95807e-268
2.80287e-270
1.92296e-272
1.27517e-274
8.1528e-277
5.0119e-279
2.95376e-281
1.66351e-283
8.92112e-286
4.53789e-288
2.1799e-290
9.84101e-293
4.1519e-295
1.62663e-297
5.87412e-300
1.93826e-302
5.78279e-305
1.54003e-307
3.60208e-310
7.24524e-313
1.23276e-315
0
0
0
0
0
0
0
1.4798e-316
1.12329e-313
6.68522e-311
3.32457e-308
1.42174e-305
5.33975e-303
1.7901e-300
5.42599e-298
1.50275e-295
3.83618e-293
9.09369e-291
2.01456e-288
4.19406e-286
8.24582e-284
1.5377e-281
2.73052e-279
4.63335e-277
7.53735e-275
1.17896e-272
1.77793e-270
2.59155e-268
3.65976e-266
5.01812e-264
6.69447e-262
8.70596e-260
1.10569e-257
1.3738e-255
1.6726e-253
1.9986e-251
2.34735e-249
2.71374e-247
3.09243e-245
3.47817e-243
3.86615e-241
4.2523e-239
4.63351e-237
5.00781e-235
5.37446e-233
5.73394e-231
6.08806e-229
6.43985e-227
6.7936e-225
7.15484e-223
7.5304e-221
7.59854e-219
6.80185e-217
5.35435e-215
3.66886e-213
2.16354e-211
1.08477e-209
4.56854e-208
1.59823e-206
4.60261e-205
1.08487e-203
2.08922e-202
3.29467e-201
4.2798e-200
4.61919e-199
4.1855e-198
3.22002e-197
2.12703e-196
1.21975e-195
6.13636e-195
2.73548e-194
1.09066e-193
3.9227e-193
1.28276e-192
3.84151e-192
1.06046e-191
2.71456e-191
6.47809e-191
1.44843e-190
3.04847e-190
6.06622e-190
1.14592e-189
2.06228e-189
3.5474e-189
5.84921e-189
9.26927e-189
1.41514e-188
2.08609e-188
2.97566e-188
4.11532e-188
5.52897e-188
7.22766e-188
9.20632e-188
1.14417e-187
1.38884e-187
1.6482e-187
1.91405e-187
2.17721e-187
2.42799e-187
2.65483e-187
2.81951e-187
2.58417e-187
4.95234e-188
2.33431e-197
1.31689e-193
9.83113e-185
4.50237e-184
5.09983e-184
5.03609e-184
4.76807e-184
4.38543e-184
3.9264e-184
3.42991e-184
2.92619e-184
2.43818e-184
1.98317e-184
1.57349e-184
1.21648e-184
9.1526e-185
6.69191e-185
4.74662e-185
3.2604e-185
2.16422e-185
1.38519e-185
8.52737e-186
5.03554e-186
2.84396e-186
1.53124e-186
7.83192e-187
3.79065e-187
1.72879e-187
7.39498e-188
2.95187e-188
1.0935e-188
3.73628e-189
1.16957e-189
3.3292e-190
8.54664e-191
1.96075e-191
3.9795e-192
7.06616e-193
1.08444e-193
1.41917e-194
1.56013e-195
1.41695e-196
1.04413e-197
6.12438e-199
2.8037e-200
9.82902e-202
2.59831e-203
5.14973e-205
7.76305e-207
9.31532e-209
9.57257e-211
9.04642e-213
8.20614e-215
7.27952e-217
6.3649e-219
5.92277e-221
5.73232e-223
5.53879e-225
5.33741e-227
5.12413e-229
4.89576e-231
4.65004e-233
4.38576e-235
4.10288e-237
3.80259e-239
3.48733e-241
3.16073e-243
2.82752e-245
2.49326e-247
2.16408e-249
1.84628e-251
1.54594e-253
1.26845e-255
1.01819e-257
7.98186e-260
6.09974e-262
4.53533e-264
3.27422e-266
2.29011e-268
1.54824e-270
1.00917e-272
6.32484e-275
3.80028e-277
2.18205e-279
1.19306e-281
6.18736e-284
3.03042e-286
1.39485e-288
6.0002e-291
2.39687e-293
8.82561e-296
2.96942e-298
9.03369e-301
2.45325e-303
5.85153e-306
1.20034e-308
2.05792e-311
2.83032e-314
4.93255e-317
0
0
0
0
2.3183e-315
2.23709e-312
1.62919e-309
9.51303e-307
4.64166e-304
1.9475e-301
7.17613e-299
2.36021e-296
7.01866e-294
1.90705e-291
4.77608e-289
1.11073e-286
2.41405e-284
4.9306e-282
9.51034e-280
1.73993e-277
3.03115e-275
5.04612e-273
8.05346e-271
1.23584e-268
1.82844e-266
2.61475e-264
3.62264e-262
4.87323e-260
6.37817e-258
8.1377e-256
1.01397e-253
1.23601e-251
1.47639e-249
1.7308e-247
1.99439e-245
2.26212e-243
2.5291e-241
2.79084e-239
3.04358e-237
3.28439e-235
3.51131e-233
3.72339e-231
3.92067e-229
4.1041e-227
4.27548e-225
4.43738e-223
4.59302e-221
4.74623e-219
4.9014e-217
4.85344e-215
4.26861e-213
3.29921e-211
2.21504e-209
1.27593e-207
6.22575e-206
2.54126e-204
8.58107e-203
2.37622e-201
5.36895e-200
9.89032e-199
1.4904e-197
1.84977e-196
1.90867e-195
1.65538e-194
1.22087e-193
7.74541e-193
4.27387e-192
2.07289e-191
8.92534e-191
3.44347e-190
1.2006e-189
3.81238e-189
1.11042e-188
2.98597e-188
7.45684e-188
1.73869e-187
3.8038e-187
7.84407e-187
1.53128e-186
2.84079e-186
5.02626e-186
8.50842e-186
1.38192e-185
2.15931e-185
3.25383e-185
4.73892e-185
6.68507e-185
9.15134e-185
1.21787e-184
1.57819e-184
1.99416e-184
2.46009e-184
2.96635e-184
3.49968e-184
4.04368e-184
4.57998e-184
5.08899e-184
5.54752e-184
5.87911e-184
5.3896e-184
1.05033e-184
6.16706e-194
1.9022e-190
1.42567e-181
6.42543e-181
7.08033e-181
6.86433e-181
6.44662e-181
5.91286e-181
5.30046e-181
4.64709e-181
3.98505e-181
3.34132e-181
2.73744e-181
2.18954e-181
1.70785e-181
1.29747e-181
9.58665e-182
6.8775e-182
4.78216e-182
3.21629e-182
2.08773e-182
1.30473e-182
7.82959e-183
4.49854e-183
2.46682e-183
1.28653e-183
6.3572e-184
2.96391e-184
1.29788e-184
5.31137e-185
2.02026e-185
7.09936e-186
2.28952e-186
6.72658e-187
1.78581e-187
4.24572e-188
8.94958e-189
1.65429e-189
2.64938e-190
3.62734e-191
4.18273e-192
3.99532e-193
3.1045e-194
1.92501e-195
9.3364e-197
3.47259e-198
9.73876e-200
2.04189e-201
3.23224e-203
4.02126e-205
4.22166e-207
4.03282e-209
3.67923e-211
3.2755e-213
2.87143e-215
2.67811e-217
2.60255e-219
2.52498e-221
2.44317e-223
2.35522e-225
2.25958e-227
2.15511e-229
2.04112e-231
1.91749e-233
1.78464e-235
1.64361e-237
1.49601e-239
1.344e-241
1.1902e-243
1.0375e-245
8.88962e-248
7.47574e-250
6.16054e-252
4.96665e-254
3.91054e-256
3.00156e-258
2.24158e-260
1.62543e-262
1.14193e-264
7.75446e-267
5.07703e-269
3.19622e-271
1.92908e-273
1.11263e-275
6.11089e-278
3.18354e-280
1.5663e-282
7.24222e-285
3.12957e-287
1.25586e-289
4.64542e-292
1.57013e-294
4.79867e-297
1.30916e-299
3.13703e-302
6.46486e-305
1.1135e-307
1.53819e-310
1.5971e-313
9.86504e-317
0
0
7.84273e-315
1.1335e-311
1.09382e-308
7.92981e-306
4.60937e-303
2.23886e-300
9.35108e-298
3.4301e-295
1.12306e-292
3.32461e-290
8.99261e-288
2.24201e-285
5.1906e-283
1.12306e-280
2.28352e-278
4.38487e-276
7.98641e-274
1.38513e-271
2.29567e-269
3.6476e-267
5.57272e-265
8.20861e-263
1.16871e-260
1.61212e-258
2.15919e-256
2.8137e-254
3.57435e-252
4.43448e-250
5.38227e-248
6.40146e-246
7.4725e-244
8.57388e-242
9.68364e-240
1.07808e-237
1.18465e-235
1.28652e-233
1.38253e-231
1.47191e-229
1.55436e-227
1.62998e-225
1.69925e-223
1.76299e-221
1.82232e-219
1.87861e-217
1.93346e-215
1.98867e-213
1.95667e-211
1.70457e-209
1.30027e-207
8.58096e-206
4.83689e-204
2.29851e-202
9.09323e-201
2.96218e-199
7.88126e-198
1.70555e-196
3.00293e-195
4.321e-194
5.12092e-193
5.04925e-192
4.19006e-191
2.96158e-190
1.80403e-189
9.57675e-189
4.47727e-188
1.86181e-187
6.95009e-187
2.34893e-186
7.24269e-186
2.05178e-185
5.37472e-185
1.3095e-184
2.9832e-184
6.3857e-184
1.29016e-183
2.47056e-183
4.50113e-183
7.82961e-183
1.30438e-182
2.08705e-182
3.21576e-182
4.78299e-182
6.88233e-182
9.60078e-182
1.30079e-181
1.71477e-181
2.20273e-181
2.76104e-181
3.38144e-181
4.0506e-181
4.7511e-181
5.46187e-181
6.1592e-181
6.81825e-181
7.40968e-181
7.83507e-181
7.18104e-181
1.42251e-181
1.04104e-190
2.09965e-187
1.45646e-178
6.54976e-178
7.13979e-178
6.85809e-178
6.41048e-178
5.87237e-178
5.27258e-178
4.63849e-178
3.99677e-178
3.37099e-178
2.78083e-178
2.24161e-178
1.76364e-178
1.35264e-178
1.00982e-178
7.32618e-179
5.1562e-179
3.51334e-179
2.31267e-179
1.46712e-179
8.94625e-180
5.22878e-180
2.92e-180
1.55275e-180
7.83299e-181
3.73321e-181
1.67345e-181
7.02076e-182
2.74196e-182
9.90969e-183
3.29256e-183
9.98478e-184
2.74155e-184
6.75528e-185
1.47908e-185
2.84656e-186
4.75828e-187
6.81739e-188
8.24861e-189
8.29001e-190
6.79627e-191
4.45801e-192
2.29267e-193
9.05738e-195
2.69894e-196
5.9993e-198
1.0002e-199
1.29462e-201
1.3925e-203
1.34663e-205
1.23623e-207
1.10444e-209
9.70235e-212
9.06144e-214
8.84011e-216
8.61031e-218
8.36433e-220
8.09543e-222
7.79793e-224
7.46751e-226
7.10142e-228
6.69872e-230
6.26043e-232
5.78975e-234
5.29196e-236
4.77437e-238
4.246e-240
3.71712e-242
3.19869e-244
2.70162e-246
2.23606e-248
1.81064e-250
1.43193e-252
1.10398e-254
8.28147e-257
6.03214e-259
4.257e-261
2.90392e-263
1.90996e-265
1.20793e-267
7.3241e-270
4.24389e-272
2.34172e-274
1.22565e-276
6.05846e-279
2.81447e-281
1.22195e-283
4.92676e-286
1.83105e-288
6.21831e-291
1.90951e-293
5.23436e-296
1.26027e-298
2.60964e-301
4.5164e-304
6.26896e-307
6.54042e-310
4.55803e-313
1.47975e-316
1.01116e-314
2.9166e-311
4.19738e-308
4.03106e-305
2.9084e-302
1.68249e-299
8.13322e-297
3.38085e-294
1.23425e-291
4.02193e-289
1.18499e-286
3.19009e-284
7.916e-282
1.82408e-279
3.92818e-277
7.94997e-275
1.51948e-272
2.75471e-270
4.75564e-268
7.84569e-266
1.24091e-263
1.88722e-261
2.76729e-259
3.92223e-257
5.3861e-255
7.18173e-253
9.31727e-251
1.1784e-248
1.45557e-246
1.75899e-244
2.08303e-242
2.4211e-240
2.7661e-238
3.11089e-236
3.44877e-234
3.77385e-232
4.08136e-230
4.36785e-228
4.63122e-226
4.87078e-224
5.08715e-222
5.28211e-220
5.45848e-218
5.61992e-216
5.77086e-214
5.9163e-212
6.06181e-210
5.92328e-208
5.10626e-206
3.83922e-204
2.48644e-202
1.36899e-200
6.32322e-199
2.41948e-197
7.58776e-196
1.93589e-194
4.0054e-193
6.73034e-192
9.23605e-191
1.04419e-189
9.83123e-189
7.80153e-188
5.28242e-187
3.08851e-186
1.5769e-185
7.10475e-185
2.85283e-184
1.03033e-183
3.37513e-183
1.01048e-182
2.78415e-182
7.10454e-182
1.68875e-181
3.75881e-181
7.87215e-181
1.55821e-180
2.92691e-180
5.23685e-180
8.95565e-180
1.46832e-179
2.31452e-179
3.51679e-179
5.16313e-179
7.34021e-179
1.01257e-178
1.3578e-178
1.77298e-178
2.25772e-178
2.80744e-178
3.41335e-178
4.06218e-178
4.73709e-178
5.41805e-178
6.08277e-178
6.70825e-178
7.26773e-178
7.6677e-178
7.02614e-178
1.41462e-178
1.28959e-187
1.88606e-184
1.15568e-175
5.18918e-175
5.63395e-175
5.3897e-175
5.02854e-175
4.60809e-175
4.14643e-175
3.66098e-175
3.16967e-175
2.68902e-175
2.23334e-175
1.81415e-175
1.43956e-175
1.1145e-175
8.4062e-176
6.16697e-176
4.39293e-176
3.03233e-176
2.02404e-176
1.30333e-176
8.07539e-177
4.80095e-177
2.73029e-177
1.48029e-177
7.62322e-178
3.71394e-178
1.70418e-178
7.32953e-179
2.93914e-179
1.09247e-179
3.73972e-180
1.17062e-180
3.32439e-181
8.49027e-182
1.93112e-182
3.87001e-183
6.75324e-184
1.01275e-184
1.28614e-185
1.36056e-186
1.17742e-187
8.17544e-189
4.46201e-190
1.8744e-191
5.94376e-193
1.4038e-194
2.47255e-196
3.34238e-198
3.6965e-200
3.62747e-202
3.35582e-204
3.01206e-206
2.65418e-208
2.48321e-210
2.43425e-212
2.38252e-214
2.32583e-216
2.26221e-218
2.18997e-220
2.10774e-222
2.01459e-224
1.91008e-226
1.79433e-228
1.66805e-230
1.53263e-232
1.39003e-234
1.24278e-236
1.09381e-238
9.46339e-241
8.03627e-243
6.68781e-245
5.44529e-247
4.33027e-249
3.35715e-251
2.53251e-253
1.85509e-255
1.31662e-257
9.0327e-260
5.97513e-262
3.80074e-264
2.31791e-266
1.35093e-268
7.49795e-271
3.9475e-273
1.96281e-275
9.17235e-278
4.00603e-280
1.62483e-282
6.07491e-285
2.07545e-287
6.41167e-290
1.76818e-292
4.28298e-295
8.92248e-298
1.55355e-300
2.16951e-303
2.27724e-306
1.5967e-309
5.61172e-313
3.23336e-311
9.25408e-308
1.32372e-304
1.26357e-301
9.06152e-299
5.21039e-296
2.50354e-293
1.03442e-290
3.75372e-288
1.21586e-285
3.56091e-283
9.52918e-281
2.35056e-278
5.38433e-276
1.15268e-273
2.31913e-271
4.40663e-269
7.94235e-267
1.36319e-264
2.23595e-262
3.51617e-260
5.31692e-258
7.75206e-256
1.09253e-253
1.49185e-251
1.9781e-249
2.55204e-247
3.20988e-245
3.94313e-243
4.73913e-241
5.58183e-239
6.45291e-237
7.33312e-235
8.20352e-233
9.04673e-231
9.84785e-229
1.05952e-226
1.12807e-224
1.18999e-222
1.24523e-220
1.29402e-218
1.33694e-216
1.37476e-214
1.40851e-212
1.43933e-210
1.46851e-208
1.49746e-206
1.45095e-204
1.23571e-202
9.14107e-201
5.79848e-199
3.11184e-197
1.39395e-195
5.14709e-194
1.55057e-192
3.78572e-191
7.4752e-190
1.19693e-188
1.56462e-187
1.68589e-186
1.5146e-185
1.14871e-184
7.44793e-184
4.17842e-183
2.05134e-182
8.90558e-182
3.45258e-181
1.20628e-180
3.82978e-180
1.11325e-179
2.98321e-179
7.41555e-179
1.71969e-178
3.73983e-178
7.66319e-178
1.48603e-177
2.73806e-177
4.81106e-177
8.08865e-177
1.30518e-176
2.02689e-176
3.03713e-176
4.40145e-176
6.18242e-176
8.43373e-176
1.1193e-175
1.44772e-175
1.8275e-175
2.2544e-175
2.72117e-175
3.21739e-175
3.73021e-175
4.24473e-175
4.74437e-175
5.21256e-175
5.62997e-175
5.92658e-175
5.42936e-175
1.11101e-175
1.26075e-184
1.42921e-181
7.51848e-173
3.36394e-172
3.64796e-172
3.48574e-172
3.25242e-172
2.98484e-172
2.6932e-172
2.38718e-172
2.07702e-172
1.77245e-172
1.48209e-172
1.21314e-172
9.70859e-173
7.58696e-173
5.78124e-173
4.28856e-173
3.09174e-173
2.16191e-173
1.46322e-173
9.56332e-174
6.02048e-174
3.64068e-174
2.10838e-174
1.16544e-174
6.12677e-175
3.05109e-175
1.43308e-175
6.31845e-176
2.60146e-176
9.94474e-177
3.50737e-177
1.13328e-177
3.32879e-178
8.81206e-179
2.08225e-179
4.34563e-180
7.91744e-181
1.24304e-181
1.65734e-182
1.84606e-183
1.68714e-184
1.24081e-185
7.19255e-187
3.21623e-188
1.0869e-189
2.73325e-191
5.10125e-193
7.22949e-195
8.25215e-197
8.23905e-199
7.69337e-201
6.94601e-203
6.14618e-205
5.76295e-207
5.68221e-209
5.59413e-211
5.49339e-213
5.37507e-215
5.23481e-217
5.06891e-219
4.87464e-221
4.65036e-223
4.3958e-225
4.11217e-227
3.80228e-229
3.47056e-231
3.12289e-233
2.76641e-235
2.40909e-237
2.05927e-239
1.72511e-241
1.414e-243
1.13203e-245
8.83582e-248
6.71088e-250
4.94951e-252
3.53708e-254
2.44348e-256
1.62765e-258
1.04261e-260
6.40329e-263
3.75845e-265
2.10087e-267
1.11397e-269
5.57878e-272
2.62581e-274
1.15513e-276
4.71919e-279
1.77727e-281
6.11636e-284
1.90337e-286
5.28761e-289
1.29023e-291
2.7077e-294
4.74943e-297
6.68164e-300
7.06548e-303
4.99079e-306
1.76706e-309
9.2365e-308
2.62403e-304
3.72577e-301
3.53029e-298
2.51308e-295
1.43442e-292
6.84172e-290
2.80621e-287
1.01088e-284
3.25049e-282
9.45061e-280
2.51072e-277
6.1485e-275
1.39828e-272
2.97201e-270
5.93682e-268
1.12005e-265
2.00446e-263
3.41612e-261
5.56398e-259
8.6887e-257
1.30474e-254
1.88919e-252
2.64426e-250
3.58614e-248
4.72277e-246
6.05209e-244
7.56123e-242
9.22682e-240
1.10163e-237
1.28902e-235
1.4805e-233
1.67159e-231
1.85803e-229
2.03599e-227
2.20232e-225
2.35463e-223
2.49142e-221
2.61203e-219
2.71659e-217
2.80598e-215
2.88165e-213
2.94557e-211
3.00009e-209
3.04783e-207
3.09163e-205
3.1345e-203
3.00674e-201
2.52539e-199
1.83455e-197
1.13749e-195
5.9373e-194
2.57348e-192
9.14864e-191
2.64152e-189
6.15908e-188
1.1586e-186
1.76525e-185
2.19555e-184
2.25271e-183
1.92986e-182
1.39818e-181
8.67756e-181
4.66997e-180
2.20407e-179
9.21866e-179
3.45039e-178
1.16613e-177
3.58811e-177
1.01265e-176
2.63913e-176
6.39055e-176
1.44588e-175
3.07221e-175
6.1593e-175
1.17015e-174
2.11488e-174
3.64941e-174
6.03229e-174
9.57992e-174
1.46572e-173
2.16594e-173
3.09851e-173
4.30019e-173
5.80105e-173
7.61993e-173
9.76234e-173
1.22162e-172
1.49503e-172
1.79157e-172
2.10456e-172
2.42597e-172
2.74655e-172
3.0563e-172
3.34535e-172
3.60224e-172
3.78348e-172
3.46504e-172
7.20608e-173
1.0173e-181
9.35478e-179
4.15008e-170
1.84628e-169
2.00227e-169
1.91392e-169
1.78801e-169
1.64455e-169
1.48864e-169
1.325e-169
1.15872e-169
9.94706e-170
8.37433e-170
6.90723e-170
5.57486e-170
4.3974e-170
3.3851e-170
2.53901e-170
1.85246e-170
1.31214e-170
9.00458e-171
5.97318e-171
3.82055e-171
2.34989e-171
1.38573e-171
7.80921e-172
4.19068e-172
2.13314e-172
1.02554e-172
4.6351e-173
1.95937e-173
7.70324e-174
2.79908e-174
9.33578e-175
2.83633e-175
7.78285e-176
1.91065e-176
4.15289e-177
7.90068e-178
1.29881e-178
1.81848e-179
2.13345e-180
2.05997e-181
1.60554e-182
9.89196e-184
4.71313e-185
1.69981e-186
4.56036e-188
9.04471e-190
1.34896e-191
1.59552e-193
1.62537e-195
1.53454e-197
1.39539e-199
1.24123e-201
1.16686e-203
1.15834e-205
1.14822e-207
1.13536e-209
1.11868e-211
1.09718e-213
1.06998e-215
1.03636e-217
9.9585e-220
9.4822e-222
8.93579e-224
8.32385e-226
7.65461e-228
6.93987e-230
6.19452e-232
5.43583e-234
4.68246e-236
3.95321e-238
3.26571e-240
2.63515e-242
2.07319e-244
1.58722e-246
1.18007e-248
8.50155e-251
5.92096e-253
3.97644e-255
2.56816e-257
1.59035e-259
9.41249e-262
5.3054e-264
2.83683e-266
1.43269e-268
6.80061e-271
3.01717e-273
1.24319e-275
4.72209e-278
1.63906e-280
5.14469e-283
1.44157e-285
3.5481e-288
7.51087e-291
1.32892e-293
1.88588e-296
2.01163e-299
1.43336e-302
5.11926e-306
2.43164e-304
6.84807e-301
9.63897e-298
9.05408e-295
6.38949e-292
3.61549e-289
1.7096e-286
6.9518e-284
2.48275e-281
7.91491e-279
2.28157e-276
6.0098e-274
1.45925e-271
3.29056e-269
6.9351e-267
1.37372e-264
2.57005e-262
4.56116e-260
7.70912e-258
1.24528e-255
1.92871e-253
2.87268e-251
4.12581e-249
5.72834e-247
7.70664e-245
1.00686e-242
1.28008e-240
1.58674e-238
1.92118e-236
2.27605e-234
2.64278e-232
3.01223e-230
3.37531e-228
3.72362e-226
4.0499e-224
4.34841e-222
4.61511e-220
4.84777e-218
5.04586e-216
5.21041e-214
5.34378e-212
5.44942e-210
5.5316e-208
5.59519e-206
5.64544e-204
5.68787e-202
5.72811e-200
5.43067e-198
4.49031e-196
3.1971e-194
1.93359e-192
9.79417e-191
4.09808e-189
1.39932e-187
3.86378e-186
8.58635e-185
1.53616e-183
2.22399e-182
2.62902e-181
2.56648e-180
2.09527e-179
1.44948e-178
8.60827e-178
4.44298e-177
2.0156e-176
8.12113e-176
2.93429e-175
9.59255e-175
2.86045e-174
7.83787e-174
1.98661e-173
4.68611e-173
1.03443e-172
2.14757e-172
4.21266e-172
7.84098e-172
1.39013e-171
2.35582e-171
3.82858e-171
5.98437e-171
9.02093e-171
1.31468e-170
1.85658e-170
2.54582e-170
3.39632e-170
4.41553e-170
5.60352e-170
6.95108e-170
8.43941e-170
1.00408e-169
1.17189e-169
1.3431e-169
1.51288e-169
1.67608e-169
1.82775e-169
1.96217e-169
2.05627e-169
1.88265e-169
3.97875e-170
6.98476e-179
5.38148e-176
1.99061e-167
8.78711e-167
9.53498e-167
9.12537e-167
8.54146e-167
7.87752e-167
7.15606e-167
6.39743e-167
5.62381e-167
4.85699e-167
4.11712e-167
3.42195e-167
2.78538e-167
2.21764e-167
1.72457e-167
1.30786e-167
9.6566e-168
6.92838e-168
4.82069e-168
3.24548e-168
2.10901e-168
1.31933e-168
7.92197e-169
4.55123e-169
2.49299e-169
1.29702e-169
6.3824e-170
2.95691e-170
1.28331e-170
5.18866e-171
1.94241e-171
6.68722e-172
2.10138e-172
5.97694e-173
1.52447e-173
3.45112e-174
6.85636e-175
1.18035e-175
1.73577e-176
2.14546e-177
2.18944e-178
1.80934e-179
1.18565e-180
6.02493e-182
2.32195e-183
6.65843e-185
1.40718e-186
2.21693e-188
2.72834e-190
2.84478e-192
2.72052e-194
2.49472e-196
2.23329e-198
2.10566e-200
2.10655e-202
2.10454e-204
2.09747e-206
2.08319e-208
2.05965e-210
2.02496e-212
1.97748e-214
1.91594e-216
1.83958e-218
1.74821e-220
1.64236e-222
1.52328e-224
1.39301e-226
1.25425e-228
1.11032e-230
9.64921e-233
8.21923e-235
6.85095e-237
5.57824e-239
4.4287e-241
3.42174e-243
2.56753e-245
1.86694e-247
1.31242e-249
8.89702e-252
5.80052e-254
3.62621e-256
2.16671e-258
1.23303e-260
6.65679e-263
3.39454e-265
1.62701e-267
7.28908e-270
3.03288e-272
1.16336e-274
4.07801e-277
1.2927e-279
3.65826e-282
9.09373e-285
1.94426e-287
3.47446e-290
4.98003e-293
5.36536e-296
3.86134e-299
1.39291e-302
6.02305e-301
1.67929e-297
2.34012e-294
2.17625e-291
1.52053e-288
8.51855e-286
3.98818e-283
1.60571e-280
5.67809e-278
1.79237e-275
5.11611e-273
1.33446e-270
3.2087e-268
7.16534e-266
1.49556e-263
2.93397e-261
5.4365e-259
9.55642e-257
1.59988e-254
2.55996e-252
3.9277e-250
5.79544e-248
8.24633e-246
1.13438e-243
1.51215e-241
1.95762e-239
2.46631e-237
3.02969e-235
3.63556e-233
4.26896e-231
4.91323e-229
5.55122e-227
6.16651e-225
6.74445e-223
7.27296e-221
7.74308e-219
8.14916e-217
8.48891e-215
8.76306e-213
8.975e-211
9.13031e-209
9.23621e-207
9.30107e-205
9.334e-203
9.34446e-201
9.34203e-199
9.33623e-197
8.73356e-195
7.09582e-193
4.94187e-191
2.90904e-189
1.42664e-187
5.7488e-186
1.88098e-184
4.95578e-183
1.04758e-181
1.77955e-180
2.44491e-179
2.74412e-178
2.54681e-177
1.98034e-176
1.30761e-175
7.42905e-175
3.67666e-174
1.60305e-173
6.22148e-173
2.16989e-172
6.86136e-172
1.98284e-171
5.27495e-171
1.30034e-170
2.9881e-170
6.43563e-170
1.30551e-169
2.50572e-169
4.56936e-169
7.94689e-169
1.32268e-168
2.11349e-168
3.25158e-168
4.82936e-168
6.94137e-168
9.67698e-168
1.31114e-167
1.72983e-167
2.22594e-167
2.7982e-167
3.44107e-167
4.14483e-167
4.89608e-167
5.67763e-167
6.4698e-167
7.25071e-167
7.99754e-167
8.68882e-167
9.29975e-167
9.72395e-167
8.90061e-167
1.91152e-167
4.17146e-176
2.75799e-173
8.44166e-165
3.69156e-164
4.00878e-164
3.84306e-164
3.60558e-164
3.33545e-164
3.04147e-164
2.73142e-164
2.41393e-164
2.09753e-164
1.79028e-164
1.49945e-164
1.23091e-164
9.89169e-165
7.77073e-165
5.95827e-165
4.45188e-165
3.23528e-165
2.28226e-165
1.55935e-165
1.02945e-165
6.54954e-166
4.00421e-166
2.34508e-166
1.31112e-166
6.97169e-167
3.51121e-167
1.6674e-167
7.42935e-168
3.08901e-168
1.19132e-168
4.23339e-169
1.3759e-169
4.05649e-170
1.07496e-170
2.53463e-171
5.25887e-172
9.48177e-173
1.46472e-173
1.9078e-174
2.05834e-175
1.80439e-176
1.25839e-177
6.82574e-179
2.81439e-180
8.64138e-182
1.95105e-183
3.25882e-185
4.19087e-187
4.48793e-189
4.35593e-191
4.03335e-193
3.63782e-195
3.44099e-197
3.47253e-199
3.49982e-201
3.51913e-203
3.5266e-205
3.51841e-207
3.49084e-209
3.44051e-211
3.36455e-213
3.26086e-215
3.12834e-217
2.96709e-219
2.77857e-221
2.5657e-223
2.33284e-225
2.08559e-227
1.83057e-229
1.57498e-231
1.32609e-233
1.09076e-235
8.74886e-238
6.82958e-240
5.17803e-242
3.8046e-244
2.70277e-246
1.85169e-248
1.22012e-250
7.70946e-253
4.65622e-255
2.67849e-257
1.46181e-259
7.53591e-262
3.65169e-264
1.65403e-266
6.95843e-269
2.69881e-271
9.56589e-274
3.06626e-276
8.77464e-279
2.20573e-281
4.76901e-284
8.61852e-287
1.24926e-289
1.36114e-292
9.90666e-296
3.61406e-299
1.42516e-297
3.92877e-294
5.41332e-291
4.97779e-288
3.43901e-285
1.90514e-282
8.81996e-280
3.51156e-277
1.22798e-274
3.8334e-272
1.08213e-269
2.79153e-267
6.63866e-265
1.46629e-262
3.02719e-260
5.87437e-258
1.07676e-255
1.87245e-253
3.10127e-251
4.90963e-249
7.45317e-247
1.08819e-244
1.53221e-242
2.08585e-240
2.75181e-238
3.52597e-236
4.397e-234
5.3468e-232
6.35166e-230
7.38398e-228
8.41435e-226
9.41371e-224
1.03554e-221
1.12166e-219
1.19797e-217
1.2633e-215
1.31704e-213
1.35915e-211
1.39007e-209
1.41065e-207
1.42203e-205
1.42558e-203
1.4228e-201
1.41523e-199
1.40443e-197
1.39191e-195
1.37911e-193
1.27069e-191
1.01253e-189
6.88345e-188
3.93503e-186
1.86403e-184
7.21641e-183
2.25721e-181
5.66194e-180
1.13626e-178
1.82979e-177
2.38271e-176
2.5368e-175
2.23682e-174
1.65579e-173
1.04318e-172
5.66853e-172
2.6896e-171
1.12693e-170
4.21256e-170
1.4182e-169
4.33758e-169
1.21481e-168
3.13774e-168
7.52298e-168
1.68416e-167
3.53921e-167
7.01545e-167
1.31756e-166
2.35408e-166
4.01637e-166
6.56568e-166
1.03157e-165
1.56216e-165
2.2861e-165
3.24083e-165
4.46041e-165
5.9717e-165
7.79179e-165
9.92419e-165
1.23582e-164
1.50662e-164
1.80048e-164
2.11169e-164
2.43311e-164
2.75672e-164
3.07385e-164
3.3756e-164
3.65386e-164
3.89891e-164
4.06762e-164
3.72219e-164
8.12365e-165
2.20307e-173
1.27306e-170
3.20726e-162
1.38776e-161
1.50821e-161
1.44867e-161
1.36268e-161
1.26469e-161
1.15778e-161
1.04461e-161
9.28184e-162
8.11495e-162
6.97427e-162
5.88635e-162
4.87325e-162
3.95269e-162
3.13671e-162
2.43162e-162
1.8385e-162
1.35324e-162
9.67802e-163
6.71047e-163
4.50039e-163
2.91183e-163
1.81248e-163
1.08202e-163
6.17428e-164
3.35527e-164
1.72943e-164
8.41759e-165
3.85025e-165
1.64619e-165
6.54017e-166
2.39873e-166
8.06312e-167
2.46399e-167
6.78379e-168
1.66602e-168
3.61006e-169
6.81739e-170
1.10642e-170
1.5189e-171
1.73303e-172
1.61218e-173
1.19726e-174
6.93756e-176
3.0638e-177
1.0089e-178
2.43952e-180
4.33542e-182
5.85163e-184
6.4602e-186
6.37746e-188
5.97054e-190
5.43154e-192
5.15541e-194
5.25303e-196
5.34608e-198
5.42863e-200
5.49439e-202
5.53678e-204
5.5492e-206
5.52527e-208
5.45921e-210
5.34623e-212
5.18301e-214
4.96811e-216
4.70235e-218
4.38908e-220
4.03425e-222
3.64633e-224
3.23594e-226
2.81521e-228
2.39701e-230
1.99399e-232
1.61761e-234
1.27727e-236
9.79602e-239
7.28156e-241
5.23342e-243
3.62774e-245
2.41874e-247
1.54655e-249
9.45258e-252
5.50315e-254
3.03977e-256
1.58613e-258
7.77984e-261
3.56711e-263
1.51915e-265
5.96484e-268
2.14045e-270
6.94634e-273
2.0126e-275
5.1224e-278
1.12138e-280
2.05196e-283
3.01169e-286
3.32266e-289
2.44873e-292
9.04568e-296
3.25857e-294
8.87079e-291
1.20704e-287
1.09612e-284
7.47867e-282
4.09165e-279
1.87081e-276
7.35644e-274
2.54083e-271
7.83431e-269
2.18446e-266
5.56637e-264
1.30766e-261
2.85324e-259
5.81946e-257
1.11571e-254
2.0206e-252
3.4719e-250
5.68222e-248
8.8895e-246
1.33367e-243
1.92449e-241
2.67836e-239
3.60415e-237
4.70045e-235
5.95434e-233
7.34141e-231
8.82715e-229
1.03694e-226
1.19215e-224
1.34361e-222
1.48684e-220
1.61792e-218
1.73372e-216
1.83204e-214
1.91162e-212
1.97215e-210
2.01417e-208
2.03889e-206
2.04807e-204
2.04383e-202
2.02852e-200
2.00458e-198
1.97443e-196
1.94039e-194
1.90466e-192
1.86925e-190
1.69335e-188
1.32076e-186
8.74586e-185
4.84434e-183
2.21124e-181
8.20422e-180
2.44733e-178
5.83171e-177
1.10899e-175
1.69043e-174
2.08389e-173
2.10279e-172
1.76047e-171
1.24006e-170
7.45235e-170
3.87233e-169
1.7613e-168
7.09135e-168
2.55307e-167
8.29649e-167
2.45444e-166
6.66205e-166
1.67076e-165
3.89622e-165
8.49779e-165
1.74252e-164
3.37532e-164
6.20316e-164
1.08597e-163
1.8177e-163
2.91859e-163
4.50908e-163
6.72162e-163
9.69268e-163
1.35529e-162
1.84155e-162
2.43636e-162
3.14404e-162
3.96373e-162
4.88959e-162
5.90981e-162
7.00721e-162
8.16015e-162
9.34223e-162
1.05245e-161
1.16761e-161
1.27665e-161
1.3768e-161
1.46471e-161
1.52466e-161
1.3948e-161
3.09345e-162
1.0422e-170
5.3405e-168
1.10322e-159
4.71893e-159
5.13243e-159
4.94009e-159
4.65961e-159
4.33918e-159
3.98846e-159
3.6157e-159
3.23026e-159
2.84165e-159
2.45918e-159
2.09157e-159
1.7463e-159
1.4296e-159
1.14597e-159
8.98133e-160
6.87128e-160
5.12239e-160
3.71381e-160
2.61307e-160
1.78017e-160
1.17127e-160
7.42233e-161
4.51642e-161
2.63018e-161
1.46064e-161
7.70445e-162
3.84325e-162
1.80451e-162
7.93303e-163
3.24654e-163
1.2289e-163
4.27205e-164
1.35308e-164
3.87019e-165
9.89954e-166
2.24029e-166
4.4313e-167
7.55618e-168
1.09347e-168
1.3197e-169
1.30325e-170
1.03113e-171
6.38734e-173
3.02442e-174
1.06975e-175
2.77657e-177
5.26816e-179
7.49618e-181
8.5668e-183
8.62238e-185
8.17242e-187
7.507e-189
7.15115e-191
7.36385e-193
7.57457e-195
7.77475e-197
7.9549e-199
8.10471e-201
8.21337e-203
8.2699e-205
8.26376e-207
8.18544e-209
8.02728e-211
7.7842e-213
7.45449e-215
7.04044e-217
6.54871e-219
5.99044e-221
5.38088e-223
4.73865e-225
4.08457e-227
3.44011e-229
2.82575e-231
2.25938e-233
1.75486e-235
1.32111e-237