/*--------------------------------*- C++ -*----------------------------------*\
| =========                 |                                                 |
| \\      /  F ield         | OpenFOAM: The Open Source CFD Toolbox           |
|  \\    /   O peration     | Version:  2412                                  |
|   \\  /    A nd           | Website:  www.openfoam.com                      |
|    \\/     M anipulation  |                                                 |
\*---------------------------------------------------------------------------*/
FoamFile
{
    version     2.0;
    format      ascii;
    arch        "LSB;label=32;scalar=64";
    class       surfaceScalarField;
    location    "1.07";
    object      alphaPhi0.water;
}
// * * * * * * * * * * * * * * * * * * * * * * * * * * * * * * * * * * * * * //

dimensions      [0 3 -1 0 0 0 0];

oriented        oriented;

internalField   nonuniform List<scalar> 
79600
(
1.76258e-211
-1.02901e-207
1.54055e-202
-5.09897e-199
1.82453e-201
-3.70207e-198
3.47029e-201
-4.92718e-198
4.89077e-201
-5.27945e-198
5.84228e-201
-5.08239e-198
6.37625e-201
-4.65097e-198
6.5358e-201
-4.11029e-198
6.37524e-201
-3.52874e-198
5.97672e-201
-2.95753e-198
5.4043e-201
-2.42037e-198
4.71941e-201
-1.93208e-198
3.98451e-201
-1.5034e-198
3.25256e-201
-1.13891e-198
2.56597e-201
-8.38771e-199
1.95468e-201
-5.99537e-199
1.43592e-201
-4.15115e-199
1.01587e-201
-2.77904e-199
6.90918e-202
-1.7949e-199
4.50841e-202
-1.11578e-199
2.81597e-202
-6.6585e-200
1.67926e-202
-3.80363e-200
9.53365e-203
-2.07354e-200
5.13662e-203
-1.07514e-200
2.61733e-203
-5.28274e-201
1.25641e-203
-2.44999e-201
5.65792e-204
-1.06777e-201
2.37905e-204
-4.35223e-202
9.29271e-205
-1.65039e-202
3.35296e-205
-5.78905e-203
1.1106e-205
-1.86647e-203
3.35386e-206
-5.4928e-204
9.16383e-207
-1.46408e-204
2.24642e-207
-3.5044e-205
4.89472e-208
-7.46145e-206
9.38182e-209
-1.39837e-206
1.56398e-209
-2.28029e-207
2.23962e-210
-3.19479e-208
2.7174e-211
-3.79223e-209
2.75149e-212
-3.75473e-210
2.28624e-213
-3.04783e-211
1.53069e-214
-1.99038e-212
8.10125e-216
-1.02506e-213
3.3239e-217
-4.07841e-215
1.03804e-218
-1.22897e-216
2.43328e-220
-2.76008e-218
4.26885e-222
-4.59272e-220
5.70774e-224
-5.74441e-222
6.09821e-226
-5.6406e-224
5.56597e-228
-4.63171e-226
4.589e-230
-3.3365e-228
3.50303e-232
-2.10711e-230
2.46841e-234
-1.06948e-232
1.55638e-236
-2.52495e-235
1.06496e-238
6.77427e-242
8.11988e-241
1.35466e-243
6.17433e-243
1.67664e-245
4.67731e-245
1.76774e-247
3.52619e-247
1.71501e-249
2.64266e-249
1.57791e-251
1.96661e-251
1.39714e-253
1.45158e-253
1.20002e-255
1.06145e-255
1.00438e-257
7.68008e-258
8.21284e-260
5.49161e-260
6.57034e-262
3.87561e-262
5.14603e-264
2.69593e-264
3.94657e-266
1.84587e-266
2.96308e-268
1.2422e-268
2.17688e-270
8.20415e-271
1.56381e-272
5.30935e-273
1.09746e-274
3.36125e-275
7.51578e-277
2.07808e-277
5.01639e-279
1.25237e-279
3.25862e-281
7.34296e-282
2.05699e-283
4.1801e-284
1.25965e-285
2.3053e-286
7.4693e-288
1.22878e-288
4.27999e-290
6.31445e-291
2.36474e-292
3.11978e-293
1.2568e-294
1.47761e-295
6.40852e-297
6.68709e-298
3.12624e-299
2.88151e-300
1.45441e-301
1.17762e-302
6.43054e-304
4.54463e-305
2.6917e-306
1.64802e-307
1.06208e-308
5.5845e-310
3.93133e-311
1.75706e-312
1.3576e-313
5.09498e-315
4.34603e-316
1.34975e-317
1.28025e-318
3.23267e-320
3.4387e-321
6.91692e-323
9.88131e-324
0
0
0
0
0
0
0
0
0
0
0
0
0
0
0
0
0
0
0
0
0
0
0
0
0
0
0
0
-1.97626e-323
0
-1.15858e-320
4.94066e-324
-5.41176e-318
1.39821e-321
-2.25662e-315
5.75211e-319
-8.50783e-313
2.13803e-316
-2.93071e-310
7.25e-314
-9.30502e-308
2.26241e-311
-2.74328e-305
6.54529e-309
-7.55788e-303
1.76671e-306
-1.9567e-300
4.47355e-304
-4.78376e-298
1.06783e-301
-1.10925e-295
2.41322e-299
-2.44911e-293
5.18317e-297
-5.16701e-291
1.0617e-294
-1.04502e-288
2.08063e-292
-2.03211e-286
3.91209e-290
-3.80968e-284
7.07572e-288
-6.90306e-282
1.23405e-285
-1.21178e-279
2.0799e-283
-2.06531e-277
3.39444e-281
-3.42464e-275
5.37412e-279
-5.53545e-273
8.26788e-277
-8.73756e-271
1.23796e-274
-1.34921e-268
1.80662e-272
-2.04141e-266
2.57281e-270
-3.03131e-264
3.57926e-268
-4.42412e-262
4.86923e-266
-6.35544e-260
6.4826e-264
-8.99886e-258
8.44919e-262
-1.25756e-255
1.07835e-259
-1.73673e-253
1.34771e-257
-2.37318e-251
1.64823e-255
-3.21257e-249
1.96914e-253
-4.31327e-247
2.29245e-251
-5.75028e-245
2.58973e-249
-7.6205e-243
2.81559e-247
-1.005e-240
2.90291e-245
-1.3204e-238
2.75546e-243
-1.73005e-236
2.23321e-241
-2.26294e-234
1.13426e-239
-2.74466e-232
-2.13359e-233
-2.78147e-230
-8.07506e-231
-2.39784e-228
-1.24421e-228
-1.76421e-226
-1.3829e-226
-1.10364e-224
-1.21956e-224
-5.82643e-223
-8.76965e-223
-2.57231e-221
-5.17416e-221
-9.41001e-220
-2.50044e-219
-2.83001e-218
-9.85078e-218
-6.95949e-217
-3.14915e-216
-1.39649e-215
-8.14665e-215
-2.29064e-214
-1.70547e-213
-3.08839e-213
-2.90008e-212
-3.45076e-212
-4.03462e-211
-3.22735e-211
-4.63617e-210
-2.55436e-210
-4.44933e-209
-1.73007e-209
-3.60849e-208
-1.01391e-208
-2.50244e-207
-5.19564e-208
-1.50117e-206
-2.35168e-207
-7.87453e-206
-9.49012e-207
-3.64982e-205
-3.44388e-206
-1.50912e-204
-1.13282e-205
-5.61556e-204
-3.40228e-205
-1.89583e-203
-9.39142e-205
-5.85009e-203
-2.39625e-204
-1.66112e-202
-5.68105e-204
-4.36569e-202
-1.25775e-203
-1.06765e-201
-2.61257e-203
-2.442e-201
-5.11457e-203
-5.24925e-201
-9.47609e-203
-1.06537e-200
-1.66756e-202
-2.05037e-200
-2.79564e-202
-3.75595e-200
-4.47677e-202
-6.57e-200
-6.86312e-202
-1.10053e-199
-1.00933e-201
-1.76981e-199
-1.42671e-201
-2.73868e-199
-1.94203e-201
-4.08725e-199
-2.54962e-201
-5.89635e-199
-3.23333e-201
-8.23901e-199
-3.96534e-201
-1.11739e-198
-4.70624e-201
-1.47359e-198
-5.40626e-201
-1.89268e-198
-6.00714e-201
-2.37061e-198
-6.44919e-201
-2.89778e-198
-6.67919e-201
-3.45962e-198
-6.65607e-201
-4.0381e-198
-6.35561e-201
-4.61289e-198
-5.7651e-201
-5.16325e-198
-4.84682e-201
-5.6621e-198
-3.2569e-201
-6.02199e-198
-3.90824e-202
-5.50978e-198
-6.68938e-212
-1.03397e-198
-3.94935e-208
1.70755e-207
-5.99912e-204
2.13489e-198
-3.89057e-195
1.53135e-197
-1.94132e-194
2.41159e-197
-2.33097e-194
3.05584e-197
-2.37832e-194
3.509e-197
-2.27882e-194
3.77807e-197
-2.10147e-194
3.86052e-197
-1.87677e-194
3.77768e-197
-1.63084e-194
3.55929e-197
-1.38216e-194
3.23803e-197
-1.14306e-194
2.8483e-197
-9.22114e-195
2.42424e-197
-7.25124e-195
1.99639e-197
-5.55241e-195
1.59006e-197
-4.13469e-195
1.22384e-197
-2.98978e-195
9.09199e-198
-2.09561e-195
6.51072e-198
-1.42122e-195
4.48615e-198
-9.30601e-196
2.96858e-198
-5.86985e-196
1.88221e-198
-3.55752e-196
1.14062e-198
-2.06596e-196
6.58807e-199
-1.14617e-196
3.61548e-199
-6.05479e-197
1.87876e-199
-3.03461e-197
9.20924e-200
-1.43729e-197
4.2404e-200
-6.40546e-198
1.82566e-200
-2.67338e-198
7.31251e-201
-1.03952e-198
2.70983e-201
-3.7446e-199
9.23388e-202
-1.24185e-199
2.87372e-202
-3.76555e-200
8.10706e-203
-1.03601e-200
2.05602e-203
-2.56451e-201
4.64445e-204
-5.6582e-202
9.25021e-205
-1.10122e-202
1.60626e-205
-1.8691e-203
2.40218e-206
-2.73221e-204
3.05237e-207
-3.39222e-205
3.24623e-208
-3.52213e-206
2.84185e-209
-3.00595e-207
2.0112e-210
-2.06924e-208
1.12903e-211
-1.1261e-209
4.93121e-213
-4.74459e-211
1.64541e-214
-1.51613e-212
4.1363e-216
-3.61054e-214
7.8103e-218
-6.35272e-216
1.12854e-219
-8.34301e-218
1.31152e-221
-8.50496e-220
1.31926e-223
-7.16616e-222
1.22723e-225
-5.26172e-224
1.09592e-227
-3.38252e-226
9.543e-230
-1.75027e-228
8.15376e-232
-4.23651e-231
7.42257e-234
8.46894e-237
7.0354e-236
2.10982e-238
6.65041e-238
3.24896e-240
6.26293e-240
4.2613e-242
5.86963e-242
5.14157e-244
5.46857e-244
5.88258e-246
5.05923e-246
6.4765e-248
4.64242e-248
6.91618e-250
4.22032e-250
7.19648e-252
3.79632e-252
7.3155e-254
3.37487e-254
7.27569e-256
2.96119e-256
7.08462e-258
2.56103e-258
6.7554e-260
2.18022e-260
6.30653e-262
1.82431e-262
5.7613e-264
1.49817e-264
5.14659e-266
1.2056e-266
4.49143e-268
9.49102e-269
3.82504e-270
7.29692e-271
3.1749e-272
5.46877e-273
2.56484e-274
3.98773e-275
2.01352e-276
2.8233e-277
1.53349e-278
1.93656e-279
1.13092e-280
1.28391e-281
8.06005e-283
8.20675e-284
5.53915e-285
5.04386e-286
3.66197e-287
2.97186e-288
2.32285e-289
1.67328e-290
1.40969e-291
8.97111e-293
8.15951e-294
4.56208e-295
4.48885e-296
2.19091e-297
2.33813e-298
9.8879e-300
1.14815e-300
4.17047e-302
5.28958e-303
1.63342e-304
2.27374e-305
5.89685e-307
9.06151e-308
1.94516e-309
3.32352e-310
5.80155e-312
1.11212e-312
1.54453e-314
3.35984e-315
3.61146e-317
9.04741e-318
7.26178e-320
2.13683e-320
1.23516e-322
4.44659e-323
0
0
0
0
0
0
0
0
0
0
0
0
0
0
0
0
-1.4822e-323
0
-1.12548e-320
4.94066e-324
-6.70044e-318
3.99699e-321
-3.33323e-315
1.97222e-318
-1.4259e-312
8.35311e-316
-5.35708e-310
3.1027e-313
-1.79647e-307
1.0272e-310
-5.44698e-305
3.07023e-308
-1.50902e-302
8.37217e-306
-3.85334e-300
2.10105e-303
-9.13702e-298
4.88845e-301
-2.02474e-295
1.06121e-298
-4.21642e-293
2.1613e-296
-8.29203e-291
4.14969e-294
-1.54672e-288
7.5436e-292
-2.74725e-286
1.3034e-289
-4.66289e-284
2.14786e-287
-7.58724e-282
3.38633e-285
-1.18704e-279
5.12257e-283
-1.79051e-277
7.45436e-281
-2.61045e-275
1.046e-278
-3.6872e-273
1.41843e-276
-5.05673e-271
1.86254e-274
-6.74723e-269
2.37265e-272
-8.77611e-267
2.93716e-270
-1.11479e-264
3.53884e-268
-1.38531e-262
4.1557e-266
-1.68687e-260
4.76238e-264
-2.01592e-258
5.33172e-262
-2.36799e-256
5.83682e-260
-2.73792e-254
6.25304e-258
-3.12031e-252
6.55874e-256
-3.50985e-250
6.7364e-254
-3.90169e-248
6.77434e-252
-4.2917e-246
6.66619e-250
-4.67673e-244
6.40902e-248
-5.05479e-242
6.00371e-246
-5.4251e-240
5.45575e-244
-5.78815e-238
4.77177e-242
-6.14573e-236
3.95789e-240
-6.50092e-234
3.02092e-238
-6.85802e-232
1.96668e-236
-7.22261e-230
7.98018e-235
-7.28523e-228
-3.164e-229
-6.5124e-226
-1.15797e-226
-5.11434e-224
-1.75168e-224
-3.49263e-222
-1.91209e-222
-2.05067e-220
-1.65256e-220
-1.02271e-218
-1.161e-218
-4.28003e-217
-6.66816e-217
-1.4864e-215
-3.12416e-215
-4.24519e-214
-1.18829e-213
-9.91372e-213
-3.65284e-212
-1.88962e-211
-9.05615e-211
-2.94641e-210
-1.81307e-209
-3.78052e-209
-2.94543e-208
-4.02614e-208
-3.91414e-207
-3.59587e-207
-4.29895e-206
-2.72383e-206
-3.94824e-205
-1.76962e-205
-3.06966e-204
-9.96948e-205
-2.04461e-203
-4.92152e-204
-1.18027e-202
-2.15026e-203
-5.96935e-202
-8.3922e-203
-2.67253e-201
-2.95084e-202
-1.06933e-200
-9.42104e-202
-3.85726e-200
-2.75069e-201
-1.26444e-199
-7.39251e-201
-3.79439e-199
-1.83946e-200
-1.04927e-198
-4.2602e-200
-2.68987e-198
-9.22862e-200
-6.42727e-198
-1.87842e-199
-1.43862e-197
-3.60798e-199
-3.03066e-197
-6.5651e-199
-6.03564e-197
-1.13558e-198
-1.14094e-196
-1.87295e-198
-2.05457e-196
-2.95348e-198
-3.53603e-196
-4.46352e-198
-5.83319e-196
-6.47857e-198
-9.24768e-196
-9.04845e-198
-1.41235e-195
-1.21823e-197
-2.08264e-195
-1.58341e-197
-2.97157e-195
-1.98965e-197
-4.11064e-195
-2.41919e-197
-5.52387e-195
-2.84791e-197
-7.22233e-195
-3.24672e-197
-9.20101e-195
-3.5831e-197
-1.14367e-194
-3.82462e-197
-1.38841e-194
-3.9421e-197
-1.64785e-194
-3.91307e-197
-1.91381e-194
-3.72421e-197
-2.17709e-194
-3.37e-197
-2.42801e-194
-2.83086e-197
-2.65501e-194
-1.90711e-197
-2.82005e-194
-2.3356e-198
-2.58546e-194
-4.87454e-208
-4.95354e-195
-2.33144e-204
3.10682e-204
-1.31534e-200
5.21127e-195
-9.83574e-192
3.60244e-194
-4.5057e-191
5.42437e-194
-5.10209e-191
6.67425e-194
-5.03784e-191
7.56781e-194
-4.76946e-191
8.11237e-194
-4.38643e-191
8.2955e-194
-3.92699e-191
8.14745e-194
-3.43011e-191
7.71737e-194
-2.92605e-191
7.06614e-194
-2.43777e-191
6.26168e-194
-1.98257e-191
5.37328e-194
-1.57276e-191
4.46482e-194
-1.2157e-191
3.59091e-194
-9.14489e-192
2.79314e-194
-6.68473e-192
2.0988e-194
-4.7403e-192
1.52145e-194
-3.2551e-192
1.06221e-194
-2.15998e-192
7.12854e-195
-1.38196e-192
4.58847e-195
-8.50385e-193
2.82578e-195
-5.01923e-193
1.66044e-195
-2.83319e-193
9.28098e-196
-1.52449e-193
4.91787e-196
-7.79181e-194
2.46121e-196
-3.76816e-194
1.15857e-196
-1.71692e-194
5.1065e-197
-7.33627e-195
2.09697e-197
-2.92477e-195
7.97921e-198
-1.08189e-195
2.79639e-198
-3.69034e-196
8.96594e-199
-1.15289e-196
2.6106e-199
-3.27401e-197
6.84652e-200
-8.38143e-198
1.60264e-200
-1.91641e-198
3.3148e-201
-3.87379e-199
5.99136e-202
-6.84468e-200
9.34904e-203
-1.04413e-200
1.24262e-203
-1.35627e-201
1.38591e-204
-1.47714e-202
1.27568e-205
-1.32588e-203
9.51703e-207
-9.62461e-205
5.64581e-208
-5.53728e-206
2.6114e-209
-2.47184e-207
9.24045e-211
-8.38096e-209
2.46312e-212
-2.11765e-210
4.91768e-214
-3.94226e-212
7.46041e-216
-5.43766e-214
9.00026e-218
-5.74841e-216
9.28936e-220
-4.94954e-218
8.80859e-222
-3.67487e-220
8.00958e-224
-2.37752e-222
7.11512e-226
-1.23665e-224
6.22363e-228
-3.03088e-227
5.78773e-230
1.00442e-232
5.5924e-232
2.56568e-234
5.38908e-234
4.03312e-236
5.17369e-236
5.3962e-238
4.94301e-238
6.64007e-240
4.69477e-240
7.74661e-242
4.42776e-242
8.69587e-244
4.14196e-244
9.46769e-246
3.83857e-246
1.00436e-247
3.52006e-248
1.04088e-249
3.19013e-250
1.05539e-251
2.85354e-252
1.04771e-253
2.51594e-254
1.0185e-255
2.18351e-256
9.69362e-258
1.86262e-258
9.02818e-260
1.5594e-260
8.2221e-262
1.27931e-262
7.31526e-264
1.02674e-264
6.35133e-266
8.04753e-267
5.37455e-268
6.14881e-269
4.42646e-270
4.57095e-271
3.54271e-272
3.29928e-273
2.75072e-274
2.30716e-275
2.06815e-276
1.55943e-277
1.5027e-278
1.01623e-279
1.05284e-280
6.36756e-282
7.09614e-283
3.82502e-284
4.589e-285
2.1957e-286
2.83933e-287
1.2002e-288
1.67553e-289
6.22274e-291
9.39786e-292
3.04691e-293
4.99085e-294
1.40204e-295
2.49875e-296
6.02936e-298
1.17373e-298
2.4078e-300
5.14423e-301
8.86317e-303
2.09037e-303
2.98113e-305
7.81758e-306
9.06645e-308
2.66742e-308
2.46136e-310
8.21749e-311
5.86897e-313
2.25652e-313
1.20352e-315
5.43462e-316
2.06269e-318
1.12407e-318
2.83594e-321
1.94168e-321
4.94066e-324
4.94066e-324
0
0
0
0
0
0
0
0
0
0
-2.32211e-322
0
-2.24153e-319
2.12448e-322
-1.63296e-316
1.5362e-319
-9.53821e-314
8.90868e-317
-4.65548e-311
4.31107e-314
-1.95393e-308
1.7914e-311
-7.20215e-306
6.52815e-309
-2.36952e-303
2.12032e-306
-7.04852e-301
6.21744e-304
-1.91574e-298
1.66329e-301
-4.79929e-296
4.09504e-299
-1.11646e-293
9.34725e-297
-2.42718e-291
1.99069e-294
-4.95879e-289
3.97751e-292
-9.5673e-287
7.49225e-290
-1.75081e-284
1.33621e-287
-3.05088e-282
2.26502e-285
-5.0802e-280
3.66187e-283
-8.10978e-278
5.66402e-281
-1.24477e-275
8.40582e-279
-1.84205e-273
1.20005e-276
-2.63476e-271
1.65202e-274
-3.65109e-269
2.19777e-272
-4.91244e-267
2.83121e-270
-6.43065e-265
3.53827e-268
-8.20605e-263
4.29711e-266
-1.02265e-260
5.07923e-264
-1.24677e-258
5.85145e-262
-1.48946e-256
6.57842e-260
-1.74634e-254
7.2252e-258
-2.01254e-252
7.75961e-256
-2.28295e-250
8.15489e-254
-2.55262e-248
8.39098e-252
-2.81704e-246
8.45474e-250
-3.07238e-244
8.34058e-248
-3.31569e-242
8.05048e-246
-3.54496e-240
7.59189e-244
-3.75923e-238
6.97592e-242
-3.95853e-236
6.21728e-240
-4.14381e-234
5.33249e-238
-4.3169e-232
4.33698e-236
-4.48036e-230
3.24497e-234
-4.63746e-228
2.06874e-232
-4.79205e-226
8.16965e-231
-4.74329e-224
-2.0534e-225
-4.16591e-222
-7.34308e-223
-3.21213e-220
-1.09758e-220
-2.14929e-218
-1.18162e-218
-1.23265e-216
-1.0036e-216
-5.98247e-215
-6.8985e-215
-2.42653e-213
-3.85827e-213
-8.13381e-212
-1.75184e-211
-2.23371e-210
-6.42765e-210
-5.0002e-209
-1.89825e-208
-9.11654e-208
-4.50667e-207
-1.35833e-206
-8.62202e-206
-1.66517e-205
-1.3373e-204
-1.69534e-204
-1.6967e-203
-1.44927e-203
-1.78051e-202
-1.0524e-202
-1.56448e-201
-6.56648e-202
-1.16562e-200
-3.55957e-201
-7.45452e-200
-1.69408e-200
-4.13976e-199
-7.14899e-200
-2.01822e-198
-2.69985e-199
-8.72637e-198
-9.20253e-199
-3.37829e-197
-2.85293e-198
-1.18123e-196
-8.10147e-198
-3.75978e-196
-2.12087e-197
-1.09729e-195
-5.14839e-197
-2.95565e-195
-1.16501e-196
-7.39179e-195
-2.46932e-196
-1.72565e-194
-4.92458e-196
-3.77928e-194
-9.27923e-196
-7.80066e-194
-1.65819e-195
-1.52401e-193
-2.81979e-195
-2.82926e-193
-4.57678e-195
-5.00888e-193
-7.10909e-195
-8.48347e-193
-1.05934e-194
-1.37851e-192
-1.51762e-194
-2.15485e-192
-2.09415e-194
-3.24827e-192
-2.78829e-194
-4.73229e-192
-3.58724e-194
-6.67755e-192
-4.46498e-194
-9.14324e-192
-5.38164e-194
-1.21705e-191
-6.28462e-194
-1.57742e-191
-7.11197e-194
-1.99351e-191
-7.79679e-194
-2.45963e-191
-8.27383e-194
-2.96615e-191
-8.48521e-194
-3.4998e-191
-8.38693e-194
-4.04417e-191
-7.95331e-194
-4.58086e-191
-7.1752e-194
-5.09028e-191
-6.01462e-194
-5.54924e-191
-4.05288e-194
-5.88167e-191
-5.04892e-195
-5.39365e-191
-1.31751e-204
-1.05084e-191
-6.16019e-201
4.06177e-201
-1.90023e-197
7.17356e-192
-1.42666e-188
5.03691e-191
-6.43162e-188
7.47419e-191
-7.08502e-188
9.08279e-191
-6.86821e-188
1.0247e-190
-6.44995e-188
1.09685e-190
-5.91558e-188
1.12361e-190
-5.30251e-188
1.10781e-190
-4.64849e-188
1.05481e-190
-3.98585e-188
9.71861e-191
-3.3416e-188
8.67424e-191
-2.7373e-188
7.50357e-191
-2.18909e-188
6.29032e-191
-1.7072e-188
5.10819e-191
-1.29672e-188
4.01521e-191
-9.57897e-189
3.05145e-191
-6.87024e-189
2.23921e-191
-4.77575e-189
1.58396e-191
-3.21093e-189
1.07806e-191
-2.08349e-189
7.04447e-192
-1.30154e-189
4.40866e-192
-7.80677e-190
2.63541e-192
-4.48304e-190
1.50025e-192
-2.45682e-190
8.10606e-193
-1.28043e-190
4.14177e-193
-6.32205e-191
1.99313e-193
-2.94485e-191
8.99328e-194
-1.28819e-191
3.78621e-194
-5.26532e-192
1.47931e-194
-1.99994e-192
5.33202e-195
-7.01644e-193
1.76131e-195
-2.25844e-193
5.29328e-196
-6.62024e-194
1.43565e-196
-1.75285e-194
3.48267e-197
-4.15396e-195
7.48152e-198
-8.72218e-196
1.40773e-198
-1.60466e-196
2.29237e-199
-2.55508e-197
3.18771e-200
-3.47331e-198
3.72935e-201
-3.96949e-199
3.61035e-202
-3.74908e-200
2.84028e-203
-2.87151e-201
1.78127e-204
-1.7478e-202
8.72903e-206
-8.27407e-204
3.27713e-207
-2.9802e-205
9.2676e-209
-8.00251e-207
1.95745e-210
-1.57976e-208
3.11837e-212
-2.29554e-210
3.90055e-214
-2.52557e-212
4.11301e-216
-2.22898e-214
3.94249e-218
-1.67657e-216
3.60556e-220
-1.09288e-218
3.21451e-222
-5.72254e-221
2.81917e-224
-1.43281e-223
2.62782e-226
6.08484e-229
2.54955e-228
1.5773e-230
2.46698e-230
2.49577e-232
2.37818e-232
3.35678e-234
2.28159e-234
4.15027e-236
2.17605e-236
4.86401e-238
2.0609e-238
5.48438e-240
1.93598e-240
5.99745e-242
1.80176e-242
6.39011e-244
1.65927e-244
6.65131e-246
1.51015e-246
6.77343e-248
1.35659e-248
6.75341e-250
1.20123e-250
6.59373e-252
1.047e-252
6.30297e-254
8.97001e-255
5.8959e-256
7.54238e-257
5.39295e-258
6.21459e-259
4.81916e-260
5.00947e-261
4.20252e-262
3.94363e-263
3.57189e-264
3.02644e-265
2.9548e-266
2.25975e-267
2.37536e-268
1.63829e-269
1.85253e-270
1.15074e-271
1.39904e-272
7.81261e-274
1.02107e-274
5.11398e-276
7.18597e-277
3.21874e-278
4.86506e-279
1.94221e-280
3.16034e-281
1.11993e-282
1.9642e-283
6.14938e-285
1.16435e-285
3.20275e-287
6.56029e-288
1.57532e-289
3.49976e-290
7.2819e-292
1.76019e-292
3.14581e-294
8.30584e-295
1.26201e-296
3.65692e-297
4.66675e-299
1.49281e-299
1.57686e-301
5.6085e-302
4.81772e-304
1.92248e-304
1.31394e-306
5.94988e-307
3.14746e-309
1.64137e-309
6.48423e-312
3.97136e-312
1.11647e-314
8.25215e-315
1.54177e-317
1.43113e-317
1.60028e-320
1.98763e-320
9.88131e-324
1.97626e-323
0
0
0
0
0
0
-7.85564e-322
0
-1.13575e-318
1.47232e-321
-1.09636e-315
1.41355e-318
-7.95092e-313
1.01918e-315
-4.62317e-310
5.8837e-313
-2.2463e-307
2.83432e-310
-9.3852e-305
1.17242e-307
-3.44372e-302
4.25311e-305
-1.12787e-299
1.37514e-302
-3.33987e-297
4.01405e-300
-9.03661e-295
1.06898e-297
-2.25364e-292
2.61994e-295
-5.21903e-290
5.95325e-293
-1.12952e-287
1.26216e-290
-2.2973e-285
2.51053e-288
-4.41249e-283
4.70778e-286
-8.03877e-281
8.35855e-284
-1.39456e-278
1.41053e-281
-2.31184e-276
2.27024e-279
-3.67415e-274
3.49589e-277
-5.61451e-272
5.16512e-275
-8.27191e-270
7.34125e-273
-1.17796e-267
1.00615e-270
-1.62519e-265
1.33263e-268
-2.17709e-263
1.70917e-266
-2.83751e-261
2.12664e-264
-3.60518e-259
2.57141e-262
-4.47339e-257
3.02613e-260
-5.43025e-255
3.47097e-258
-6.45937e-253
3.88516e-256
-7.54099e-251
4.24857e-254
-8.65339e-249
4.54305e-252
-9.77439e-247
4.75375e-250
-1.08827e-244
4.87008e-248
-1.19594e-242
4.88582e-246
-1.29887e-240
4.79899e-244
-1.39587e-238
4.61176e-242
-1.48618e-236
4.3298e-240
-1.56948e-234
3.96091e-238
-1.64587e-232
3.51431e-236
-1.71583e-230
3.00014e-234
-1.78019e-228
2.42816e-232
-1.84007e-226
1.8071e-230
-1.89687e-224
1.14426e-228
-1.95218e-222
4.44843e-227
-1.91996e-220
-8.79255e-222
-1.6702e-218
-3.05403e-219
-1.27097e-216
-4.50098e-217
-8.35895e-215
-4.76938e-215
-4.69105e-213
-3.97261e-213
-2.21724e-211
-2.66611e-211
-8.71597e-210
-1.44889e-209
-2.81847e-208
-6.36122e-208
-7.43659e-207
-2.2465e-206
-1.59436e-205
-6.36081e-205
-2.77829e-204
-1.44358e-203
-3.95263e-203
-2.63534e-202
-4.62674e-202
-3.89774e-201
-4.5012e-201
-4.717e-200
-3.6816e-200
-4.7261e-199
-2.56204e-199
-3.97073e-198
-1.53488e-198
-2.8338e-197
-8.00431e-198
-1.73942e-196
-3.6719e-197
-9.29016e-196
-1.49645e-196
-4.36467e-195
-5.46805e-196
-1.82225e-194
-1.80662e-195
-6.82482e-194
-5.43843e-195
-2.31288e-193
-1.50203e-194
-7.14782e-193
-3.83039e-194
-2.02879e-192
-9.07135e-194
-5.32316e-192
-2.00553e-193
-1.29874e-191
-4.1591e-193
-2.96221e-191
-8.12632e-193
-6.34727e-191
-1.502e-192
-1.28353e-190
-2.63588e-192
-2.45975e-190
-4.4067e-192
-4.48445e-190
-7.03899e-192
-7.80516e-190
-1.07709e-191
-1.30097e-189
-1.58265e-191
-2.08254e-189
-2.2379e-191
-3.21006e-189
-3.0509e-191
-4.77618e-189
-4.01694e-191
-6.87462e-189
-5.11488e-191
-9.59259e-189
-6.30626e-191
-1.29999e-188
-7.5347e-191
-1.71406e-188
-8.72853e-191
-2.20222e-188
-9.80582e-191
-2.76084e-188
-1.06797e-190
-3.38165e-188
-1.12672e-190
-4.05134e-188
-1.14965e-190
-4.75244e-188
-1.13135e-190
-5.46387e-188
-1.06883e-190
-6.1619e-188
-9.61266e-191
-6.82164e-188
-8.03988e-191
-7.41378e-188
-5.41696e-191
-7.84038e-188
-6.86113e-192
-7.18817e-188
-2.23555e-201
-1.42353e-188
-1.03999e-197
4.35024e-198
-2.0977e-194
7.12328e-189
-1.45781e-185
5.04879e-188
-6.55761e-185
7.47484e-188
-7.14618e-185
9.04518e-188
-6.86353e-185
1.01832e-187
-6.41527e-185
1.09015e-187
-5.87643e-185
1.11943e-187
-5.27587e-185
1.10798e-187
-4.64101e-185
1.06031e-187
-3.99855e-185
9.82868e-188
-3.3721e-185
8.8339e-188
-2.78138e-185
7.70183e-188
-2.24172e-185
6.51283e-188
-1.76343e-185
5.33948e-188
-1.35221e-185
4.24076e-188
-1.00928e-185
3.25928e-188
-7.32047e-186
2.42091e-188
-5.15074e-186
1.73498e-188
-3.50851e-186
1.1975e-188
-2.30867e-186
7.94325e-189
-1.46399e-186
5.05152e-189
-8.92309e-187
3.07184e-189
-5.21253e-187
1.78092e-189
-2.90921e-187
9.81146e-190
-1.54597e-187
5.11802e-190
-7.79283e-188
2.51777e-190
-3.71081e-188
1.16298e-190
-1.66173e-188
5.01961e-191
-6.96344e-189
2.01378e-191
-2.71589e-189
7.46527e-192
-9.80001e-190
2.54068e-192
-3.25011e-190
7.8815e-193
-9.83457e-191
2.21087e-193
-2.69333e-191
5.55869e-194
-6.61597e-192
1.2404e-194
-1.44319e-192
2.43012e-195
-2.76495e-193
4.13051e-196
-4.59636e-194
6.01087e-197
-6.5405e-195
7.37903e-198
-7.84625e-196
7.51647e-199
-7.80092e-197
6.23905e-200
-6.30776e-198
4.13936e-201
-4.06467e-199
2.151e-202
-2.04241e-200
8.57772e-204
-7.82394e-202
2.57752e-205
-2.23622e-203
5.77193e-207
-4.69169e-205
9.68482e-209
-7.20488e-207
1.26039e-210
-8.28231e-209
1.36173e-212
-7.52075e-211
1.32143e-214
-5.74618e-213
1.21609e-216
-3.78162e-215
1.08806e-218
-1.99814e-217
9.56289e-221
-5.15089e-220
8.92631e-223
2.54624e-225
8.69456e-225
6.72828e-227
8.44639e-227
1.07258e-228
8.17495e-229
1.45062e-230
7.87455e-231
1.80231e-232
7.54082e-233
2.122e-234
7.171e-235
2.40336e-236
6.76414e-237
2.63977e-238
6.32132e-239
2.82488e-240
5.84575e-241
2.95315e-242
5.3428e-243
3.02044e-244
4.81988e-245
3.0246e-246
4.2861e-247
2.96594e-248
3.75187e-249
2.84753e-250
3.22824e-251
2.67529e-252
2.72626e-253
2.45783e-254
2.25616e-255
2.20604e-256
1.82666e-257
1.9323e-258
1.44438e-259
1.64968e-260
1.1134e-261
1.3708e-262
8.35069e-264
1.10695e-264
6.08145e-266
8.6721e-267
4.29097e-268
6.57901e-269
2.9265e-270
4.82351e-271
1.9244e-272
3.41021e-273
1.21679e-274
2.31943e-275
7.37614e-277
1.51368e-277
4.27302e-279
9.45146e-280
2.3572e-281
5.62883e-282
1.23343e-283
3.1863e-284
6.09531e-286
1.7078e-286
2.83082e-288
8.6298e-289
1.2287e-290
4.09142e-291
4.95253e-293
1.80993e-293
1.84008e-295
7.42354e-296
6.24708e-298
2.80233e-298
1.91775e-300
9.65173e-301
5.25528e-303
3.00139e-303
1.2649e-305
8.31949e-306
2.61838e-308
2.02258e-308
4.53002e-311
4.22292e-311
6.28574e-314
7.3588e-314
6.55571e-317
1.02705e-316
4.56714e-320
1.07593e-319
1.4822e-323
7.41098e-323
0
0
-1.01283e-321
0
-2.92241e-318
4.8122e-321
-4.20718e-315
6.90489e-318
-4.04185e-312
6.60413e-315
-2.91717e-309
4.73883e-312
-1.68812e-306
2.72262e-309
-8.1631e-304
1.30528e-306
-3.39436e-301
5.37356e-304
-1.23957e-298
1.94003e-301
-4.04053e-296
6.24273e-299
-1.19083e-293
1.81361e-296
-3.20677e-291
4.8069e-294
-7.9597e-289
1.17254e-291
-1.83467e-286
2.6518e-289
-3.95207e-284
5.5957e-287
-8.00045e-282
1.10781e-284
-1.52953e-279
2.06768e-282
-2.77362e-277
3.65403e-280
-4.78943e-275
6.13766e-278
-7.90326e-273
9.83284e-276
-1.2503e-270
1.50717e-273
-1.90189e-268
2.2166e-271
-2.78938e-266
3.13611e-269
-3.9543e-264
4.27864e-267
-5.43113e-262
5.64134e-265
-7.24302e-260
7.20272e-263
-9.3983e-258
8.92175e-261
-1.18883e-255
1.07394e-258
-1.46866e-253
1.25823e-256
-1.77503e-251
1.4368e-254
-2.10228e-249
1.60115e-252
-2.44374e-247
1.74322e-250
-2.79223e-245
1.8559e-248
-3.14055e-243
1.93352e-246
-3.48192e-241
1.9722e-244
-3.81037e-239
1.96996e-242
-4.12108e-237
1.92656e-240
-4.41053e-235
1.84335e-238
-4.67662e-233
1.72304e-236
-4.91863e-231
1.56926e-234
-5.13717e-229
1.38608e-232
-5.33404e-227
1.17777e-230
-5.51207e-225
9.48484e-229
-5.67497e-223
7.01908e-227
-5.82719e-221
4.41058e-225
-5.97378e-219
1.681e-223
-5.83453e-217
-2.86039e-218
-5.02236e-215
-9.58439e-216
-3.76683e-213
-1.38905e-213
-2.43113e-211
-1.44538e-211
-1.3326e-209
-1.17794e-209
-6.12182e-208
-7.70046e-208
-2.32745e-206
-4.05669e-206
-7.24535e-205
-1.71814e-204
-1.83309e-203
-5.82701e-203
-3.75731e-202
-1.57849e-201
-6.24829e-201
-3.41822e-200
-8.47744e-200
-5.94534e-199
-9.46604e-199
-8.37475e-198
-8.79332e-198
-9.65808e-197
-6.87738e-197
-9.2324e-196
-4.58466e-196
-7.41277e-195
-2.63618e-195
-5.06539e-194
-1.32218e-194
-2.98316e-193
-5.84509e-194
-1.53196e-192
-2.30014e-193
-6.93464e-192
-8.13118e-193
-2.79516e-191
-2.60382e-192
-1.01268e-190
-7.61044e-192
-3.32596e-190
-2.04425e-191
-9.97936e-190
-5.07815e-191
-2.75466e-189
-1.17328e-190
-7.0403e-189
-2.53428e-190
-1.67572e-188
-5.14197e-190
-3.73409e-188
-9.84259e-190
-7.82811e-188
-1.78446e-189
-1.55082e-187
-3.0753e-189
-2.9152e-187
-5.05446e-189
-5.21928e-187
-7.94556e-189
-8.93066e-187
-1.19775e-188
-1.46495e-186
-1.7355e-188
-2.31022e-186
-2.42226e-188
-3.5116e-186
-3.26257e-188
-5.15725e-186
-4.2478e-188
-7.33402e-186
-5.35318e-188
-1.01198e-185
-6.53753e-188
-1.35732e-185
-7.74304e-188
-1.77271e-185
-8.89838e-188
-2.25777e-185
-9.92411e-188
-2.80794e-185
-1.07379e-187
-3.41442e-185
-1.12629e-187
-4.06392e-185
-1.14334e-187
-4.73959e-185
-1.12014e-187
-5.42136e-185
-1.05422e-187
-6.08691e-185
-9.45206e-188
-6.71321e-185
-7.8882e-188
-7.27351e-185
-5.31393e-188
-7.67473e-185
-6.84338e-189
-7.03479e-185
-2.77971e-198
-1.41595e-185
-1.28842e-194
3.89177e-195
-1.88448e-191
5.59138e-186
-1.15702e-182
3.96933e-185
-5.19664e-182
5.87435e-185
-5.64033e-182
7.09835e-185
-5.39524e-182
7.98958e-185
-5.03346e-182
8.56581e-185
-4.61237e-182
8.82107e-185
-4.15e-182
8.7662e-185
-3.66384e-182
8.43166e-185
-3.17184e-182
7.86294e-185
-2.69057e-182
7.11601e-185
-2.23434e-182
6.25236e-185
-1.81469e-182
5.33277e-185
-1.43976e-182
4.4135e-185
-1.11445e-182
3.5416e-185
-8.40396e-183
2.75252e-185
-6.16384e-183
2.06933e-185
-4.3895e-183
1.50242e-185
-3.02903e-183
1.05157e-185
-2.02114e-183
7.08032e-186
-1.30095e-183
4.57533e-186
-8.05706e-184
2.8302e-186
-4.78764e-184
1.67099e-186
-2.72117e-184
9.38639e-187
-1.47438e-184
4.99857e-187
-7.58714e-185
2.51372e-187
-3.69322e-185
1.1886e-187
-1.69301e-185
5.25945e-188
-7.27329e-186
2.16654e-188
-2.91279e-186
8.2605e-189
-1.08103e-186
2.89657e-189
-3.69397e-187
9.27538e-190
-1.15388e-187
2.69119e-190
-3.26871e-188
7.01347e-191
-8.32333e-189
1.62585e-191
-1.8864e-189
3.31695e-192
-3.76404e-190
5.88578e-193
-6.53362e-191
8.96566e-194
-9.73429e-192
1.15528e-194
-1.22615e-192
1.23873e-195
-1.28377e-193
1.08542e-196
-1.09641e-194
7.62337e-198
-7.48459e-196
4.20429e-199
-3.99515e-197
1.78286e-200
-1.62947e-198
5.70136e-202
-4.96477e-200
1.35661e-203
-1.10944e-201
2.40493e-205
-1.8061e-203
3.26884e-207
-2.1779e-205
3.63147e-209
-2.04282e-207
3.57619e-211
-1.59004e-209
3.31673e-213
-1.05866e-211
2.98153e-215
-5.65759e-214
2.62864e-217
-1.51069e-216
2.4581e-219
8.19207e-222
2.40598e-221
2.21938e-223
2.34881e-223
3.57152e-225
2.28462e-225
4.8639e-227
2.21169e-227
6.0801e-229
2.12866e-229
7.19982e-231
2.03457e-231
8.19997e-233
1.92899e-233
9.05604e-235
1.81203e-235
9.74385e-237
1.68444e-237
1.02415e-238
1.54761e-239
1.05317e-240
1.40352e-241
1.06034e-242
1.25475e-243
1.04544e-244
1.10425e-245
1.00918e-246
9.55276e-248
9.5334e-249
8.11128e-250
8.80678e-251
6.74943e-252
7.94835e-253
5.49475e-254
7.00089e-255
4.36898e-256
6.01038e-257
3.38665e-258
5.02244e-259
2.55435e-260
4.07867e-261
1.87075e-262
3.21349e-263
1.32749e-264
2.45181e-265
9.10553e-267
1.80791e-267
6.02207e-269
1.28557e-269
3.82977e-271
8.79447e-272
2.33509e-273
5.77278e-274
1.36063e-275
3.62564e-276
7.54992e-278
2.17194e-278
3.97385e-280
1.23672e-280
1.9754e-282
6.66783e-283
9.22868e-285
3.38939e-285
4.02951e-287
1.6165e-287
1.63388e-289
7.19373e-290
6.10696e-292
2.96826e-292
2.08578e-294
1.12724e-294
6.44158e-297
3.90581e-297
1.77587e-299
1.22192e-299
4.30023e-302
3.40752e-302
8.9555e-305
8.33435e-305
1.55878e-307
1.75069e-307
2.17609e-310
3.06929e-310
2.28337e-313
4.30982e-313
1.60045e-316
4.54247e-316
5.62296e-320
3.19374e-319
0
1.13635e-322
-3.23982e-318
6.4772e-321
-9.27578e-315
1.85099e-317
-1.32728e-311
2.64045e-314
-1.2674e-308
2.51014e-311
-9.09204e-306
1.79026e-308
-5.22967e-303
1.02235e-305
-2.51363e-300
4.87176e-303
-1.03892e-297
1.9935e-300
-3.77123e-295
7.15382e-298
-1.22191e-292
2.28816e-295
-3.5797e-290
6.60758e-293
-9.58228e-288
1.74084e-290
-2.36434e-285
4.2211e-288
-5.41739e-283
9.48957e-286
-1.16008e-280
1.99057e-283
-2.33461e-278
3.91755e-281