/*--------------------------------*- C++ -*----------------------------------*\
| =========                 |                                                 |
| \\      /  F ield         | OpenFOAM: The Open Source CFD Toolbox           |
|  \\    /   O peration     | Version:  2412                                  |
|   \\  /    A nd           | Website:  www.openfoam.com                      |
|    \\/     M anipulation  |                                                 |
\*---------------------------------------------------------------------------*/
FoamFile
{
    version     2.0;
    format      ascii;
    arch        "LSB;label=32;scalar=64";
    class       volScalarField;
    location    "1.07";
    object      p;
}
// * * * * * * * * * * * * * * * * * * * * * * * * * * * * * * * * * * * * * //

dimensions      [1 -1 -2 0 0 0 0];

internalField   nonuniform List<scalar> 
40000
(
0
-0.00010563
-0.000354905
-0.000775204
-0.00137141
-0.00214149
-0.00308323
-0.00419556
-0.00547708
-0.00692652
-0.00854262
-0.0103242
-0.01227
-0.0143786
-0.0166487
-0.0190786
-0.0216667
-0.0244112
-0.0273103
-0.0303617
-0.0335634
-0.0369131
-0.0404082
-0.0440463
-0.0478247
-0.0517409
-0.0557919
-0.0599748
-0.0642863
-0.0687231
-0.0732816
-0.0779583
-0.0827496
-0.0876518
-0.0926612
-0.0977736
-0.102985
-0.108291
-0.113686
-0.119168
-0.12473
-0.130368
-0.136078
-0.141853
-0.14769
-0.153581
-0.159523
-0.165509
-0.171533
-0.177591
-0.183675
-0.189781
-0.195903
-0.202034
-0.208168
-0.214299
-0.22042
-0.226526
-0.232609
-0.238664
-0.244684
-0.250661
-0.25659
-0.262463
-0.268275
-0.274018
-0.279686
-0.285273
-0.290772
-0.296177
-0.301482
-0.30668
-0.311765
-0.31673
-0.321569
-0.326277
-0.330848
-0.335275
-0.339554
-0.343678
-0.347644
-0.351445
-0.355077
-0.358535
-0.361814
-0.36491
-0.36782
-0.370538
-0.373061
-0.375387
-0.377512
-0.379432
-0.381147
-0.382652
-0.383947
-0.385029
-0.385896
-0.386549
-0.386986
-0.387206
-0.387209
-0.386995
-0.386565
-0.385919
-0.385057
-0.383982
-0.382694
-0.381195
-0.379487
-0.377573
-0.375455
-0.373136
-0.370619
-0.367908
-0.365005
-0.361916
-0.358643
-0.355192
-0.351567
-0.347773
-0.343814
-0.339696
-0.335424
-0.331003
-0.326439
-0.321737
-0.316904
-0.311945
-0.306867
-0.301676
-0.296378
-0.290979
-0.285485
-0.279904
-0.274241
-0.268503
-0.262696
-0.256828
-0.250905
-0.244933
-0.23892
-0.23287
-0.226792
-0.220691
-0.214575
-0.208448
-0.202318
-0.196192
-0.190074
-0.183972
-0.177891
-0.171837
-0.165816
-0.159834
-0.153896
-0.148008
-0.142176
-0.136404
-0.130698
-0.125064
-0.119505
-0.114027
-0.108634
-0.103331
-0.0981224
-0.0930126
-0.0880057
-0.0831058
-0.0783167
-0.0736422
-0.0690858
-0.064651
-0.0603416
-0.0561606
-0.0521114
-0.0481968
-0.0444197
-0.0407829
-0.037289
-0.0339403
-0.0307396
-0.0276891
-0.0247909
-0.022047
-0.0194591
-0.0170291
-0.0147589
-0.0126499
-0.0107036
-0.00892096
-0.00730307
-0.00585134
-0.00456685
-0.0034502
-0.00250212
-0.00172313
-0.00111381
-0.000674588
-0.000406322
-0.000299146
-3.92389
-3.92399
-3.92424
-3.92466
-3.92526
-3.92603
-3.92697
-3.92809
-3.92937
-3.93082
-3.93244
-3.93422
-3.93617
-3.93828
-3.94055
-3.94298
-3.94557
-3.94831
-3.95121
-3.95427
-3.95747
-3.96082
-3.96432
-3.96796
-3.97174
-3.97565
-3.97971
-3.98389
-3.98821
-3.99265
-3.99721
-4.00188
-4.00668
-4.01158
-4.0166
-4.02171
-4.02692
-4.03223
-4.03763
-4.04312
-4.04868
-4.05432
-4.06004
-4.06581
-4.07165
-4.07755
-4.08349
-4.08948
-4.09551
-4.10157
-4.10766
-4.11377
-4.1199
-4.12603
-4.13217
-4.13831
-4.14443
-4.15054
-4.15663
-4.16269
-4.16871
-4.17469
-4.18063
-4.1865
-4.19232
-4.19807
-4.20374
-4.20933
-4.21483
-4.22024
-4.22555
-4.23075
-4.23584
-4.24081
-4.24565
-4.25037
-4.25494
-4.25937
-4.26365
-4.26778
-4.27175
-4.27555
-4.27919
-4.28265
-4.28593
-4.28903
-4.29194
-4.29466
-4.29719
-4.29952
-4.30164
-4.30357
-4.30528
-4.30679
-4.30808
-4.30917
-4.31004
-4.31069
-4.31113
-4.31135
-4.31135
-4.31114
-4.31071
-4.31006
-4.3092
-4.30812
-4.30683
-4.30533
-4.30362
-4.30171
-4.29959
-4.29726
-4.29475
-4.29203
-4.28913
-4.28603
-4.28276
-4.27931
-4.27568
-4.27188
-4.26792
-4.2638
-4.25952
-4.2551
-4.25053
-4.24582
-4.24099
-4.23602
-4.23094
-4.22575
-4.22044
-4.21504
-4.20954
-4.20396
-4.19829
-4.19255
-4.18674
-4.18086
-4.17494
-4.16896
-4.16294
-4.15689
-4.15081
-4.1447
-4.13858
-4.13245
-4.12632
-4.12019
-4.11406
-4.10796
-4.10187
-4.09582
-4.08979
-4.08381
-4.07786
-4.07197
-4.06614
-4.06036
-4.05465
-4.04902
-4.04345
-4.03797
-4.03258
-4.02727
-4.02206
-4.01695
-4.01194
-4.00704
-4.00224
-3.99757
-3.99301
-3.98857
-3.98426
-3.98008
-3.97603
-3.97211
-3.96833
-3.96469
-3.9612
-3.95785
-3.95464
-3.95159
-3.94869
-3.94595
-3.94336
-3.94093
-3.93866
-3.93655
-3.9346
-3.93282
-3.9312
-3.92974
-3.92846
-3.92734
-3.92639
-3.92561
-3.92501
-3.92457
-3.9243
-3.92419
-7.84761
-7.84771
-7.84797
-7.84839
-7.849
-7.84977
-7.85071
-7.85183
-7.85311
-7.85456
-7.85618
-7.85797
-7.85991
-7.86203
-7.8643
-7.86673
-7.86932
-7.87207
-7.87498
-7.87803
-7.88124
-7.88459
-7.88809
-7.89174
-7.89552
-7.89945
-7.9035
-7.90769
-7.91201
-7.91646
-7.92102
-7.92571
-7.93051
-7.93542
-7.94044
-7.94556
-7.95078
-7.95609
-7.9615
-7.96699
-7.97256
-7.97821
-7.98393
-7.98972
-7.99557
-8.00147
-8.00743
-8.01342
-8.01946
-8.02553
-8.03163
-8.03775
-8.04388
-8.05003
-8.05618
-8.06232
-8.06846
-8.07458
-8.08067
-8.08674
-8.09278
-8.09877
-8.10471
-8.1106
-8.11643
-8.12218
-8.12787
-8.13347
-8.13898
-8.1444
-8.14972
-8.15493
-8.16003
-8.16501
-8.16986
-8.17458
-8.17917
-8.1836
-8.1879
-8.19203
-8.19601
-8.19982
-8.20346
-8.20693
-8.21022
-8.21333
-8.21624
-8.21897
-8.2215
-8.22383
-8.22597
-8.22789
-8.22961
-8.23112
-8.23242
-8.2335
-8.23438
-8.23503
-8.23547
-8.23569
-8.23569
-8.23548
-8.23505
-8.2344
-8.23353
-8.23245
-8.23116
-8.22966
-8.22795
-8.22603
-8.2239
-8.22158
-8.21905
-8.21633
-8.21342
-8.21032
-8.20704
-8.20358
-8.19994
-8.19614
-8.19217
-8.18804
-8.18375
-8.17932
-8.17474
-8.17003
-8.16518
-8.16021
-8.15512
-8.14991
-8.1446
-8.13919
-8.13368
-8.12808
-8.12241
-8.11665
-8.11083
-8.10495
-8.09901
-8.09303
-8.087
-8.08093
-8.07484
-8.06873
-8.0626
-8.05646
-8.05031
-8.04417
-8.03804
-8.03193
-8.02583
-8.01977
-8.01373
-8.00774
-8.00179
-7.99589
-7.99004
-7.98426
-7.97854
-7.9729
-7.96733
-7.96184
-7.95644
-7.95112
-7.94591
-7.94079
-7.93577
-7.93086
-7.92607
-7.92138
-7.91682
-7.91238
-7.90806
-7.90387
-7.89982
-7.8959
-7.89211
-7.88847
-7.88497
-7.88162
-7.87841
-7.87536
-7.87245
-7.8697
-7.86711
-7.86468
-7.86241
-7.86029
-7.85834
-7.85656
-7.85494
-7.85349
-7.8522
-7.85108
-7.85013
-7.84935
-7.84874
-7.8483
-7.84804
-7.84793
-11.7712
-11.7713
-11.7715
-11.772
-11.7726
-11.7733
-11.7743
-11.7754
-11.7767
-11.7781
-11.7798
-11.7815
-11.7835
-11.7856
-11.7879
-11.7903
-11.7929
-11.7957
-11.7986
-11.8016
-11.8049
-11.8082
-11.8117
-11.8154
-11.8192
-11.8231
-11.8272
-11.8314
-11.8357
-11.8401
-11.8447
-11.8494
-11.8542
-11.8591
-11.8642
-11.8693
-11.8745
-11.8799
-11.8853
-11.8908
-11.8964
-11.902
-11.9078
-11.9136
-11.9194
-11.9253
-11.9313
-11.9373
-11.9434
-11.9495
-11.9556
-11.9617
-11.9679
-11.974
-11.9802
-11.9863
-11.9925
-11.9986
-12.0047
-12.0108
-12.0169
-12.0229
-12.0289
-12.0348
-12.0406
-12.0464
-12.0521
-12.0577
-12.0632
-12.0687
-12.074
-12.0792
-12.0843
-12.0893
-12.0942
-12.0989
-12.1035
-12.108
-12.1123
-12.1164
-12.1204
-12.1243
-12.1279
-12.1314
-12.1347
-12.1378
-12.1407
-12.1435
-12.146
-12.1484
-12.1505
-12.1524
-12.1542
-12.1557
-12.157
-12.1581
-12.1589
-12.1596
-12.16
-12.1603
-12.1603
-12.16
-12.1596
-12.159
-12.1581
-12.157
-12.1557
-12.1542
-12.1525
-12.1506
-12.1484
-12.1461
-12.1436
-12.1408
-12.1379
-12.1348
-12.1315
-12.128
-12.1244
-12.1206
-12.1166
-12.1124
-12.1081
-12.1037
-12.0991
-12.0944
-12.0895
-12.0845
-12.0794
-12.0742
-12.0689
-12.0634
-12.0579
-12.0523
-12.0466
-12.0408
-12.035
-12.0291
-12.0231
-12.0171
-12.0111
-12.005
-11.9989
-11.9928
-11.9866
-11.9805
-11.9743
-11.9681
-11.962
-11.9559
-11.9498
-11.9437
-11.9376
-11.9316
-11.9257
-11.9197
-11.9139
-11.9081
-11.9024
-11.8967
-11.8911
-11.8856
-11.8802
-11.8749
-11.8697
-11.8645
-11.8595
-11.8546
-11.8498
-11.8451
-11.8405
-11.8361
-11.8317
-11.8275
-11.8235
-11.8195
-11.8158
-11.8121
-11.8086
-11.8052
-11.802
-11.799
-11.7961
-11.7933
-11.7907
-11.7883
-11.786
-11.7839
-11.7819
-11.7801
-11.7785
-11.7771
-11.7758
-11.7747
-11.7737
-11.7729
-11.7723
-11.7719
-11.7716
-11.7715
-15.6945
-15.6946
-15.6949
-15.6953
-15.696
-15.6967
-15.6977
-15.6988
-15.7001
-15.7015
-15.7032
-15.705
-15.7069
-15.709
-15.7113
-15.7138
-15.7164
-15.7191
-15.722
-15.7251
-15.7283
-15.7317
-15.7352
-15.7389
-15.7427
-15.7466
-15.7507
-15.7549
-15.7592
-15.7637
-15.7683
-15.773
-15.7778
-15.7828
-15.7878
-15.793
-15.7982
-15.8035
-15.809
-15.8145
-15.8201
-15.8258
-15.8315
-15.8373
-15.8432
-15.8492
-15.8552
-15.8612
-15.8673
-15.8734
-15.8795
-15.8857
-15.8918
-15.898
-15.9042
-15.9104
-15.9166
-15.9227
-15.9289
-15.935
-15.941
-15.9471
-15.9531
-15.959
-15.9648
-15.9706
-15.9764
-15.982
-15.9876
-15.993
-15.9984
-16.0036
-16.0088
-16.0138
-16.0187
-16.0234
-16.0281
-16.0325
-16.0369
-16.041
-16.045
-16.0489
-16.0525
-16.056
-16.0594
-16.0625
-16.0654
-16.0682
-16.0707
-16.0731
-16.0752
-16.0772
-16.0789
-16.0804
-16.0817
-16.0828
-16.0837
-16.0844
-16.0848
-16.085
-16.085
-16.0848
-16.0844
-16.0837
-16.0829
-16.0818
-16.0805
-16.079
-16.0772
-16.0753
-16.0732
-16.0708
-16.0683
-16.0655
-16.0626
-16.0595
-16.0561
-16.0527
-16.049
-16.0452
-16.0412
-16.037
-16.0327
-16.0282
-16.0236
-16.0188
-16.014
-16.0089
-16.0038
-15.9986
-15.9932
-15.9878
-15.9822
-15.9766
-15.9709
-15.9651
-15.9592
-15.9533
-15.9473
-15.9413
-15.9352
-15.9291
-15.923
-15.9168
-15.9107
-15.9045
-15.8983
-15.8921
-15.8859
-15.8798
-15.8737
-15.8676
-15.8615
-15.8555
-15.8495
-15.8435
-15.8377
-15.8319
-15.8261
-15.8204
-15.8148
-15.8093
-15.8039
-15.7985
-15.7933
-15.7882
-15.7831
-15.7782
-15.7734
-15.7687
-15.7641
-15.7596
-15.7553
-15.7511
-15.747
-15.7431
-15.7393
-15.7356
-15.7321
-15.7287
-15.7255
-15.7224
-15.7195
-15.7168
-15.7141
-15.7117
-15.7094
-15.7073
-15.7053
-15.7036
-15.7019
-15.7005
-15.6992
-15.6981
-15.6971
-15.6963
-15.6957
-15.6953
-15.695
-15.6949
-19.6177
-19.6179
-19.6181
-19.6186
-19.6192
-19.62
-19.6209
-19.622
-19.6233
-19.6248
-19.6264
-19.6282
-19.6302
-19.6323
-19.6346
-19.637
-19.6397
-19.6424
-19.6454
-19.6484
-19.6517
-19.655
-19.6586
-19.6622
-19.6661
-19.67
-19.6741
-19.6783
-19.6827
-19.6872
-19.6918
-19.6965
-19.7013
-19.7063
-19.7113
-19.7165
-19.7218
-19.7271
-19.7326
-19.7381
-19.7438
-19.7495
-19.7552
-19.7611
-19.767
-19.7729
-19.7789
-19.785
-19.7911
-19.7972
-19.8034
-19.8096
-19.8158
-19.822
-19.8282
-19.8344
-19.8406
-19.8468
-19.853
-19.8591
-19.8652
-19.8713
-19.8773
-19.8833
-19.8892
-19.895
-19.9007
-19.9064
-19.912
-19.9175
-19.9229
-19.9282
-19.9333
-19.9384
-19.9433
-19.9481
-19.9527
-19.9572
-19.9616
-19.9658
-19.9698
-19.9737
-19.9774
-19.9809
-19.9842
-19.9874
-19.9903
-19.9931
-19.9956
-19.998
-20.0002
-20.0021
-20.0039
-20.0054
-20.0067
-20.0078
-20.0087
-20.0094
-20.0098
-20.01
-20.01
-20.0098
-20.0094
-20.0087
-20.0079
-20.0068
-20.0054
-20.0039
-20.0022
-20.0002
-19.9981
-19.9957
-19.9932
-19.9904
-19.9874
-19.9843
-19.981
-19.9775
-19.9738
-19.9699
-19.9659
-19.9617
-19.9574
-19.9529
-19.9482
-19.9435
-19.9385
-19.9335
-19.9283
-19.9231
-19.9177
-19.9122
-19.9066
-19.901
-19.8952
-19.8894
-19.8835
-19.8775
-19.8715
-19.8655
-19.8594
-19.8532
-19.8471
-19.8409
-19.8347
-19.8285
-19.8223
-19.8161
-19.8099
-19.8037
-19.7975
-19.7914
-19.7853
-19.7793
-19.7733
-19.7673
-19.7614
-19.7556
-19.7498
-19.7441
-19.7385
-19.7329
-19.7275
-19.7221
-19.7169
-19.7117
-19.7066
-19.7017
-19.6968
-19.6921
-19.6875
-19.683
-19.6787
-19.6745
-19.6704
-19.6664
-19.6626
-19.6589
-19.6554
-19.652
-19.6488
-19.6457
-19.6428
-19.64
-19.6374
-19.635
-19.6327
-19.6306
-19.6286
-19.6268
-19.6252
-19.6237
-19.6224
-19.6213
-19.6203
-19.6195
-19.6189
-19.6185
-19.6182
-19.6181
-23.5408
-23.5409
-23.5412
-23.5416
-23.5422
-23.543
-23.544
-23.5451
-23.5464
-23.5479
-23.5495
-23.5513
-23.5533
-23.5554
-23.5577
-23.5602
-23.5628
-23.5656
-23.5685
-23.5716
-23.5748
-23.5782
-23.5818
-23.5855
-23.5893
-23.5933
-23.5974
-23.6016
-23.606
-23.6105
-23.6151
-23.6198
-23.6247
-23.6297
-23.6348
-23.64
-23.6452
-23.6506
-23.6561
-23.6617
-23.6673
-23.6731
-23.6789
-23.6847
-23.6907
-23.6967
-23.7027
-23.7088
-23.7149
-23.7211
-23.7273
-23.7335
-23.7397
-23.746
-23.7522
-23.7585
-23.7647
-23.7709
-23.7771
-23.7833
-23.7895
-23.7956
-23.8016
-23.8076
-23.8135
-23.8194
-23.8252
-23.8309
-23.8365
-23.8421
-23.8475
-23.8528
-23.858
-23.8631
-23.868
-23.8728
-23.8775
-23.8821
-23.8864
-23.8907
-23.8947
-23.8986
-23.9023
-23.9059
-23.9092
-23.9124
-23.9154
-23.9182
-23.9208
-23.9232
-23.9253
-23.9273
-23.9291
-23.9306
-23.9319
-23.933
-23.9339
-23.9346
-23.935
-23.9353
-23.9353
-23.9351
-23.9346
-23.934
-23.9331
-23.932
-23.9306
-23.9291
-23.9274
-23.9254
-23.9232
-23.9208
-23.9183
-23.9155
-23.9125
-23.9093
-23.906
-23.9025
-23.8987
-23.8948
-23.8908
-23.8866
-23.8822
-23.8777
-23.873
-23.8682
-23.8632
-23.8582
-23.853
-23.8477
-23.8423
-23.8367
-23.8311
-23.8254
-23.8196
-23.8138
-23.8078
-23.8019
-23.7958
-23.7897
-23.7836
-23.7774
-23.7712
-23.765
-23.7588
-23.7525
-23.7463
-23.74
-23.7338
-23.7276
-23.7214
-23.7152
-23.7091
-23.703
-23.697
-23.691
-23.6851
-23.6792
-23.6734
-23.6677
-23.662
-23.6565
-23.651
-23.6456
-23.6403
-23.6351
-23.63
-23.6251
-23.6202
-23.6155
-23.6108
-23.6063
-23.602
-23.5977
-23.5936
-23.5897
-23.5858
-23.5821
-23.5786
-23.5752
-23.572
-23.5689
-23.5659
-23.5632
-23.5606
-23.5581
-23.5558
-23.5537
-23.5517
-23.5499
-23.5482
-23.5468
-23.5455
-23.5443
-23.5434
-23.5426
-23.542
-23.5415
-23.5413
-23.5412
-27.4637
-27.4638
-27.464
-27.4645
-27.4651
-27.4659
-27.4669
-27.468
-27.4693
-27.4708
-27.4724
-27.4742
-27.4762
-27.4784
-27.4807
-27.4831
-27.4858
-27.4886
-27.4915
-27.4946
-27.4979
-27.5013
-27.5048
-27.5085
-27.5124
-27.5164
-27.5205
-27.5248
-27.5291
-27.5337
-27.5383
-27.5431
-27.548
-27.553
-27.5581
-27.5633
-27.5686
-27.574
-27.5795
-27.5851
-27.5908
-27.5966
-27.6024
-27.6083
-27.6143
-27.6203
-27.6264
-27.6325
-27.6387
-27.6449
-27.6511
-27.6574
-27.6637
-27.67
-27.6762
-27.6825
-27.6888
-27.6951
-27.7013
-27.7076
-27.7137
-27.7199
-27.726
-27.732
-27.738
-27.7439
-27.7497
-27.7555
-27.7612
-27.7667
-27.7722
-27.7775
-27.7828
-27.7879
-27.7929
-27.7978
-27.8025
-27.807
-27.8115
-27.8157
-27.8198
-27.8237
-27.8275
-27.8311
-27.8345
-27.8377
-27.8407
-27.8435
-27.8461
-27.8485
-27.8507
-27.8527
-27.8545
-27.856
-27.8574
-27.8585
-27.8594
-27.86
-27.8605
-27.8607
-27.8607
-27.8605
-27.8601
-27.8594
-27.8585
-27.8574
-27.8561
-27.8545
-27.8527
-27.8508
-27.8486
-27.8462
-27.8436
-27.8408
-27.8378
-27.8346
-27.8312
-27.8276
-27.8239
-27.8199
-27.8159
-27.8116
-27.8072
-27.8026
-27.7979
-27.7931
-27.7881
-27.783
-27.7777
-27.7724
-27.7669
-27.7614
-27.7557
-27.75
-27.7441
-27.7382
-27.7322
-27.7262
-27.7201
-27.714
-27.7078
-27.7016
-27.6954
-27.6891
-27.6828
-27.6765
-27.6702
-27.664
-27.6577
-27.6514
-27.6452
-27.639
-27.6328
-27.6267
-27.6206
-27.6146
-27.6087
-27.6028
-27.5969
-27.5912
-27.5855
-27.5799
-27.5744
-27.569
-27.5637
-27.5584
-27.5533
-27.5483
-27.5434
-27.5387
-27.534
-27.5295
-27.5251
-27.5209
-27.5167
-27.5128
-27.5089
-27.5052
-27.5017
-27.4982
-27.495
-27.4919
-27.4889
-27.4861
-27.4835
-27.481
-27.4787
-27.4766
-27.4746
-27.4728
-27.4712
-27.4697
-27.4684
-27.4672
-27.4663
-27.4655
-27.4649
-27.4644
-27.4642
-27.464
-31.3864
-31.3865
-31.3868
-31.3872
-31.3878
-31.3886
-31.3896
-31.3907
-31.392
-31.3935
-31.3952
-31.397
-31.399
-31.4011
-31.4035
-31.4059
-31.4086
-31.4114
-31.4143
-31.4175
-31.4207
-31.4242
-31.4277
-31.4315
-31.4353
-31.4393
-31.4435
-31.4478
-31.4522
-31.4567
-31.4614
-31.4662
-31.4711
-31.4762
-31.4813
-31.4865
-31.4919
-31.4973
-31.5029
-31.5085
-31.5142
-31.52
-31.5259
-31.5319
-31.5379
-31.5439
-31.5501
-31.5562
-31.5624
-31.5687
-31.575
-31.5813
-31.5876
-31.5939
-31.6003
-31.6066
-31.6129
-31.6193
-31.6255
-31.6318
-31.6381
-31.6442
-31.6504
-31.6565
-31.6625
-31.6685
-31.6744
-31.6802
-31.6859
-31.6915
-31.697
-31.7024
-31.7077
-31.7129
-31.7179
-31.7228
-31.7276
-31.7322
-31.7366
-31.7409
-31.7451
-31.7491
-31.7528
-31.7564
-31.7599
-31.7631
-31.7661
-31.769
-31.7716
-31.774
-31.7763
-31.7783
-31.7801
-31.7816
-31.783
-31.7841
-31.785
-31.7857
-31.7862
-31.7864
-31.7864
-31.7862
-31.7857
-31.7851
-31.7842
-31.783
-31.7817
-31.7801
-31.7783
-31.7763
-31.7741
-31.7717
-31.7691
-31.7662
-31.7632
-31.76
-31.7566
-31.753
-31.7492
-31.7452
-31.7411
-31.7368
-31.7323
-31.7277
-31.723
-31.7181
-31.713
-31.7079
-31.7026
-31.6972
-31.6917
-31.6861
-31.6804
-31.6746
-31.6687
-31.6627
-31.6567
-31.6506
-31.6445
-31.6383
-31.6321
-31.6258
-31.6195
-31.6132
-31.6069
-31.6005
-31.5942
-31.5879
-31.5816
-31.5753
-31.569
-31.5628
-31.5565
-31.5504
-31.5443
-31.5382
-31.5322
-31.5262
-31.5204
-31.5146
-31.5089
-31.5032
-31.4977
-31.4922
-31.4869
-31.4817
-31.4765
-31.4715
-31.4666
-31.4618
-31.4571
-31.4526
-31.4481
-31.4439
-31.4397
-31.4357
-31.4318
-31.4281
-31.4245
-31.4211
-31.4179
-31.4147
-31.4118
-31.409
-31.4063
-31.4038
-31.4015
-31.3994
-31.3974
-31.3956
-31.3939
-31.3924
-31.3911
-31.39
-31.389
-31.3882
-31.3876
-31.3871
-31.3869
-31.3868
-35.3089
-35.309
-35.3093
-35.3097
-35.3104
-35.3112
-35.3121
-35.3133
-35.3146
-35.3161
-35.3177
-35.3196
-35.3216
-35.3237
-35.3261
-35.3286
-35.3312
-35.3341
-35.337
-35.3402
-35.3435
-35.3469
-35.3505
-35.3543
-35.3582
-35.3622
-35.3664
-35.3707
-35.3751
-35.3797
-35.3844
-35.3892
-35.3942
-35.3992
-35.4044
-35.4097
-35.4151
-35.4206
-35.4261
-35.4318
-35.4376
-35.4434
-35.4493
-35.4553
-35.4614
-35.4675
-35.4737
-35.4799
-35.4861
-35.4924
-35.4988
-35.5051
-35.5115
-35.5179
-35.5243
-35.5307
-35.5371
-35.5434
-35.5498
-35.5561
-35.5624
-35.5687
-35.5749
-35.581
-35.5871
-35.5931
-35.5991
-35.6049
-35.6107
-35.6164
-35.6219
-35.6274
-35.6327
-35.638
-35.6431
-35.648
-35.6528
-35.6575
-35.662
-35.6663
-35.6705
-35.6745
-35.6784
-35.682
-35.6855
-35.6887
-35.6918
-35.6947
-35.6974
-35.6998
-35.7021
-35.7041
-35.7059
-35.7075
-35.7089
-35.71
-35.7109
-35.7116
-35.7121
-35.7123
-35.7123
-35.7121
-35.7116
-35.711
-35.71
-35.7089
-35.7075
-35.706
-35.7041
-35.7021
-35.6999
-35.6974
-35.6948
-35.6919
-35.6888
-35.6856
-35.6821
-35.6785
-35.6747
-35.6707
-35.6665
-35.6621
-35.6576
-35.653
-35.6482
-35.6432
-35.6381
-35.6329
-35.6276
-35.6221
-35.6166
-35.6109
-35.6051
-35.5993
-35.5933
-35.5873
-35.5812
-35.5751
-35.5689
-35.5627
-35.5564
-35.5501
-35.5437
-35.5373
-35.531
-35.5246
-35.5182
-35.5118
-35.5054
-35.4991
-35.4928
-35.4865
-35.4802
-35.474
-35.4678
-35.4617
-35.4557
-35.4497
-35.4438
-35.4379
-35.4322
-35.4265
-35.4209
-35.4154
-35.41
-35.4048
-35.3996
-35.3945
-35.3896
-35.3848
-35.3801
-35.3755
-35.371
-35.3667
-35.3626
-35.3585
-35.3546
-35.3509
-35.3473
-35.3439
-35.3406
-35.3374
-35.3344
-35.3316
-35.329
-35.3265
-35.3241
-35.322
-35.32
-35.3181
-35.3165
-35.315
-35.3137
-35.3125
-35.3115
-35.3107
-35.3101
-35.3097
-35.3094
-35.3093
-39.2313
-39.2314
-39.2316
-39.2321
-39.2327
-39.2335
-39.2345
-39.2357
-39.237
-39.2385
-39.2402
-39.242
-39.244
-39.2462
-39.2485
-39.2511
-39.2537
-39.2566
-39.2596
-39.2627
-39.266
-39.2695
-39.2731
-39.2769
-39.2808
-39.2849
-39.2891
-39.2934
-39.2979
-39.3025
-39.3072
-39.3121
-39.3171
-39.3222
-39.3274
-39.3327
-39.3382
-39.3437
-39.3493
-39.355
-39.3608
-39.3667
-39.3727
-39.3787
-39.3848
-39.391
-39.3972
-39.4035
-39.4098
-39.4162
-39.4226
-39.429
-39.4354
-39.4419
-39.4483
-39.4548
-39.4612
-39.4676
-39.4741
-39.4805
-39.4868
-39.4931
-39.4994
-39.5056
-39.5118
-39.5178
-39.5238
-39.5298
-39.5356
-39.5413
-39.547
-39.5525
-39.5579
-39.5632
-39.5683
-39.5734
-39.5782
-39.5829
-39.5875
-39.5919
-39.5961
-39.6002
-39.6041
-39.6078
-39.6113
-39.6146
-39.6177
-39.6206
-39.6233
-39.6258
-39.6281
-39.6301
-39.632
-39.6336
-39.635
-39.6361
-39.6371
-39.6378
-39.6382
-39.6385
-39.6385
-39.6382
-39.6378
-39.6371
-39.6362
-39.635
-39.6336
-39.632
-39.6302
-39.6281
-39.6259
-39.6234
-39.6207
-39.6178
-39.6147
-39.6114
-39.6079
-39.6042
-39.6003
-39.5963
-39.592
-39.5876
-39.5831
-39.5784
-39.5735
-39.5685
-39.5634
-39.5581
-39.5527
-39.5472
-39.5415
-39.5358
-39.53
-39.5241
-39.5181
-39.512
-39.5058
-39.4996
-39.4934
-39.4871
-39.4807
-39.4743
-39.4679
-39.4615
-39.455
-39.4486
-39.4421
-39.4357
-39.4293
-39.4229
-39.4165
-39.4101
-39.4038
-39.3975
-39.3913
-39.3852
-39.3791
-39.373
-39.3671
-39.3612
-39.3554
-39.3497
-39.344
-39.3385
-39.3331
-39.3278
-39.3226
-39.3175
-39.3125
-39.3076
-39.3029
-39.2983
-39.2938
-39.2895
-39.2853
-39.2812
-39.2773
-39.2735
-39.2699
-39.2664
-39.2631
-39.26
-39.257
-39.2541
-39.2514
-39.2489
-39.2466
-39.2444
-39.2424
-39.2406
-39.2389
-39.2374
-39.2361
-39.2349
-39.2339
-39.2331
-39.2325
-39.232
-39.2318
-39.2317
-43.1534
-43.1536
-43.1538
-43.1543
-43.1549
-43.1557
-43.1567
-43.1579
-43.1592
-43.1607
-43.1624
-43.1643
-43.1663
-43.1685
-43.1708
-43.1734
-43.1761
-43.1789
-43.1819
-43.1851
-43.1885
-43.192
-43.1956
-43.1994
-43.2034
-43.2074
-43.2117
-43.2161
-43.2206
-43.2252
-43.23
-43.2349
-43.2399
-43.245
-43.2503
-43.2557
-43.2611
-43.2667
-43.2724
-43.2782
-43.284
-43.29
-43.296
-43.3021
-43.3082
-43.3145
-43.3207
-43.3271
-43.3335
-43.3399
-43.3463
-43.3528
-43.3593
-43.3658
-43.3723
-43.3789
-43.3854
-43.3919
-43.3984
-43.4048
-43.4112
-43.4176
-43.424
-43.4303
-43.4365
-43.4426
-43.4487
-43.4547
-43.4606
-43.4664
-43.4721
-43.4777
-43.4832
-43.4885
-43.4938
-43.4988
-43.5038
-43.5086
-43.5132
-43.5176
-43.5219
-43.526
-43.53
-43.5337
-43.5373
-43.5406
-43.5438
-43.5467
-43.5495
-43.552
-43.5543
-43.5564
-43.5582
-43.5599
-43.5613
-43.5625
-43.5634
-43.5641
-43.5646
-43.5648
-43.5648
-43.5646
-43.5641
-43.5634
-43.5625
-43.5613
-43.5599
-43.5583
-43.5564
-43.5544
-43.5521
-43.5495
-43.5468
-43.5439
-43.5407
-43.5374
-43.5338
-43.5301
-43.5262
-43.5221
-43.5178
-43.5133
-43.5087
-43.5039
-43.499
-43.4939
-43.4887
-43.4834
-43.4779
-43.4723
-43.4666
-43.4608
-43.4549
-43.4489
-43.4429
-43.4367
-43.4305
-43.4242
-43.4179
-43.4115
-43.4051
-43.3986
-43.3921
-43.3856
-43.3791
-43.3726
-43.3661
-43.3596
-43.3531
-43.3466
-43.3402
-43.3338
-43.3274
-43.3211
-43.3148
-43.3086
-43.3024
-43.2963
-43.2903
-43.2844
-43.2785
-43.2727
-43.2671
-43.2615
-43.256
-43.2507
-43.2454
-43.2403
-43.2352
-43.2303
-43.2256
-43.2209
-43.2164
-43.2121
-43.2078
-43.2037
-43.1998
-43.196
-43.1923
-43.1889
-43.1855
-43.1823
-43.1793
-43.1765
-43.1738
-43.1712
-43.1689
-43.1667
-43.1646
-43.1628
-43.1611
-43.1596
-43.1583
-43.1571
-43.1561
-43.1553
-43.1547
-43.1542
-43.154
-43.1538
-47.0755
-47.0756
-47.0758
-47.0763
-47.0769
-47.0778
-47.0787
-47.0799
-47.0813
-47.0828
-47.0845
-47.0863
-47.0884
-47.0906
-47.093
-47.0955
-47.0982
-47.1011
-47.1042
-47.1074
-47.1107
-47.1143
-47.1179
-47.1218
-47.1257
-47.1299
-47.1341
-47.1385
-47.1431
-47.1478
-47.1526
-47.1575
-47.1626
-47.1678
-47.1731
-47.1785
-47.184
-47.1897
-47.1954
-47.2012
-47.2071
-47.2131
-47.2192
-47.2253
-47.2316
-47.2379
-47.2442
-47.2506
-47.257
-47.2635
-47.2701
-47.2766
-47.2832
-47.2898
-47.2964
-47.3029
-47.3095
-47.3161
-47.3227
-47.3292
-47.3357
-47.3422
-47.3486
-47.355
-47.3613
-47.3675
-47.3737
-47.3797
-47.3857
-47.3916
-47.3974
-47.4031
-47.4086
-47.414
-47.4193
-47.4245
-47.4295
-47.4343
-47.439
-47.4435
-47.4479
-47.4521
-47.4561
-47.4599
-47.4635
-47.4669
-47.4701
-47.4731
-47.4758
-47.4784
-47.4807
-47.4829
-47.4848
-47.4864
-47.4878
-47.489
-47.49
-47.4907
-47.4912
-47.4914
-47.4915
-47.4912
-47.4907
-47.49
-47.4891
-47.4879
-47.4865
-47.4848
-47.4829
-47.4808
-47.4785
-47.4759
-47.4731
-47.4702
-47.467
-47.4636
-47.46
-47.4562
-47.4522
-47.448
-47.4437
-47.4392
-47.4345
-47.4296
-47.4246
-47.4195
-47.4142
-47.4088
-47.4033
-47.3976
-47.3918
-47.3859
-47.38
-47.3739
-47.3677
-47.3615
-47.3552
-47.3489
-47.3424
-47.336
-47.3295
-47.323
-47.3164
-47.3098
-47.3032
-47.2966
-47.29
-47.2835
-47.2769
-47.2704
-47.2638
-47.2574
-47.2509
-47.2445
-47.2382
-47.2319
-47.2257
-47.2195
-47.2134
-47.2075
-47.2015
-47.1957
-47.19
-47.1844
-47.1789
-47.1734
-47.1681
-47.163
-47.1579
-47.1529
-47.1481
-47.1435
-47.1389
-47.1345
-47.1302
-47.1261
-47.1221
-47.1183
-47.1146
-47.1111
-47.1078
-47.1046
-47.1015
-47.0986
-47.0959
-47.0934
-47.091
-47.0888
-47.0867
-47.0849
-47.0832
-47.0817
-47.0803
-47.0791
-47.0782
-47.0773
-47.0767
-47.0762
-47.076
-47.0758
-50.9973
-50.9974
-50.9977
-50.9981
-50.9988
-50.9996
-51.0006
-51.0018
-51.0031
-51.0047
-51.0064
-51.0083
-51.0103
-51.0125
-51.0149
-51.0175
-51.0203
-51.0232
-51.0262
-51.0295
-51.0328
-51.0364
-51.0401
-51.044
-51.048
-51.0521
-51.0564
-51.0609
-51.0655
-51.0702
-51.0751
-51.08
-51.0852
-51.0904
-51.0958
-51.1012
-51.1068
-51.1125
-51.1183
-51.1241
-51.1301
-51.1362
-51.1423
-51.1485
-51.1548
-51.1612
-51.1676
-51.1741
-51.1806
-51.1872
-51.1938
-51.2004
-51.207
-51.2137
-51.2204
-51.227
-51.2337
-51.2404
-51.247
-51.2537
-51.2602
-51.2668
-51.2733
-51.2798
-51.2861
-51.2925
-51.2987
-51.3049
-51.3109
-51.3169
-51.3228
-51.3285
-51.3342
-51.3397
-51.345
-51.3503
-51.3553
-51.3603
-51.365
-51.3696
-51.374
-51.3783
-51.3823
-51.3862
-51.3899
-51.3933
-51.3966
-51.3996
-51.4024
-51.405
-51.4074
-51.4096
-51.4115
-51.4132
-51.4146
-51.4159
-51.4168
-51.4176
-51.4181
-51.4183
-51.4183
-51.4181
-51.4176
-51.4169
-51.4159
-51.4147
-51.4132
-51.4116
-51.4096
-51.4075
-51.4051
-51.4025
-51.3997
-51.3967
-51.3934
-51.39
-51.3863
-51.3824
-51.3784
-51.3742
-51.3698
-51.3652
-51.3604
-51.3555
-51.3504
-51.3452
-51.3398
-51.3343
-51.3287
-51.323
-51.3171
-51.3111
-51.3051
-51.2989
-51.2927
-51.2864
-51.28
-51.2735
-51.267
-51.2605
-51.2539
-51.2473
-51.2407
-51.234
-51.2273
-51.2207
-51.214
-51.2073
-51.2007
-51.1941
-51.1875
-51.1809
-51.1744
-51.1679
-51.1615
-51.1552
-51.1489
-51.1427
-51.1365
-51.1305
-51.1245
-51.1186
-51.1128
-51.1072
-51.1016
-51.0961
-51.0908
-51.0855
-51.0804
-51.0754
-51.0706
-51.0658
-51.0613
-51.0568
-51.0525
-51.0484
-51.0443
-51.0405
-51.0368
-51.0332
-51.0298
-51.0266
-51.0235
-51.0206
-51.0179
-51.0153
-51.0129
-51.0107
-51.0087
-51.0068
-51.0051
-51.0035
-51.0022
-51.001
-51
-50.9992
-50.9985
-50.9981
-50.9978
-50.9977
-54.9189
-54.9191
-54.9193
-54.9198
-54.9205
-54.9213
-54.9223
-54.9235
-54.9248
-54.9264
-54.9281
-54.93
-54.9321
-54.9343
-54.9367
-54.9393
-54.9421
-54.945
-54.9481
-54.9514
-54.9548
-54.9584
-54.9621
-54.966
-54.9701
-54.9743
-54.9786
-54.9831
-54.9877
-54.9925
-54.9974
-55.0024
-55.0076
-55.0129
-55.0183
-55.0238
-55.0295
-55.0352
-55.0411
-55.047
-55.053
-55.0592
-55.0654
-55.0717
-55.078
-55.0845
-55.091
-55.0975
-55.1041
-55.1107
-55.1174
-55.1241
-55.1309
-55.1376
-55.1444
-55.1512
-55.1579
-55.1647
-55.1714
-55.1781
-55.1848
-55.1915
-55.1981
-55.2046
-55.2111
-55.2175
-55.2238
-55.2301
-55.2362
-55.2423
-55.2483
-55.2541
-55.2598
-55.2654
-55.2709
-55.2762
-55.2814
-55.2864
-55.2912
-55.2959
-55.3004
-55.3047
-55.3088
-55.3127
-55.3165
-55.32
-55.3233
-55.3264
-55.3293
-55.3319
-55.3343
-55.3365
-55.3385
-55.3402
-55.3417
-55.3429
-55.3439
-55.3447
-55.3452
-55.3454
-55.3454
-55.3452
-55.3447
-55.3439
-55.3429
-55.3417
-55.3402
-55.3385
-55.3366
-55.3344
-55.332
-55.3293
-55.3265
-55.3234
-55.3201
-55.3166
-55.3128
-55.3089
-55.3048
-55.3005
-55.296
-55.2913
-55.2865
-55.2815
-55.2764
-55.271
-55.2656
-55.26
-55.2543
-55.2485
-55.2425
-55.2365
-55.2303
-55.224
-55.2177
-55.2113
-55.2048
-55.1983
-55.1917
-55.1851
-55.1784
-55.1717
-55.1649
-55.1582
-55.1514
-55.1447
-55.1379
-55.1312
-55.1244
-55.1177
-55.1111
-55.1044
-55.0978
-55.0913
-55.0848
-55.0784
-55.072
-55.0657
-55.0595
-55.0534
-55.0474
-55.0414
-55.0356
-55.0298
-55.0242
-55.0187
-55.0133
-55.008
-55.0028
-54.9978
-54.9929
-54.9881
-54.9835
-54.979
-54.9746
-54.9704
-54.9664
-54.9625
-54.9588
-54.9552
-54.9518
-54.9485
-54.9454
-54.9425
-54.9397
-54.9371
-54.9347
-54.9325
-54.9304
-54.9285
-54.9268
-54.9252
-54.9239
-54.9227
-54.9217
-54.9208
-54.9202
-54.9197
-54.9195
-54.9193
-58.8404
-58.8405
-58.8408
-58.8413
-58.8419
-58.8428
-58.8438
-58.845
-58.8464
-58.8479
-58.8497
-58.8516
-58.8537
-58.8559
-58.8584
-58.861
-58.8638
-58.8667
-58.8699
-58.8731
-58.8766
-58.8802
-58.884
-58.8879
-58.892
-58.8963
-58.9006
-58.9052
-58.9099
-58.9147
-58.9196
-58.9247
-58.9299
-58.9353
-58.9407
-58.9463
-58.952
-58.9578
-58.9638
-58.9698
-58.9759
-58.9821
-58.9884
-58.9947
-59.0012
-59.0077
-59.0143
-59.0209
-59.0276
-59.0343
-59.0411
-59.0479
-59.0547
-59.0615
-59.0684
-59.0753
-59.0821
-59.089
-59.0958
-59.1026
-59.1094
-59.1162
-59.1229
-59.1295
-59.1361
-59.1426
-59.149
-59.1554
-59.1617
-59.1678
-59.1739
-59.1798
-59.1856
-59.1913
-59.1969
-59.2023
-59.2075
-59.2126
-59.2175
-59.2223
-59.2269
-59.2313
-59.2355
-59.2395
-59.2433
-59.2468
-59.2502
-59.2534
-59.2563
-59.259
-59.2615
-59.2637
-59.2657
-59.2675
-59.269
-59.2702
-59.2712
-59.272
-59.2725
-59.2728
-59.2728
-59.2725
-59.272
-59.2713
-59.2703
-59.269
-59.2675
-59.2658
-59.2638
-59.2615
-59.2591
-59.2564
-59.2535
-59.2503
-59.2469
-59.2434
-59.2396
-59.2356
-59.2314
-59.227
-59.2224
-59.2177
-59.2128
-59.2077
-59.2024
-59.197
-59.1915
-59.1858
-59.18
-59.1741
-59.168
-59.1619
-59.1556
-59.1493
-59.1428
-59.1363
-59.1297
-59.1231
-59.1164
-59.1097
-59.1029
-59.0961
-59.0892
-59.0824
-59.0755
-59.0687
-59.0618
-59.055
-59.0482
-59.0414
-59.0346
-59.0279
-59.0212
-59.0146
-59.008
-59.0015
-58.9951
-58.9887
-58.9824
-58.9762
-58.9701
-58.9641
-58.9582
-58.9524
-58.9467
-58.9411
-58.9356
-58.9303
-58.9251
-58.92
-58.915
-58.9102
-58.9055
-58.901
-58.8966
-58.8924
-58.8883
-58.8844
-58.8806
-58.877
-58.8735
-58.8702
-58.8671
-58.8642
-58.8614
-58.8588
-58.8563
-58.8541
-58.852
-58.8501
-58.8483
-58.8468
-58.8454
-58.8442
-58.8432
-58.8423
-58.8417
-58.8412
-58.8409
-58.8408
-62.7617
-62.7618
-62.7621
-62.7626
-62.7632
-62.7641
-62.7651
-62.7663
-62.7677
-62.7693
-62.771
-62.773
-62.7751
-62.7774
-62.7798
-62.7825
-62.7853
-62.7883
-62.7914
-62.7947
-62.7982
-62.8019
-62.8057
-62.8097
-62.8138
-62.8181
-62.8225
-62.8271
-62.8318
-62.8367
-62.8417
-62.8469
-62.8521
-62.8575
-62.8631
-62.8687
-62.8745
-62.8804
-62.8864
-62.8924