/*--------------------------------*- C++ -*----------------------------------*\
| =========                 |                                                 |
| \\      /  F ield         | OpenFOAM: The Open Source CFD Toolbox           |
|  \\    /   O peration     | Version:  2412                                  |
|   \\  /    A nd           | Website:  www.openfoam.com                      |
|    \\/     M anipulation  |                                                 |
\*---------------------------------------------------------------------------*/
FoamFile
{
    version     2.0;
    format      ascii;
    arch        "LSB;label=32;scalar=64";
    class       volScalarField;
    location    "1.07";
    object      p_rgh;
}
// * * * * * * * * * * * * * * * * * * * * * * * * * * * * * * * * * * * * * //

dimensions      [1 -1 -2 0 0 0 0];

internalField   nonuniform List<scalar> 
40000
(
1.962
1.96189
1.96165
1.96122
1.96063
1.95986
1.95892
1.9578
1.95652
1.95507
1.95346
1.95168
1.94973
1.94762
1.94535
1.94292
1.94033
1.93759
1.93469
1.93164
1.92844
1.92509
1.92159
1.91795
1.91418
1.91026
1.90621
1.90203
1.89771
1.89328
1.88872
1.88404
1.87925
1.87435
1.86934
1.86423
1.85902
1.85371
1.84831
1.84283
1.83727
1.83163
1.82592
1.82015
1.81431
1.80842
1.80248
1.79649
1.79047
1.78441
1.77832
1.77222
1.7661
1.75997
1.75383
1.7477
1.74158
1.73547
1.72939
1.72334
1.71732
1.71134
1.70541
1.69954
1.69373
1.68798
1.68231
1.67673
1.67123
1.66582
1.66052
1.65532
1.65024
1.64527
1.64043
1.63572
1.63115
1.62673
1.62245
1.61832
1.61436
1.61055
1.60692
1.60347
1.60019
1.59709
1.59418
1.59146
1.58894
1.58661
1.58449
1.58257
1.58085
1.57935
1.57805
1.57697
1.5761
1.57545
1.57501
1.57479
1.57479
1.575
1.57543
1.57608
1.57694
1.57802
1.57931
1.58081
1.58251
1.58443
1.58654
1.58886
1.59138
1.59409
1.59699
1.60008
1.60336
1.60681
1.61043
1.61423
1.61819
1.6223
1.62658
1.631
1.63556
1.64026
1.6451
1.65005
1.65513
1.66032
1.66562
1.67102
1.67651
1.6821
1.68776
1.6935
1.6993
1.70517
1.71109
1.71707
1.72308
1.72913
1.73521
1.74131
1.74743
1.75355
1.75968
1.76581
1.77193
1.77803
1.78411
1.79016
1.79618
1.80217
1.8081
1.81399
1.81982
1.8256
1.8313
1.83694
1.84249
1.84797
1.85337
1.85867
1.86388
1.86899
1.87399
1.87889
1.88368
1.88836
1.89291
1.89735
1.90166
1.90584
1.90989
1.9138
1.91758
1.92122
1.92471
1.92806
1.93126
1.93431
1.93721
1.93995
1.94254
1.94497
1.94724
1.94935
1.9513
1.95308
1.9547
1.95615
1.95743
1.95855
1.9595
1.96028
1.96089
1.96133
1.96159
1.9617
1.96211
1.96201
1.96176
1.96134
1.96074
1.95997
1.95903
1.95791
1.95663
1.95518
1.95356
1.95178
1.94983
1.94772
1.94545
1.94302
1.94043
1.93769
1.93479
1.93173
1.92853
1.92518
1.92168
1.91804
1.91426
1.91035
1.90629
1.90211
1.89779
1.89335
1.88879
1.88412
1.87932
1.87442
1.8694
1.86429
1.85908
1.85377
1.84837
1.84288
1.83732
1.83168
1.82596
1.82019
1.81435
1.80845
1.80251
1.79652
1.79049
1.78443
1.77834
1.77223
1.7661
1.75997
1.75383
1.74769
1.74157
1.73546
1.72937
1.72331
1.71729
1.71131
1.70537
1.6995
1.69368
1.68793
1.68226
1.67667
1.67117
1.66576
1.66045
1.65525
1.65016
1.64519
1.64035
1.63563
1.63106
1.62663
1.62235
1.61822
1.61425
1.61045
1.60681
1.60335
1.60007
1.59697
1.59406
1.59134
1.58881
1.58648
1.58436
1.58243
1.58072
1.57921
1.57792
1.57683
1.57596
1.57531
1.57487
1.57465
1.57465
1.57486
1.57529
1.57594
1.5768
1.57788
1.57917
1.58067
1.58238
1.58429
1.58641
1.58874
1.59125
1.59397
1.59687
1.59997
1.60324
1.60669
1.61032
1.61412
1.61808
1.6222
1.62648
1.6309
1.63547
1.64018
1.64501
1.64998
1.65506
1.66025
1.66556
1.67096
1.67646
1.68204
1.68771
1.69345
1.69926
1.70514
1.71106
1.71704
1.72306
1.72911
1.73519
1.7413
1.74742
1.75355
1.75968
1.76581
1.77194
1.77804
1.78413
1.79018
1.79621
1.80219
1.80814
1.81403
1.81986
1.82564
1.83135
1.83698
1.84255
1.84803
1.85342
1.85873
1.86394
1.86905
1.87406
1.87896
1.88376
1.88843
1.89299
1.89743
1.90174
1.90592
1.90997
1.91389
1.91767
1.92131
1.9248
1.92815
1.93136
1.93441
1.93731
1.94005
1.94264
1.94507
1.94734
1.94945
1.9514
1.95318
1.9548
1.95626
1.95754
1.95866
1.95961
1.96039
1.96099
1.96143
1.9617
1.96181
1.96239
1.96229
1.96203
1.96161
1.961
1.96023
1.95929
1.95817
1.95689
1.95544
1.95382
1.95203
1.95009
1.94797
1.9457
1.94327
1.94068
1.93793
1.93502
1.93197
1.92876
1.92541
1.92191
1.91826
1.91448
1.91055
1.9065
1.90231
1.89799
1.89354
1.88898
1.88429
1.87949
1.87458
1.86956
1.86444
1.85922
1.85391
1.8485
1.84301
1.83744
1.83179
1.82607
1.82028
1.81443
1.80853
1.80257
1.79658
1.79054
1.78447
1.77837
1.77225
1.76612
1.75997
1.75382
1.74768
1.74154
1.73542
1.72933
1.72326
1.71722
1.71123
1.70529
1.6994
1.69357
1.68782
1.68213
1.67653
1.67102
1.6656
1.66028
1.65507
1.64997
1.64499
1.64014
1.63542
1.63083
1.6264
1.6221
1.61797
1.61399
1.61018
1.60654
1.60307
1.59978
1.59667
1.59376
1.59103
1.5885
1.58617
1.58403
1.58211
1.58039
1.57888
1.57758
1.5765
1.57562
1.57497
1.57453
1.57431
1.57431
1.57452
1.57495
1.5756
1.57647
1.57755
1.57884
1.58034
1.58205
1.58397
1.5861
1.58842
1.59095
1.59367
1.59658
1.59968
1.60296
1.60642
1.61006
1.61386
1.61783
1.62196
1.62625
1.63068
1.63526
1.63997
1.64482
1.64979
1.65488
1.66009
1.6654
1.67081
1.67632
1.68192
1.68759
1.69335
1.69917
1.70505
1.71099
1.71697
1.723
1.72907
1.73516
1.74127
1.7474
1.75354
1.75969
1.76583
1.77196
1.77807
1.78417
1.79023
1.79627
1.80226
1.80821
1.81411
1.81996
1.82574
1.83146
1.8371
1.84267
1.84816
1.85356
1.85888
1.86409
1.86921
1.87423
1.87914
1.88393
1.88862
1.89318
1.89762
1.90194
1.90613
1.91018
1.9141
1.91789
1.92153
1.92503
1.92838
1.93159
1.93464
1.93755
1.9403
1.94289
1.94532
1.94759
1.94971
1.95166
1.95344
1.95506
1.95651
1.9578
1.95892
1.95987
1.96065
1.96126
1.9617
1.96196
1.96207
1.96285
1.96274
1.96248
1.96205
1.96144
1.96067
1.95972
1.9586
1.95732
1.95586
1.95424
1.95245
1.9505
1.94839
1.94611
1.94367
1.94107
1.93832
1.93541
1.93235
1.92914
1.92578
1.92227
1.91862
1.91483
1.9109
1.90683
1.90264
1.89831
1.89386
1.88928
1.88459
1.87978
1.87486
1.86983
1.8647
1.85946
1.85414
1.84872
1.84322
1.83763
1.83197
1.82624
1.82044
1.81457
1.80866
1.80269
1.79668
1.79062
1.78454
1.77843
1.77229
1.76614
1.75998
1.75382
1.74765
1.7415
1.73537
1.72925
1.72317
1.71712
1.71111
1.70515
1.69924
1.6934
1.68762
1.68192
1.67631
1.67077
1.66534
1.66
1.65478
1.64966
1.64467
1.6398
1.63506
1.63046
1.62601
1.6217
1.61755
1.61356
1.60974
1.60608
1.6026
1.5993
1.59619
1.59326
1.59053
1.58799
1.58564
1.58351
1.58157
1.57985
1.57833
1.57703
1.57594
1.57507
1.57441
1.57397
1.57375
1.57374
1.57396
1.57439
1.57504
1.57591
1.57699
1.57829
1.5798
1.58152
1.58344
1.58558
1.58791
1.59044
1.59317
1.59609
1.5992
1.6025
1.60597
1.60962
1.61343
1.61742
1.62156
1.62586
1.63031
1.6349
1.63963
1.64449
1.64948
1.65459
1.65981
1.66514
1.67057
1.67609
1.68171
1.6874
1.69317
1.69901
1.70491
1.71086
1.71687
1.72291
1.72899
1.7351
1.74123
1.74738
1.75354
1.75969
1.76585
1.772
1.77813
1.78424
1.79032
1.79637
1.80238
1.80834
1.81425
1.82011
1.82591
1.83164
1.8373
1.84288
1.84838
1.85379
1.85912
1.86435
1.86948
1.8745
1.87942
1.88423
1.88892
1.89349
1.89794
1.90227
1.90646
1.91053
1.91446
1.91825
1.9219
1.9254
1.92876
1.93197
1.93503
1.93794
1.94069
1.94329
1.94573
1.94801
1.95012
1.95207
1.95386
1.95548
1.95694
1.95823
1.95935
1.9603
1.96108
1.96169
1.96213
1.9624
1.96251
1.96347
1.96336
1.96309
1.96266
1.96205
1.96127
1.96032
1.9592
1.95791
1.95645
1.95483
1.95304
1.95108
1.94896
1.94668
1.94423
1.94163
1.93887
1.93595
1.93289
1.92967
1.9263
1.92278
1.91912
1.91532
1.91138
1.9073
1.90309
1.89876
1.89429
1.8897
1.885
1.88017
1.87524
1.87019
1.86505
1.8598
1.85446
1.84902
1.8435
1.8379
1.83222
1.82647
1.82065
1.81477
1.80884
1.80285
1.79681
1.79074
1.78464
1.7785
1.77235
1.76617
1.75999
1.7538
1.74762
1.74144
1.73529
1.72915
1.72304
1.71696
1.71093
1.70495
1.69902
1.69315
1.68735
1.68163
1.67599
1.67044
1.66498
1.65962
1.65437
1.64923
1.64421
1.63932
1.63457
1.62995
1.62547
1.62115
1.61698
1.61297
1.60913
1.60546
1.60196
1.59864
1.59551
1.59257
1.58982
1.58727
1.58492
1.58277
1.58083
1.57909
1.57757
1.57626
1.57517
1.57429
1.57363
1.57319
1.57296
1.57296
1.57318
1.57361
1.57426
1.57514
1.57622
1.57753
1.57904
1.58077
1.58271
1.58485
1.58719
1.58974
1.59248
1.59542
1.59854
1.60185
1.60534
1.60901
1.61284
1.61684
1.62101
1.62532
1.62979
1.63441
1.63916
1.64404
1.64905
1.65418
1.65942
1.66478
1.67023
1.67578
1.68141
1.68713
1.69293
1.69879
1.70471
1.71069
1.71672
1.72278
1.72889
1.73502
1.74117
1.74734
1.75352
1.7597
1.76588
1.77205
1.7782
1.78433
1.79044
1.79651
1.80253
1.80852
1.81445
1.82033
1.82614
1.83189
1.83757
1.84317
1.84868
1.85411
1.85945
1.8647
1.86984
1.87488
1.87982
1.88464
1.88934
1.89393
1.89839
1.90273
1.90693
1.91101
1.91495
1.91875
1.9224
1.92592
1.92929
1.93251
1.93558
1.93849
1.94125
1.94385
1.9463
1.94858
1.9507
1.95266
1.95445
1.95608
1.95753
1.95883
1.95995
1.9609
1.96168
1.9623
1.96274
1.963
1.96311
1.96425
1.96414
1.96388
1.96344
1.96283
1.96204
1.96109
1.95997
1.95867
1.95721
1.95558
1.95378
1.95182
1.94969
1.9474
1.94495
1.94234
1.93957
1.93665
1.93357
1.93034
1.92696
1.92343
1.91976
1.91595
1.91199
1.9079
1.90368
1.89933
1.89485
1.89024
1.88552
1.88068
1.87573
1.87066
1.8655
1.86023
1.85487
1.84941
1.84387
1.83825
1.83255
1.82677
1.82093
1.81503
1.80906
1.80305
1.79699
1.79089
1.78476
1.7786
1.77242
1.76622
1.76
1.75379
1.74758
1.74137
1.73518
1.72902
1.72288
1.71677
1.71071
1.7047
1.69874
1.69284
1.68701
1.68126
1.67558
1.67
1.66451
1.65912
1.65384
1.64868
1.64363
1.63872
1.63393
1.62929
1.62479
1.62044
1.61624
1.61221
1.60834
1.60465
1.60113
1.5978
1.59465
1.59169
1.58892
1.58635
1.58399
1.58182
1.57987
1.57812
1.57659
1.57527
1.57417
1.57329
1.57263
1.57218
1.57196
1.57195
1.57217
1.57261
1.57327
1.57414
1.57524
1.57655
1.57808
1.57981
1.58176
1.58392
1.58628
1.58884
1.5916
1.59455
1.59769
1.60102
1.60453
1.60822
1.61208
1.61611
1.62029
1.62464
1.62913
1.63377
1.63855
1.64346
1.6485
1.65366
1.65893
1.66431
1.6698
1.67537
1.68104
1.68679
1.69261
1.6985
1.70446
1.71047
1.71652
1.72262
1.72876
1.73492
1.7411
1.7473
1.75351
1.75972
1.76593
1.77212
1.7783
1.78446
1.79059
1.79668
1.80274
1.80875
1.8147
1.8206
1.82644
1.83221
1.83791
1.84353
1.84907
1.85452
1.85988
1.86515
1.87031
1.87537
1.88032
1.88516
1.88988
1.89448
1.89896
1.90331
1.90753
1.91162
1.91557
1.91939
1.92306
1.92658
1.92996
1.93319
1.93627
1.93919
1.94196
1.94457
1.94702
1.94931
1.95144
1.9534
1.9552
1.95683
1.95829
1.95959
1.96072
1.96167
1.96246
1.96307
1.96351
1.96378
1.96389
1.96521
1.9651
1.96483
1.96439
1.96377
1.96299
1.96203
1.9609
1.9596
1.95814
1.9565
1.9547
1.95273
1.95059
1.94829
1.94583
1.94321
1.94043
1.9375
1.93441
1.93116
1.92777
1.92423
1.92054
1.91671
1.91274
1.90864
1.9044
1.90003
1.89553
1.8909
1.88616
1.8813
1.87632
1.87124
1.86605
1.86076
1.85537
1.84989
1.84432
1.83867
1.83294
1.82714
1.82127
1.81534
1.80934
1.8033
1.79721
1.79108
1.78492
1.77872
1.7725
1.76627
1.76002
1.75377
1.74752
1.74128
1.73506
1.72886
1.72268
1.71654
1.71044
1.70439
1.69839
1.69246
1.68659
1.6808
1.67509
1.66947
1.66395
1.65852
1.65321
1.64801
1.64293
1.63798
1.63316
1.62848
1.62395
1.61957
1.61534
1.61128
1.60739
1.60367
1.60012
1.59676
1.59359
1.59061
1.58782
1.58523
1.58285
1.58067
1.5787
1.57694
1.5754
1.57407
1.57296
1.57207
1.5714
1.57095
1.57073
1.57072
1.57094
1.57138
1.57205
1.57293
1.57404
1.57536
1.57689
1.57865
1.58061
1.58278
1.58516
1.58774
1.59052
1.59349
1.59666
1.60001
1.60355
1.60726
1.61115
1.61521
1.61942
1.6238
1.62832
1.633
1.63781
1.64275
1.64783
1.65302
1.65833
1.66375
1.66927
1.67488
1.68058
1.68637
1.69223
1.69816
1.70415
1.71019
1.71629
1.72242
1.72859
1.73479
1.74101
1.74725
1.75349
1.75974
1.76598
1.77221
1.77842
1.78461
1.79077
1.7969
1.80299
1.80903
1.81501
1.82094
1.82681
1.83261
1.83834
1.84398
1.84955
1.85503
1.86041
1.8657
1.87089
1.87597
1.88094
1.8858
1.89054
1.89516
1.89966
1.90403
1.90827
1.91237
1.91634
1.92017
1.92385
1.92739
1.93078
1.93403
1.93712
1.94005
1.94283
1.94545
1.94791
1.95021
1.95234
1.95431
1.95612
1.95775
1.95922
1.96052
1.96165
1.96261
1.9634
1.96401
1.96446
1.96473
1.96484
1.96633
1.96622
1.96595
1.96551
1.96489
1.9641
1.96314
1.96201
1.9607
1.95923
1.95758
1.95577
1.95379
1.95165
1.94934
1.94687
1.94424
1.94145
1.9385
1.93539
1.93213
1.92873
1.92517
1.92147
1.91762
1.91363
1.9095
1.90524
1.90085
1.89633
1.89168
1.88691
1.88203
1.87703
1.87192
1.8667
1.86138
1.85597
1.85046
1.84486
1.83917
1.83341
1.82758
1.82167
1.8157
1.80968
1.8036
1.79747
1.7913
1.7851
1.77886
1.77261
1.76633
1.76004
1.75375
1.74746
1.74118
1.73491
1.72867
1.72245
1.71626
1.71012
1.70403
1.69798
1.69201
1.6861
1.68026
1.67451
1.66885
1.66328
1.65781
1.65245
1.64721
1.64209
1.6371
1.63224
1.62753
1.62296
1.61854
1.61428
1.61018
1.60626
1.6025
1.59893
1.59554
1.59234
1.58933
1.58652
1.58391
1.5815
1.57931
1.57732
1.57555
1.57399
1.57265
1.57153
1.57063
1.56995
1.5695
1.56927
1.56927
1.56949
1.56994
1.57061
1.5715
1.57261
1.57394
1.5755
1.57726
1.57924
1.58143
1.58383
1.58644
1.58924
1.59224
1.59544
1.59882
1.60239
1.60613
1.61005
1.61414
1.6184
1.62281
1.62737
1.63208
1.63693
1.64192
1.64703
1.65227
1.65762
1.66308
1.66864
1.6743
1.68005
1.68587
1.69178
1.69775
1.70379
1.70988
1.71601
1.72219
1.72841
1.73465
1.74091
1.74719
1.75347
1.75976
1.76604
1.77231
1.77856
1.78479
1.79099
1.79716
1.80328
1.80936
1.81538
1.82135
1.82725
1.83308
1.83884
1.84452
1.85011
1.85562
1.86103
1.86635
1.87156
1.87667
1.88167
1.88655
1.89132
1.89596
1.90048
1.90487
1.90913
1.91326
1.91724
1.92109
1.92479
1.92835
1.93176
1.93501
1.93812
1.94106
1.94385
1.94649
1.94896
1.95126
1.95341
1.95539
1.9572
1.95884
1.96032
1.96162
1.96276
1.96372
1.96451
1.96513
1.96558
1.96585
1.96596
1.96763
1.96752
1.96725
1.9668
1.96618
1.96538
1.96442
1.96328
1.96197
1.96049
1.95883
1.95701
1.95502
1.95287
1.95055
1.94807
1.94542
1.94262
1.93965
1.93653
1.93326
1.92983
1.92625
1.92253
1.91866
1.91465
1.9105
1.90622
1.9018
1.89726
1.89258
1.88779
1.88287
1.87784
1.8727
1.86745
1.8621
1.85665
1.85111
1.84547
1.83976
1.83396
1.82808
1.82214
1.81613
1.81006
1.80394
1.79777
1.79156
1.78531
1.77903
1.77273
1.76641
1.76007
1.75373
1.74739
1.74106
1.73475
1.72845
1.72218
1.71595
1.70975
1.70361
1.69752
1.69149
1.68553
1.67964
1.67384
1.66812
1.66251
1.65699
1.65158
1.64629
1.64113
1.63609
1.63119
1.62642
1.62181
1.61735
1.61305
1.60891
1.60495
1.60116
1.59755
1.59413
1.5909
1.58786
1.58502
1.58238
1.57995
1.57773
1.57572
1.57393
1.57236
1.571
1.56987
1.56896
1.56828
1.56782
1.56759
1.56759
1.56781
1.56826
1.56894
1.56984
1.57097
1.57231
1.57388
1.57567
1.57767
1.57988
1.5823
1.58493
1.58777
1.5908
1.59402
1.59744
1.60104
1.60483
1.60878
1.61291
1.61721
1.62166
1.62627
1.63102
1.63592
1.64095
1.64612
1.6514
1.6568
1.66231
1.66792
1.67363
1.67943
1.6853
1.69126
1.69728
1.70337
1.70951
1.7157
1.72193
1.72819
1.73448
1.74079
1.74712
1.75345
1.75979
1.76611
1.77243
1.77873
1.78501
1.79125
1.79746
1.80362
1.80974
1.81581
1.82181
1.82775
1.83362
1.83942
1.84513
1.85076
1.85631
1.86175
1.8671
1.87235
1.87749
1.88251
1.88743
1.89222
1.89689
1.90144
1.90585
1.91013
1.91428
1.91829
1.92215
1.92588
1.92945
1.93288
1.93615
1.93927
1.94223
1.94504
1.94768
1.95016
1.95248
1.95464
1.95663
1.95845
1.9601
1.96158
1.96289
1.96403
1.965
1.9658
1.96642
1.96687
1.96714
1.96725
1.9691
1.96899
1.96871
1.96826
1.96764
1.96684
1.96587
1.96472
1.9634
1.96191
1.96025
1.95842
1.95642
1.95425
1.95192
1.94942
1.94676
1.94394
1.94096
1.93782
1.93453
1.93108
1.92749
1.92374
1.91985
1.91581
1.91164
1.90733
1.90288
1.89831
1.89361
1.88878
1.88383
1.87877
1.87359
1.86831
1.86292
1.85743
1.85185
1.84618
1.84042
1.83457
1.82866
1.82267
1.81661
1.8105
1.80433
1.79811
1.79185
1.78555
1.77922
1.77287
1.76649
1.7601
1.75371
1.74732
1.74093
1.73456
1.72821
1.72188
1.71559
1.70934
1.70313
1.69699
1.6909
1.68488
1.67894
1.67308
1.66731
1.66163
1.65606
1.6506
1.64525
1.64003
1.63494
1.62999
1.62517
1.62051
1.616
1.61166
1.60747
1.60347
1.59963
1.59599
1.59252
1.58925
1.58618
1.58331
1.58064
1.57818
1.57594
1.57391
1.57209
1.5705
1.56913
1.56799
1.56707
1.56638
1.56592
1.56568
1.56568
1.56591
1.56636
1.56705
1.56796
1.5691
1.57046
1.57204
1.57385
1.57587
1.57811
1.58056
1.58322
1.58609
1.58916
1.59242
1.59587
1.59952
1.60334
1.60734
1.61152
1.61586
1.62036
1.62502
1.62983
1.63477
1.63986
1.64507
1.65041
1.65587
1.66143
1.6671
1.67287
1.67872
1.68466
1.69067
1.69675
1.70289
1.70909
1.71534
1.72162
1.72794
1.73429
1.74066
1.74704
1.75343
1.75982
1.7662
1.77257
1.77892
1.78525
1.79154
1.7978
1.80401
1.81018
1.81629
1.82234
1.82833
1.83424
1.84008
1.84583
1.85151
1.85709
1.86257
1.86796
1.87324
1.87841
1.88347
1.88842
1.89324
1.89794
1.90252
1.90696
1.91127
1.91544
1.91947
1.92336
1.92711
1.9307
1.93415
1.93744
1.94058
1.94356
1.94638
1.94904
1.95154
1.95387
1.95603
1.95803
1.95986
1.96153
1.96302
1.96433
1.96548
1.96645
1.96725
1.96788
1.96833
1.9686
1.96871
1.97074
1.97063
1.97035
1.9699
1.96927
1.96847
1.96749
1.96634
1.96501
1.96351
1.96184
1.96
1.95799
1.9558
1.95346
1.95094
1.94827
1.94543
1.94243
1.93927
1.93595
1.93249
1.92886
1.92509
1.92118
1.91712
1.91291
1.90857
1.9041
1.89949
1.89475
1.88989
1.88491
1.87981
1.87459
1.86927
1.86384
1.85831
1.85268
1.84696
1.84116
1.83527
1.8293
1.82326
1.81716
1.81099
1.80477
1.7985
1.79218
1.78583
1.77944
1.77302
1.76659
1.76014
1.75369
1.74723
1.74079
1.73435
1.72794
1.72155
1.71519
1.70887
1.70261
1.69639
1.69024
1.68416
1.67815
1.67223
1.66639
1.66065
1.65502
1.6495
1.64409
1.63881
1.63366
1.62864
1.62378
1.61906
1.61449
1.61009
1.60586
1.6018
1.59792
1.59423
1.59073
1.58741
1.5843
1.5814
1.57869
1.5762
1.57393
1.57187
1.57004
1.56842
1.56704
1.56588
1.56495
1.56425
1.56378
1.56354
1.56354
1.56377
1.56423
1.56492
1.56585
1.567
1.56838
1.56999
1.57182
1.57387
1.57613
1.57862
1.58131
1.58421
1.58732
1.59062
1.59412
1.59781
1.60168
1.60573
1.60996
1.61435
1.61891
1.62362
1.62848
1.63349
1.63863
1.64391
1.64931
1.65483
1.66046
1.66619
1.67202
1.67793
1.68394
1.69001
1.69616
1.70237
1.70863
1.71494
1.72129
1.72767
1.73408
1.74051
1.74696
1.75341
1.75986
1.7663
1.77273
1.77914
1.78552
1.79187
1.79818
1.80445
1.81067
1.81683
1.82294
1.82897
1.83493
1.84082
1.84662
1.85234
1.85796
1.86349
1.86892
1.87424
1.87945
1.88455
1.88953
1.89439
1.89912
1.90373
1.9082
1.91254
1.91674
1.9208
1.92472
1.92849
1.9321
1.93557
1.93889
1.94204
1.94504
1.94788
1.95056
1.95307
1.95542
1.9576
1.95961
1.96145
1.96312
1.96462
1.96595
1.9671
1.96808
1.96888
1.96951
1.96996
1.97024
1.97035
1.97255
1.97244
1.97216
1.97171
1.97108
1.97027
1.96928
1.96812
1.96679
1.96528
1.9636
1.96174
1.95972
1.95752
1.95516
1.95263
1.94993
1.94707
1.94405
1.94087
1.93753
1.93404
1.93039
1.92659
1.92265
1.91856
1.91432
1.90995
1.90544
1.90079
1.89602
1.89112
1.8861
1.88096
1.8757
1.87033
1.86486
1.85928
1.85361
1.84784
1.84198
1.83604
1.83002
1.82393
1.81776
1.81154
1.80526
1.79893
1.79255
1.78613
1.77968
1.7732
1.7667
1.76019
1.75367
1.74715
1.74063
1.73412
1.72764
1.72118
1.71475
1.70836
1.70202
1.69574
1.68951
1.68336
1.67728
1.67128
1.66538
1.65957
1.65387
1.64827
1.6428
1.63745
1.63224
1.62716
1.62222
1.61744
1.61282
1.60836
1.60407
1.59996
1.59603
1.59228
1.58873
1.58537
1.58222
1.57927
1.57653
1.57401
1.5717
1.56962
1.56775
1.56612
1.56471
1.56353
1.56259
1.56188
1.56141
1.56117
1.56116
1.5614
1.56186
1.56257
1.5635
1.56467
1.56607
1.5677
1.56956
1.57164
1.57394
1.57645
1.57919
1.58213
1.58528
1.58863
1.59217
1.59591
1.59984
1.60394
1.60822
1.61268
1.61729
1.62207
1.627
1.63207
1.63728
1.64262
1.64809
1.65367
1.65937
1.66517
1.67107
1.67706
1.68314
1.68929
1.6955
1.70178
1.70812
1.7145
1.72092
1.72737
1.73386
1.74036
1.74687
1.75339
1.7599
1.76641
1.77291
1.77938
1.78583
1.79224
1.79861
1.80494
1.81122
1.81744
1.8236
1.82969
1.8357
1.84164
1.84749
1.85326
1.85893
1.86451
1.86998
1.87534
1.8806
1.88574
1.89076
1.89566
1.90043
1.90507
1.90958
1.91395
1.91818
1.92227
1.92622
1.93001
1.93366
1.93715
1.94049
1.94367
1.94669
1.94954
1.95224
1.95477
1.95713
1.95933
1.96135
1.9632
1.96489
1.9664
1.96773
1.96889
1.96988
1.97069
1.97132
1.97177
1.97205
1.97216
1.97455
1.97443
1.97415
1.97369
1.97306
1.97224
1.97125
1.97008
1.96874
1.96722
1.96552
1.96365
1.96161
1.9594
1.95702
1.95447
1.95176
1.94888
1.94583
1.94263
1.93926
1.93574
1.93207
1.92824
1.92426
1.92014
1.91587
1.91146
1.90691
1.90223
1.89742
1.89247
1.88741
1.88222
1.87692
1.8715
1.86598
1.86035
1.85462
1.8488
1.84289
1.83689
1.83081
1.82466
1.81843
1.81215
1.8058
1.7994
1.79296
1.78647
1.77995
1.7734
1.76683
1.76024
1.75365
1.74705
1.74046
1.73388
1.72731
1.72078
1.71427
1.7078
1.70139
1.69502
1.68872
1.68249
1.67633
1.67025
1.66427
1.65838
1.6526
1.64693
1.64139
1.63596
1.63067
1.62552
1.62052
1.61567
1.61098
1.60646
1.60211
1.59793
1.59394
1.59014
1.58654
1.58313
1.57993
1.57694
1.57416
1.57159
1.56925
1.56713
1.56524
1.56358
1.56215
1.56096
1.56
1.55928
1.5588
1.55855
1.55855
1.55879
1.55926
1.55998
1.56093
1.56211
1.56354
1.56519
1.56707
1.56919
1.57152
1.57408
1.57685
1.57984
1.58303
1.58643
1.59003
1.59383
1.59781
1.60198
1.60632
1.61084
1.61552
1.62036
1.62536
1.6305
1.63579
1.6412
1.64675
1.65241
1.65818
1.66406
1.67004
1.67611
1.68226
1.68849
1.69479
1.70115
1.70756
1.71402
1.72052
1.72705
1.73361
1.74018
1.74677
1.75337
1.75996
1.76654
1.7731
1.77965
1.78616
1.79265
1.79909
1.80548
1.81182
1.81811
1.82433
1.83048
1.83655
1.84255
1.84846
1.85428
1.86
1.86563
1.87115
1.87656
1.88186
1.88705
1.89211
1.89705
1.90186
1.90654
1.91109
1.9155
1.91976
1.92389
1.92786
1.93169
1.93536
1.93888
1.94224
1.94545
1.94849
1.95137
1.95408
1.95663
1.95901
1.96122
1.96326
1.96513
1.96682
1.96834
1.96969
1.97086
1.97185
1.97266
1.9733
1.97376
1.97404
1.97415
1.97671
1.9766
1.97632
1.97586
1.97521
1.97439
1.97339
1.97222
1.97086
1.96933
1.96762
1.96574
1.96368
1.96145
1.95905
1.95648
1.95375
1.95084
1.94777
1.94454
1.94115
1.9376
1.93389
1.93003
1.92602
1.92186
1.91756
1.91311
1.90852
1.9038
1.89894
1.89395
1.88884
1.8836
1.87825
1.87278
1.8672
1.86152
1.85573
1.84985
1.84388
1.83782
1.83167
1.82545
1.81916
1.81281
1.80639
1.79992
1.7934
1.78684
1.78025
1.77362
1.76697
1.76031
1.75363
1.74695
1.74028
1.73361
1.72696
1.72034
1.71375
1.7072
1.70069
1.69424
1.68785
1.68153
1.67529
1.66913
1.66306
1.65709
1.65122
1.64547
1.63984
1.63434
1.62897
1.62374
1.61866
1.61374
1.60898
1.60438
1.59996
1.59572
1.59167
1.58781
1.58414
1.58068
1.57743
1.57439
1.57156
1.56895
1.56657
1.56442
1.5625
1.56081
1.55936
1.55814
1.55717
1.55643
1.55594
1.5557
1.55569
1.55593
1.55642
1.55714
1.55811
1.55932
1.56076
1.56245
1.56436
1.56651
1.56888
1.57148
1.5743
1.57734
1.58058
1.58404
1.5877
1.59155
1.5956
1.59983
1.60424
1.60883
1.61359
1.61851
1.62358
1.6288
1.63416
1.63966
1.64529
1.65103
1.65689
1.66285
1.66892
1.67507
1.68131
1.68763
1.69401
1.70045
1.70695
1.7135
1.72008
1.7267
1.73334
1.74
1.74667
1.75335
1.76002
1.76668
1.77332
1.77995
1.78654
1.79309
1.79961
1.80607
1.81249
1.81884
1.82512
1.83134
1.83748
1.84354
1.84951
1.85539
1.86117
1.86685
1.87243
1.87789
1.88324
1.88848
1.89359
1.89857
1.90343
1.90815
1.91274
1.91718
1.92149
1.92565
1.92966
1.93351
1.93722
1.94077
1.94416
1.94739
1.95045
1.95336
1.95609
1.95866
1.96106
1.96329
1.96534
1.96723
1.96893
1.97047
1.97182
1.973
1.974
1.97482
1.97546
1.97592
1.9762
1.97632
1.97906
1.97895
1.97866
1.9782
1.97755
1.97672
1.97571
1.97453
1.97316
1.97161
1.96989
1.96799
1.96592
1.96367
1.96125
1.95866
1.9559
1.95297
1.94988
1.94662
1.9432
1.93961
1.93587
1.93198
1.92793
1.92373
1.91939
1.9149
1.91026
1.90549
1.90059
1.89555
1.89039
1.8851
1.87969
1.87417
1.86853
1.86279
1.85694
1.85099
1.84495
1.83883
1.83261
1.82632
1.81996
1.81353
1.80704
1.80049
1.79389
1.78725
1.78057
1.77386
1.76713
1.76038
1.75361
1.74685
1.74008
1.73333
1.72659
1.71987
1.71319
1.70655
1.69995
1.6934
1.68692
1.68051
1.67417
1.66791
1.66175
1.65569
1.64973
1.64389
1.63817
1.63258
1.62712
1.62181
1.61665
1.61164
1.6068
1.60213
1.59763
1.59332
1.5892
1.58527
1.58154
1.57802
1.57471
1.57162
1.56874
1.56609
1.56366
1.56147
1.55952
1.5578
1.55632
1.55508
1.55409
1.55334
1.55285
1.55259
1.55259
1.55284
1.55333
1.55407
1.55505
1.55628
1.55775
1.55947
1.56142
1.5636
1.56602
1.56866
1.57153
1.57462
1.57792
1.58144
1.58516
1.58908
1.5932
1.5975
1.60199
1.60665
1.61149
1.61649
1.62165
1.62695
1.6324
1.63799
1.6437
1.64954
1.65549
1.66155
1.6677
1.67395
1.68028
1.68669
1.69317
1.69971
1.7063
1.71294
1.71961
1.72632
1.73306
1.73981
1.74657
1.75333
1.76009
1.76684
1.77357
1.78027
1.78695
1.79358
1.80018
1.80672
1.81321
1.81963
1.82599
1.83228
1.83849
1.84461
1.85065
1.85659
1.86244
1.86818
1.87381
1.87933
1.88474
1.89003
1.89519
1.90022
1.90513
1.90989
1.91452
1.91901
1.92336
1.92755
1.9316
1.93549
1.93923
1.94281
1.94623
1.94949
1.95258
1.95551
1.95827
1.96086
1.96328
1.96553
1.9676
1.9695
1.97122
1.97276
1.97413
1.97532
1.97632
1.97715
1.9778
1.97826
1.97855
1.97866
1.98159
1.98147
1.98119
1.98072
1.98006
1.97923
1.97821
1.97701
1.97564
1.97408
1.97234
1.97043
1.96833
1.96607
1.96362
1.96101
1.95822
1.95527
1.95214
1.94885
1.9454
1.94178
1.93801
1.93408
1.92999
1.92575
1.92136
1.91682
1.91215
1.90733
1.90237
1.89728
1.89206
1.88672
1.88125
1.87567
1.86997
1.86416
1.85824
1.85223
1.84612
1.83992
1.83363
1.82727
1.82082
1.81431
1.80774
1.80111
1.79443
1.7877
1.78093
1.77413
1.76731
1.76046
1.7536
1.74674
1.73988
1.73303
1.72619
1.71937
1.71259
1.70585
1.69915
1.6925
1.68592
1.6794
1.67296
1.66661
1.66034
1.65418
1.64813
1.64219
1.63637
1.63068
1.62513
1.61973
1.61447
1.60938
1.60445
1.5997
1.59512
1.59073
1.58653
1.58253
1.57874
1.57515
1.57178
1.56862
1.56569
1.56299
1.56052
1.55829
1.5563
1.55454
1.55304
1.55178
1.55077
1.55001
1.5495
1.54924
1.54924
1.54949
1.54999
1.55074
1.55175
1.553
1.5545
1.55625
1.55823
1.56046
1.56292
1.56562
1.56854
1.57169
1.57505
1.57863
1.58242
1.58641
1.59061
1.59499
1.59956
1.60431
1.60923
1.61432
1.61956
1.62496
1.6305
1.63618
1.642
1.64793
1.65398
1.66014
1.66639
1.67274
1.67918
1.68569
1.69226
1.6989
1.7056
1.71234
1.71911
1.72592
1.73275
1.7396
1.74646
1.75332
1.76017
1.76701
1.77383
1.78063
1.78739
1.79412
1.80079
1.80742
1.81399
1.8205
1.82693
1.8333
1.83958
1.84578
1.85188
1.85789
1.86381
1.86961
1.87531
1.88089
1.88636
1.8917
1.89692
1.902
1.90696
1.91177
1.91645
1.92098
1.92537
1.92961
1.93369
1.93763
1.9414
1.94501
1.94847
1.95175
1.95488
1.95783
1.96062
1.96323
1.96567
1.96794
1.97003
1.97194
1.97368
1.97524
1.97661
1.97781
1.97883
1.97966
1.98032
1.98079
1.98107
1.98119
1.9843
1.98418
1.98389
1.98342
1.98276
1.98191
1.98089
1.97968
1.97829
1.97672
1.97496
1.97303
1.97092
1.96863
1.96617
1.96353
1.96071
1.95773
1.95457
1.95125
1.94776
1.94411
1.9403
1.93633
1.9322
1.92791
1.92348
1.9189
1.91417
1.9093
1.90429
1.89914
1.89386
1.88846
1.88293
1.87728
1.87151
1.86563
1.85965
1.85356
1.84737
1.8411
1.83473
1.82828
1.82176
1.81516
1.8085
1.80178
1.79501
1.78818
1.78132
1.77443
1.7675
1.76056
1.7536
1.74663
1.73967
1.73271
1.72576
1.71884
1.71195
1.7051
1.69829
1.69154
1.68484
1.67822
1.67167
1.66521
1.65884
1.65257
1.6464
1.64036
1.63444
1.62865
1.62299
1.61749
1.61214
1.60695
1.60193
1.59708
1.59242
1.58795
1.58367
1.57959
1.57572
1.57206
1.56862
1.56541
1.56242
1.55966
1.55714
1.55486
1.55283
1.55104
1.54951
1.54822
1.54719
1.54641
1.54589
1.54563
1.54563
1.54588
1.5464
1.54717
1.54819
1.54947
1.551
1.55278
1.55481
1.55708
1.55959
1.56234
1.56532
1.56853
1.57196
1.57561
1.57948
1.58355
1.58782
1.59229
1.59694
1.60178
1.6068
1.61198
1.61732
1.62282
1.62847
1.63425
1.64017
1.64621
1.65236
1.65863
1.66499
1.67145
1.67799
1.68461
1.6913
1.69805
1.70485
1.7117
1.71858
1.7255
1.73244
1.73939
1.74635
1.75331
1.76027
1.76721
1.77413
1.78102
1.78788
1.79469
1.80146
1.80818
1.81484
1.82143
1.82795
1.83439
1.84076
1.84703
1.85321
1.8593
1.86528
1.87115
1.87692
1.88257
1.88809
1.8935
1.89877
1.90392
1.90892
1.91379
1.91852
1.9231
1.92753
1.93182
1.93594
1.93991
1.94373
1.94738
1.95086
1.95418
1.95734
1.96032
1.96313
1.96577
1.96823
1.97052
1.97263
1.97456
1.97632
1.97789
1.97928
1.98049
1.98151
1.98236
1.98301
1.98349
1.98378
1.98389
1.98719
1.98707
1.98678
1.9863
1.98563
1.98478
1.98375
1.98253
1.98112
1.97954
1.97777
1.97581
1.97368
1.97137
1.96888
1.96621
1.96337
1.96036
1.95717
1.95381
1.95029
1.9466
1.94275
1.93873
1.93456
1.93023
1.92574
1.92111
1.91633
1.9114
1.90633
1.90113
1.89579
1.89032
1.88472
1.879
1.87316
1.86721
1.86115
1.85499
1.84872
1.84236
1.83591
1.82937
1.82276
1.81607
1.80932
1.8025
1.79563
1.78871
1.78175
1.77475
1.76772
1.76066
1.7536
1.74652
1.73944
1.73237
1.72532
1.71828
1.71128
1.70431
1.69738
1.69051
1.6837
1.67696
1.67029
1.66371
1.65723
1.65084
1.64456
1.6384
1.63237
1.62647
1.62071
1.6151
1.60964
1.60435
1.59923
1.59429
1.58953
1.58496
1.5806
1.57644
1.57249
1.56875
1.56524
1.56196
1.55891
1.55609
1.55352
1.55119
1.54912
1.54729
1.54572
1.54441
1.54335
1.54256
1.54203
1.54176
1.54176
1.54202
1.54254
1.54333
1.54438
1.54568
1.54725
1.54906
1.55114
1.55346
1.55602
1.55883
1.56187
1.56515
1.56865
1.57238
1.57632
1.58048
1.58484
1.5894
1.59415
1.59908
1.6042
1.60948
1.61493
1.62054
1.62629
1.63218
1.63821
1.64437
1.65064
1.65702
1.6635
1.67007
1.67673
1.68347
1.69027
1.69714
1.70406
1.71102
1.71802
1.72505
1.7321
1.73917
1.74624
1.75331
1.76037
1.76742
1.77444
1.78144
1.7884
1.79532
1.80218
1.809
1.81575
1.82243
1.82904
1.83557
1.84202
1.84838
1.85464
1.8608
1.86686
1.87281
1.87864
1.88436
1.88995
1.89542
1.90076
1.90596
1.91103
1.91595
1.92073
1.92537
1.92985
1.93418
1.93835
1.94236
1.94621
1.9499
1.95342
1.95678
1.95996
1.96298
1.96582
1.96848
1.97097
1.97328
1.97541
1.97736
1.97913
1.98072
1.98213
1.98335
1.98438
1.98523
1.9859
1.98637
1.98667
1.98678
1.99027
1.99015
1.98985
1.98937
1.9887
1.98784
1.98679
1.98556
1.98414
1.98254
1.98075
1.97878
1.97662
1.97429
1.97177
1.96908
1.9662
1.96316
1.95994
1.95654
1.95298
1.94925
1.94535
1.94129
1.93707
1.93269
1.92816
1.92347
1.91863
1.91365
1.90852
1.90325
1.89785
1.89231
1.88664
1.88085
1.87493
1.8689
1.86276
1.85651
1.85016
1.84371
1.83717
1.83055
1.82384
1.81705
1.8102
1.80328
1.7963
1.78928
1.7822
1.77509
1.76795
1.76079
1.7536
1.74641
1.73922
1.73203
1.72485
1.71769
1.71056
1.70347
1.69642
1.68942
1.68249
1.67562
1.66883
1.66213
1.65551
1.649
1.6426
1.63632
1.63017
1.62415
1.61827
1.61255
1.60698
1.60158
1.59635
1.5913
1.58644
1.58178
1.57732
1.57307