/*--------------------------------*- C++ -*----------------------------------*\
| =========                 |                                                 |
| \\      /  F ield         | OpenFOAM: The Open Source CFD Toolbox           |
|  \\    /   O peration     | Version:  2412                                  |
|   \\  /    A nd           | Website:  www.openfoam.com                      |
|    \\/     M anipulation  |                                                 |
\*---------------------------------------------------------------------------*/
FoamFile
{
    version     2.0;
    format      ascii;
    arch        "LSB;label=32;scalar=64";
    class       surfaceScalarField;
    location    "1.07";
    object      phi;
}
// * * * * * * * * * * * * * * * * * * * * * * * * * * * * * * * * * * * * * //

dimensions      [0 3 -1 0 0 0 0];

oriented        oriented;

internalField   nonuniform List<scalar> 
79600
(
1.77516e-11
-1.79827e-11
3.27009e-11
-1.49491e-11
5.31308e-11
-2.0429e-11
7.55827e-11
-2.24516e-11
9.90471e-11
-2.34651e-11
1.22622e-10
-2.35758e-11
1.4603e-10
-2.34079e-11
1.69207e-10
-2.31775e-11
1.92121e-10
-2.29146e-11
2.14791e-10
-2.26713e-11
2.37231e-10
-2.24411e-11
2.5944e-10
-2.22105e-11
2.81419e-10
-2.198e-11
3.03164e-10
-2.17463e-11
3.24669e-10
-2.15061e-11
3.45926e-10
-2.12566e-11
3.66921e-10
-2.09946e-11
3.87642e-10
-2.072e-11
4.08075e-10
-2.04324e-11
4.28207e-10
-2.01309e-11
4.48021e-10
-1.98149e-11
4.67504e-10
-1.94837e-11
4.86639e-10
-1.91366e-11
5.05411e-10
-1.87732e-11
5.23803e-10
-1.83931e-11
5.418e-10
-1.79963e-11
5.59384e-10
-1.75831e-11
5.76538e-10
-1.71538e-11
5.93246e-10
-1.67086e-11
6.09492e-10
-1.62474e-11
6.25259e-10
-1.57698e-11
6.40533e-10
-1.52754e-11
6.55297e-10
-1.47639e-11
6.69533e-10
-1.42354e-11
6.83224e-10
-1.36902e-11
6.96354e-10
-1.31284e-11
7.08905e-10
-1.25503e-11
7.20861e-10
-1.19556e-11
7.32206e-10
-1.13442e-11
7.42923e-10
-1.07158e-11
7.52995e-10
-1.00704e-11
7.62406e-10
-9.40835e-12
7.71137e-10
-8.72994e-12
7.79174e-10
-8.0357e-12
7.865e-10
-7.32605e-12
7.931e-10
-6.60136e-12
7.98961e-10
-5.86209e-12
8.04068e-10
-5.10881e-12
8.08409e-10
-4.34213e-12
8.11971e-10
-3.5627e-12
8.14742e-10
-2.77108e-12
8.1671e-10
-1.96774e-12
8.17864e-10
-1.15297e-12
8.18192e-10
-3.26278e-13
8.17683e-10
5.10099e-13
8.16332e-10
1.35248e-12
8.14133e-10
2.20161e-12
8.11078e-10
3.05655e-12
8.07162e-10
3.91736e-12
8.02381e-10
4.78308e-12
7.96729e-10
5.65268e-12
7.90204e-10
6.52509e-12
7.82804e-10
7.39921e-12
7.74528e-10
8.27396e-12
7.65378e-10
9.14816e-12
7.55357e-10
1.00205e-11
7.44467e-10
1.08896e-11
7.32713e-10
1.17539e-11
7.20102e-10
1.26121e-11
7.06641e-10
1.34628e-11
6.92337e-10
1.43047e-11
6.77202e-10
1.51366e-11
6.61247e-10
1.59568e-11
6.44484e-10
1.67639e-11
6.26927e-10
1.75567e-11
6.08593e-10
1.83338e-11
5.895e-10
1.90939e-11
5.69664e-10
1.98358e-11
5.49107e-10
2.05579e-11
5.27849e-10
2.12588e-11
5.05914e-10
2.19368e-11
4.83324e-10
2.25906e-11
4.60107e-10
2.32186e-11
4.36289e-10
2.38193e-11
4.11898e-10
2.43911e-11
3.86965e-10
2.49329e-11
3.6152e-10
2.54439e-11
3.35596e-10
2.59232e-11
3.09226e-10
2.63698e-11
2.82443e-10
2.67828e-11
2.55282e-10
2.7161e-11
2.27778e-10
2.75034e-11
1.99967e-10
2.78094e-11
1.71888e-10
2.80783e-11
1.43577e-10
2.83097e-11
1.15072e-10
2.85034e-11
8.64122e-11
2.8659e-11
5.76358e-11
2.87761e-11
2.87815e-11
2.88546e-11
-1.11368e-13
2.88938e-11
-2.90043e-11
2.88942e-11
-5.78591e-11
2.88556e-11
-8.66367e-11
2.87774e-11
-1.15297e-10
2.86604e-11
-1.43802e-10
2.85049e-11
-1.72113e-10
2.83113e-11
-2.00193e-10
2.80801e-11
-2.28003e-10
2.78113e-11
-2.55508e-10
2.75055e-11
-2.82671e-10
2.71636e-11
-3.09456e-10
2.67862e-11
-3.3583e-10
2.63741e-11
-3.61758e-10
2.5928e-11
-3.87207e-10
2.54485e-11
-4.12145e-10
2.49373e-11
-4.3654e-10
2.43959e-11
-4.60363e-10
2.38244e-11
-4.83586e-10
2.3224e-11
-5.06182e-10
2.25968e-11
-5.28124e-10
2.19436e-11
-5.49389e-10
2.12657e-11
-5.69954e-10
2.05655e-11
-5.89798e-10
1.9844e-11
-6.08901e-10
1.91025e-11
-6.27244e-10
1.8343e-11
-6.4481e-10
1.75666e-11
-6.61584e-10
1.67746e-11
-6.77551e-10
1.59679e-11
-6.92698e-10
1.5148e-11
-7.07015e-10
1.43168e-11
-7.20492e-10
1.34759e-11
-7.33118e-10
1.26261e-11
-7.44888e-10
1.17683e-11
-7.55795e-10
1.09055e-11
-7.65835e-10
1.00392e-11
-7.75003e-10
9.16869e-12
-7.833e-10
8.29559e-12
-7.90725e-10
7.42291e-12
-7.97276e-10
6.551e-12
-8.02955e-10
5.67884e-12
-8.07767e-10
4.80883e-12
-8.11711e-10
3.94298e-12
-8.14791e-10
3.08054e-12
-8.17014e-10
2.22225e-12
-8.18385e-10
1.3698e-12
-8.1891e-10
5.24482e-13
-8.18597e-10
-3.12646e-13
-8.17456e-10
-1.13959e-12
-8.155e-10
-1.9541e-12
-8.12745e-10
-2.7555e-12
-8.09202e-10
-3.54312e-12
-8.04884e-10
-4.31779e-12
-7.99805e-10
-5.07931e-12
-7.93978e-10
-5.82742e-12
-7.87414e-10
-6.5622e-12
-7.8013e-10
-7.28305e-12
-7.72137e-10
-7.99036e-12
-7.6345e-10
-8.68416e-12
-7.54086e-10
-9.36277e-12
-7.44059e-10
-1.00257e-11
-7.33385e-10
-1.06731e-11
-7.22081e-10
-1.13041e-11
-7.10164e-10
-1.19168e-11
-6.97654e-10
-1.251e-11
-6.84567e-10
-1.30851e-11
-6.70922e-10
-1.36426e-11
-6.56735e-10
-1.41834e-11
-6.42027e-10
-1.47088e-11
-6.2681e-10
-1.52176e-11
-6.111e-10
-1.57107e-11
-5.94914e-10
-1.61877e-11
-5.78264e-10
-1.66493e-11
-5.61172e-10
-1.70931e-11
-5.43655e-10
-1.75152e-11
-5.25736e-10
-1.79174e-11
-5.07437e-10
-1.83e-11
-4.8877e-10
-1.86655e-11
-4.69755e-10
-1.90176e-11
-4.50401e-10
-1.93556e-11
-4.30719e-10
-1.96805e-11
-4.10726e-10
-1.99921e-11
-3.90438e-10
-2.02876e-11
-3.69875e-10
-2.05643e-11
-3.49058e-10
-2.08195e-11
-3.28004e-10
-2.10541e-11
-3.06732e-10
-2.12711e-11
-2.85258e-10
-2.14732e-11
-2.63594e-10
-2.16642e-11
-2.4175e-10
-2.18446e-11
-2.19742e-10
-2.2012e-11
-1.97578e-10
-2.2164e-11
-1.7528e-10
-2.22982e-11
-1.5287e-10
-2.24137e-11
-1.30363e-10
-2.25102e-11
-1.07775e-10
-2.25908e-11
-8.51252e-11
-2.26542e-11
-6.24403e-11
-2.26852e-11
-3.97995e-11
-2.26349e-11
-1.76849e-11
-2.21027e-11
-1.76692e-11
2.90892e-11
-4.70718e-11
5.74583e-11
-4.33182e-11
8.36443e-11
-4.66143e-11
1.10314e-10
-4.91201e-11
1.3744e-10
-5.05907e-11
1.64999e-10
-5.11353e-11
1.92828e-10
-5.12391e-11
2.20749e-10
-5.11e-11
2.48665e-10
-5.08316e-11
2.76492e-10
-5.04998e-11
3.04177e-10
-5.01271e-11
3.31685e-10
-4.97197e-11
3.58984e-10
-4.92815e-11
3.86051e-10
-4.88136e-11
4.1286e-10
-4.83153e-11
4.39389e-10
-4.77852e-11
4.65619e-10
-4.72224e-11
4.91527e-10
-4.66263e-11
5.17091e-10
-4.59965e-11
5.42291e-10
-4.53321e-11
5.67107e-10
-4.46324e-11
5.91517e-10
-4.38962e-11
6.15501e-10
-4.31227e-11
6.39039e-10
-4.23117e-11
6.62109e-10
-4.14629e-11
6.8469e-10
-4.05765e-11
7.0676e-10
-3.96526e-11
7.28296e-10
-3.86913e-11
7.49278e-10
-3.76923e-11
7.69683e-10
-3.66551e-11
7.8949e-10
-3.55795e-11
8.0868e-10
-3.44652e-11
8.27229e-10
-3.33123e-11
8.45117e-10
-3.21211e-11
8.62321e-10
-3.08918e-11
8.78818e-10
-2.96246e-11
8.94588e-10
-2.83193e-11
9.0961e-10
-2.69759e-11
9.23862e-10
-2.55944e-11
9.37324e-10
-2.4175e-11
9.49975e-10
-2.27183e-11
9.61794e-10
-2.12249e-11
9.7276e-10
-1.96953e-11
9.82854e-10
-1.81301e-11
9.92056e-10
-1.65297e-11
1.00035e-09
-1.48951e-11
1.00771e-09
-1.32274e-11
1.01413e-09
-1.15278e-11
1.01958e-09
-9.79785e-12
1.02406e-09
-8.03876e-12
1.02754e-09
-6.2518e-12
1.03001e-09
-4.43823e-12
1.03146e-09
-2.59962e-12
1.03188e-09
-7.38133e-13
1.03125e-09
1.14501e-12
1.02955e-09
3.04602e-12
1.02679e-09
4.96436e-12
1.02296e-09
6.8975e-12
1.01803e-09
8.84371e-12
1.01201e-09
1.0801e-11
1.0049e-09
1.27672e-11
9.96683e-10
1.47399e-11
9.87363e-10
1.67168e-11
9.76939e-10
1.86953e-11
9.65414e-10
2.06725e-11
9.52789e-10
2.26454e-11
9.39068e-10
2.4611e-11
9.24258e-10
2.65659e-11
9.08365e-10
2.85073e-11
8.91398e-10
3.04321e-11
8.73369e-10
3.23371e-11
8.54288e-10
3.42191e-11
8.34171e-10
3.60748e-11
8.13034e-10
3.7901e-11
7.90896e-10
3.96947e-11
7.67777e-10
4.14529e-11
7.437e-10
4.31724e-11
7.18687e-10
4.48502e-11
6.92764e-10
4.64829e-11
6.65958e-10
4.80671e-11
6.38298e-10
4.95995e-11
6.09814e-10
5.10767e-11
5.80538e-10
5.24954e-11
5.50505e-10
5.38525e-11
5.1975e-10
5.51451e-11
4.8831e-10
5.63708e-11
4.56225e-10
5.75275e-11
4.23534e-10
5.86129e-11
3.9028e-10
5.96245e-11
3.56503e-10
6.05595e-11
3.22247e-10
6.14158e-11
2.87557e-10
6.21916e-11
2.52478e-10
6.28854e-11
2.17059e-10
6.34959e-11
1.81345e-10
6.40217e-11
1.45386e-10
6.44619e-11
1.09229e-10
6.48155e-11
7.29242e-11
6.50816e-11
3.65209e-11
6.52595e-11
6.75451e-14
6.53484e-11
-3.63861e-11
6.53487e-11
-7.27902e-11
6.52602e-11
-1.09096e-10
6.50827e-11
-1.45253e-10
6.48176e-11
-1.81212e-10
6.44653e-11
-2.16926e-10
6.40261e-11
-2.52346e-10
6.35008e-11
-2.87425e-10
6.28906e-11
-3.22115e-10
6.21968e-11
-3.56373e-10
6.14213e-11
-3.90152e-10
6.05654e-11
-4.23409e-10
5.9631e-11
-4.56103e-10
5.86207e-11
-4.8819e-10
5.75364e-11
-5.19632e-10
5.63799e-11
-5.5039e-10
5.51544e-11
-5.80425e-10
5.38617e-11
-6.09703e-10
5.25039e-11
-6.38191e-10
5.1085e-11
-6.65855e-10
4.96083e-11
-6.92664e-10
4.80764e-11
-7.18592e-10
4.6493e-11
-7.4361e-10
4.48617e-11
-7.67692e-10
4.31853e-11
-7.90814e-10
4.14669e-11
-8.12956e-10
3.97094e-11
-8.34097e-10
3.79158e-11
-8.54219e-10
3.60897e-11
-8.73305e-10
3.42342e-11
-8.91341e-10
3.23527e-11
-9.08316e-10
3.04487e-11
-9.24217e-10
2.85258e-11
-9.39035e-10
2.65861e-11
-9.52763e-10
2.46327e-11
-9.65397e-10
2.267e-11
-9.7693e-10
2.07002e-11
-9.87359e-10
1.87247e-11
-9.96686e-10
1.67475e-11
-1.00491e-09
1.47727e-11
-1.01203e-09
1.28007e-11
-1.01806e-09
1.08332e-11
-1.02299e-09
8.87443e-12
-1.02684e-09
6.92656e-12
-1.02961e-09
4.99071e-12
-1.03131e-09
3.06942e-12
-1.03195e-09
1.16551e-12
-1.03154e-09
-7.18182e-13
-1.0301e-09
-2.57892e-12
-1.02764e-09
-4.41576e-12
-1.02417e-09
-6.22684e-12
-1.0197e-09
-8.00949e-12
-1.01426e-09
-9.76324e-12
-1.00785e-09
-1.14873e-11
-1.00049e-09
-1.31805e-11
-9.92208e-10
-1.48425e-11
-9.83015e-10
-1.64731e-11
-9.7293e-10
-1.80713e-11
-9.61973e-10
-1.96367e-11
-9.50167e-10
-2.11679e-11
-9.37529e-10
-2.26635e-11
-9.24081e-10
-2.41222e-11
-9.09841e-10
-2.55424e-11
-8.94831e-10
-2.69234e-11
-8.79073e-10
-2.8265e-11
-8.62587e-10
-2.95666e-11
-8.45398e-10
-3.08305e-11
-8.27524e-10
-3.20556e-11
-8.0899e-10
-3.32444e-11
-7.89816e-10
-3.4394e-11
-7.70022e-10
-3.55047e-11
-7.49633e-10
-3.65784e-11
-7.28666e-10
-3.76132e-11
-7.07147e-10
-3.86103e-11
-6.85097e-10
-3.95658e-11
-6.62536e-10
-4.0479e-11
-6.39488e-10
-4.13515e-11
-6.15968e-10
-4.21838e-11
-5.92003e-10
-4.2982e-11
-5.67613e-10
-4.37466e-11
-5.42819e-10
-4.44752e-11
-5.17643e-10
-4.51698e-11
-4.92104e-10
-4.58282e-11
-4.66221e-10
-4.64468e-11
-4.40016e-10
-4.70258e-11
-4.13507e-10
-4.75639e-11
-3.86714e-10
-4.80625e-11
-3.5966e-10
-4.85282e-11
-3.32362e-10
-4.89632e-11
-3.04841e-10
-4.93672e-11
-2.77119e-10
-4.97397e-11
-2.49211e-10
-5.00751e-11
-2.21139e-10
-5.03723e-11
-1.92923e-10
-5.06312e-11
-1.64581e-10
-5.08535e-11
-1.36131e-10
-5.10437e-11
-1.07586e-10
-5.12007e-11
-7.89661e-11
-5.13155e-11
-5.03138e-11
-5.13086e-11
-2.21282e-11
-5.03234e-11
-3.97893e-11
2.48667e-11
-7.19376e-11
5.616e-11
-7.46112e-11
8.52883e-11
-7.57432e-11
1.13767e-10
-7.75984e-11
1.42062e-10
-7.88847e-11
1.70375e-10
-7.94476e-11
1.98753e-10
-7.96167e-11
2.27144e-10
-7.94904e-11
2.55497e-10
-7.91845e-11
2.83763e-10
-7.87656e-11
3.11898e-10
-7.82627e-11
3.39868e-10
-7.76898e-11
3.6764e-10
-7.70545e-11
3.95187e-10
-7.63608e-11
4.22483e-10
-7.56104e-11
4.49503e-10
-7.48042e-11
4.76224e-10
-7.39424e-11
5.02623e-10
-7.3025e-11
5.28678e-10
-7.20517e-11
5.54366e-10
-7.10218e-11
5.79666e-10
-6.99344e-11
6.04557e-10
-6.87885e-11
6.29017e-10
-6.75837e-11
6.53025e-10
-6.63195e-11
6.76559e-10
-6.4996e-11
6.99596e-10
-6.36132e-11
7.22115e-10
-6.21709e-11
7.44092e-10
-6.06688e-11
7.65505e-10
-5.91064e-11
7.86332e-10
-5.74834e-11
8.06552e-10
-5.57995e-11
8.26142e-10
-5.40549e-11
8.4508e-10
-5.22496e-11
8.63344e-10
-5.03838e-11
8.80911e-10
-4.84577e-11
8.97758e-10
-4.64713e-11
9.13864e-10
-4.44245e-11
9.29207e-10
-4.23176e-11
9.43765e-10
-4.01511e-11
9.57517e-10
-3.79255e-11
9.70441e-10
-3.56417e-11
9.82518e-10
-3.33004e-11
9.93725e-10
-3.09022e-11
1.00404e-09
-2.8448e-11
1.01345e-09
-2.59387e-11
1.02193e-09
-2.33759e-11
1.02946e-09
-2.07613e-11
1.03603e-09
-1.80969e-11
1.04162e-09
-1.53845e-11
1.04621e-09
-1.2626e-11
1.04978e-09
-9.82337e-12
1.05232e-09
-6.97884e-12
1.05382e-09
-4.09515e-12
1.05426e-09
-1.17552e-12
1.05363e-09
1.77765e-12
1.05191e-09
4.7611e-12
1.04911e-09
7.77181e-12
1.0452e-09
1.08067e-11
1.04018e-09
1.38625e-11
1.03405e-09
1.6936e-11
1.02679e-09
2.00236e-11
1.01841e-09
2.31215e-11
1.0089e-09
2.62259e-11
9.98257e-10
2.93326e-11
9.86492e-10
3.24371e-11
9.73604e-10
3.55348e-11
9.59595e-10
3.86209e-11
9.44472e-10
4.16907e-11
9.28242e-10
4.47393e-11
9.10915e-10
4.7762e-11
8.925e-10
5.07538e-11
8.73011e-10
5.37096e-11
8.52461e-10
5.66242e-11
8.30869e-10
5.94927e-11
8.08253e-10
6.23101e-11
7.84635e-10
6.50716e-11
7.60036e-10
6.77723e-11
7.34481e-10
7.0407e-11
7.07996e-10
7.29704e-11
6.80608e-10
7.54572e-11
6.52347e-10
7.78623e-11
6.23243e-10
8.01807e-11
5.93331e-10
8.24076e-11
5.62643e-10
8.45382e-11
5.31217e-10
8.65684e-11
4.99092e-10
8.84944e-11
4.66307e-10
9.03123e-11
4.32902e-10
9.20179e-11
3.9892e-10
9.36071e-11
3.64403e-10
9.50762e-11
3.29396e-10
9.64218e-11
2.93945e-10
9.76412e-11
2.58097e-10
9.87322e-11
2.21899e-10
9.96926e-11
1.854e-10
1.0052e-10
1.4865e-10
1.01212e-10
1.11697e-10
1.01768e-10
7.45927e-11
1.02186e-10
3.73874e-11
1.02466e-10
1.30887e-13
1.02606e-10
-3.71262e-11
1.02606e-10
-7.43322e-11
1.02467e-10
-1.11437e-10
1.02188e-10
-1.48389e-10
1.01771e-10
-1.8514e-10
1.01216e-10
-2.21639e-10
1.00525e-10
-2.57837e-10
9.96978e-11
-2.93686e-10
9.87378e-11
-3.29138e-10
9.7647e-11
-3.64146e-10
9.64279e-11
-3.98664e-10
9.50829e-11
-4.32648e-10
9.36148e-11
-4.66055e-10
9.20271e-11
-4.98842e-10
9.03234e-11
-5.30968e-10
8.85064e-11
-5.62395e-10
8.65803e-11
-5.93085e-10
8.45496e-11
-6.22999e-10
8.2418e-11
-6.52105e-10
8.01905e-11
-6.80369e-10
7.78726e-11
-7.07759e-10
7.54684e-11
-7.34248e-10
7.29826e-11
-7.59806e-10
7.04208e-11
-7.84407e-10
6.77876e-11
-8.08028e-10
6.5088e-11
-8.30645e-10
6.23268e-11
-8.52239e-10
5.95093e-11
-8.72791e-10
5.6641e-11
-8.92283e-10
5.3727e-11
-9.10701e-10
5.0772e-11
-9.28033e-10
4.7781e-11
-9.44269e-10
4.47599e-11
-9.59396e-10
4.17134e-11
-9.73408e-10
3.86451e-11
-9.86301e-10
3.55607e-11
-9.9807e-10
3.2466e-11
-1.00871e-09
2.9364e-11
-1.01822e-09
2.62585e-11
-1.0266e-09
2.31551e-11
-1.03386e-09
2.00581e-11
-1.04e-09
1.69698e-11
-1.04502e-09
1.38944e-11
-1.04893e-09
1.08368e-11
-1.05174e-09
7.79989e-12
-1.05346e-09
4.78751e-12
-1.0541e-09
1.80285e-12
-1.05366e-09
-1.15131e-12
-1.05217e-09
-4.06988e-12
-1.04963e-09
-6.95135e-12
-1.04607e-09
-9.79312e-12
-1.04149e-09
-1.25921e-11
-1.0359e-09
-1.53461e-11
-1.02934e-09
-1.80535e-11
-1.0218e-09
-2.07123e-11
-1.01332e-09
-2.33216e-11
-1.00391e-09
-2.5881e-11
-9.93591e-10
-2.83887e-11
-9.82382e-10
-3.08431e-11
-9.70306e-10
-3.32428e-11
-9.57382e-10
-3.55861e-11
-9.43632e-10
-3.78712e-11
-9.29076e-10
-4.00968e-11
-9.13734e-10
-4.2262e-11
-8.97629e-10
-4.43672e-11
-8.80783e-10
-4.64108e-11
-8.63218e-10
-4.83949e-11
-8.44956e-10
-5.0319e-11
-8.26018e-10
-5.21823e-11
-8.06427e-10
-5.39847e-11
-7.86206e-10
-5.57252e-11
-7.65378e-10
-5.74063e-11
-7.43965e-10
-5.90269e-11
-7.21988e-10
-6.05865e-11
-6.9947e-10
-6.20855e-11
-6.76431e-10
-6.35205e-11
-6.5289e-10
-6.48919e-11
-6.28873e-10
-6.6203e-11
-6.04399e-10
-6.74558e-11
-5.79491e-10
-6.86523e-11
-5.54174e-10
-6.97942e-11
-5.28468e-10
-7.08791e-11
-5.02393e-10
-7.19042e-11
-4.75969e-10
-7.28713e-11
-4.49215e-10
-7.37788e-11
-4.2215e-10
-7.46261e-11
-3.94798e-10
-7.54174e-11
-3.67179e-10
-7.61522e-11
-3.3931e-10
-7.68325e-11
-3.11215e-10
-7.74631e-11
-2.82915e-10
-7.80409e-11
-2.5443e-10
-7.85616e-11
-2.25778e-10
-7.90255e-11
-1.96978e-10
-7.94332e-11
-1.68046e-10
-7.97864e-11
-1.39001e-10
-8.00877e-11
-1.0986e-10
-8.03374e-11
-8.06386e-11
-8.05238e-11
-5.13929e-11
-8.05485e-11
-2.26858e-11
-7.90449e-11
-6.24717e-11
2.2726e-11
-9.46626e-11
5.3611e-11
-1.05494e-10
8.37872e-11
-1.05919e-10
1.1309e-10
-1.06901e-10
1.41978e-10
-1.07771e-10
1.70732e-10
-1.082e-10
1.994e-10
-1.08282e-10
2.27986e-10
-1.08076e-10
2.56485e-10
-1.07682e-10
2.84869e-10
-1.07148e-10
3.13107e-10
-1.06501e-10
3.41171e-10
-1.05754e-10
3.69034e-10
-1.04917e-10
3.9667e-10
-1.03996e-10
4.24054e-10
-1.02993e-10
4.51162e-10
-1.01912e-10
4.7797e-10
-1.00751e-10
5.04458e-10
-9.9513e-11
5.30601e-10
-9.81965e-11
5.56379e-10
-9.6801e-11
5.81769e-10
-9.53259e-11
6.06751e-10
-9.37705e-11
6.31302e-10
-9.21344e-11
6.554e-10
-9.04174e-11
6.79024e-10
-8.86192e-11
7.02151e-10
-8.67397e-11
7.2476e-10
-8.47784e-11
7.46827e-10
-8.27349e-11
7.68329e-10
-8.06086e-11
7.89246e-10
-7.83995e-11
8.09554e-10
-7.61073e-11
8.29231e-10
-7.3732e-11
8.48256e-10
-7.12738e-11
8.66605e-10
-6.87326e-11
8.84256e-10
-6.61085e-11
9.01187e-10
-6.34015e-11
9.17375e-10
-6.0612e-11
9.32799e-10
-5.77405e-11
9.47435e-10
-5.47877e-11
9.61264e-10
-5.17544e-11
9.74264e-10
-4.86413e-11
9.86413e-10
-4.54495e-11
9.97692e-10
-4.21799e-11
1.00808e-09
-3.88339e-11
1.01755e-09
-3.5413e-11
1.0261e-09
-3.19193e-11
1.03369e-09
-2.8355e-11
1.04031e-09
-2.47226e-11
1.04595e-09
-2.10244e-11
1.05059e-09
-1.72629e-11
1.05421e-09
-1.34409e-11
1.0568e-09
-9.56173e-12
1.05833e-09
-5.62901e-12
1.05881e-09
-1.64738e-12
1.0582e-09
2.38119e-12
1.05651e-09
6.45191e-12
1.05372e-09
1.05601e-11
1.04982e-09
1.4702e-11
1.04481e-09
1.88731e-11
1.03868e-09
2.30686e-11
1.03142e-09
2.72834e-11
1.02303e-09
3.15125e-11
1.01351e-09
3.57504e-11
1.00285e-09
3.99913e-11
9.91055e-10
4.42292e-11
9.78133e-10
4.84578e-11
9.64085e-10
5.26707e-11
9.48916e-10
5.68615e-11
9.32634e-10
6.10237e-11
9.15247e-10
6.51506e-11
8.96767e-10
6.92354e-11
8.77206e-10
7.32713e-11
8.56578e-10
7.72512e-11
8.34901e-10
8.11685e-11
8.12194e-10
8.50163e-11
7.88479e-10
8.87878e-11
7.63777e-10
9.2476e-11
7.38113e-10
9.60737e-11
7.11512e-10
9.95735e-11
6.84002e-10
1.02968e-10
6.55612e-10
1.06252e-10
6.26374e-10
1.09417e-10
5.96321e-10
1.12458e-10
5.65489e-10
1.15369e-10
5.33913e-10
1.18142e-10
5.01633e-10
1.20774e-10
4.68688e-10
1.23258e-10
4.35118e-10
1.25588e-10
4.00967e-10
1.27759e-10
3.66277e-10
1.29766e-10
3.31093e-10
1.31604e-10
2.95463e-10
1.33271e-10
2.59432e-10
1.34762e-10
2.2305e-10
1.36074e-10
1.86365e-10
1.37205e-10
1.49426e-10
1.38151e-10
1.12283e-10
1.3891e-10
7.49872e-11
1.39482e-10
3.75897e-11
1.39864e-10
1.40842e-13
1.40055e-10
-3.73086e-11
1.40056e-10
-7.4707e-11
1.39865e-10
-1.12003e-10
1.39484e-10
-1.49146e-10
1.38913e-10
-1.86085e-10
1.38154e-10
-2.22771e-10
1.37208e-10
-2.59154e-10
1.36078e-10
-2.95185e-10
1.34766e-10
-3.30815e-10
1.33276e-10
-3.65999e-10
1.3161e-10
-4.0069e-10
1.29773e-10
-4.34842e-10
1.27767e-10
-4.68413e-10
1.25597e-10
-5.0136e-10
1.23269e-10
-5.33642e-10
1.20786e-10
-5.65219e-10
1.18155e-10
-5.96054e-10
1.15382e-10
-6.26108e-10
1.12472e-10
-6.55347e-10
1.09431e-10
-6.83739e-10
1.06266e-10
-7.11252e-10
1.02983e-10
-7.37856e-10
9.95881e-11
-7.63524e-10
9.60891e-11
-7.88229e-10
9.24926e-11
-8.11948e-10
8.88055e-11
-8.34656e-10
8.50349e-11
-8.56334e-10
8.11875e-11
-8.76963e-10
7.72707e-11
-8.96527e-10
7.32915e-11
-9.1501e-10
6.92563e-11
-9.32399e-10
6.51717e-11
-9.48686e-10
6.10453e-11
-9.63859e-10
5.6885e-11
-9.77909e-10
5.2696e-11
-9.90834e-10
4.84846e-11
-1.00263e-09
4.42583e-11
-1.01329e-09
4.00234e-11
-1.02281e-09
3.57841e-11
-1.03121e-09
3.15465e-11
-1.03847e-09
2.73179e-11
-1.0446e-09
2.3103e-11
-1.04961e-09
1.89066e-11
-1.05351e-09
1.47342e-11
-1.0563e-09
1.05909e-11
-1.058e-09
6.48162e-12
-1.05861e-09
2.41073e-12
-1.05814e-09
-1.6187e-12
-1.05661e-09
-5.60045e-12
-1.05403e-09
-9.53149e-12
-1.05041e-09
-1.34079e-11
-1.04578e-09
-1.72265e-11
-1.04014e-09
-2.09841e-11
-1.03352e-09
-2.46779e-11
-1.02592e-09
-2.83055e-11
-1.01737e-09
-3.18653e-11
-1.0079e-09
-3.53562e-11
-9.97509e-10
-3.87758e-11
-9.86229e-10
-4.2122e-11
-9.74079e-10
-4.53925e-11
-9.61078e-10
-4.85852e-11
-9.47248e-10
-5.16983e-11
-9.3261e-10
-5.47316e-11
-9.17187e-10
-5.76838e-11
-9.00998e-10
-6.05541e-11
-8.84068e-10
-6.3342e-11
-8.66415e-10
-6.60469e-11
-8.48066e-10
-6.86698e-11
-8.29039e-10
-7.12084e-11
-8.09358e-10
-7.36639e-11
-7.89046e-10
-7.60369e-11
-7.68125e-10
-7.83265e-11
-7.46619e-10
-8.05344e-11
-7.2455e-10
-8.26592e-11
-7.01937e-10
-8.46993e-11
-6.78802e-10
-8.66549e-11
-6.55168e-10
-8.8526e-11
-6.31057e-10
-9.03148e-11
-6.06489e-10
-9.20243e-11
-5.81487e-10
-9.36555e-11
-5.56074e-10
-9.52088e-11
-5.3027e-10
-9.6684e-11
-5.04096e-10
-9.80791e-11
-4.77574e-10
-9.93936e-11
-4.50722e-10
-1.00629e-10
-4.23564e-10
-1.01786e-10
-3.96117e-10
-1.02866e-10
-3.68403e-10
-1.03869e-10
-3.40442e-10
-1.04798e-10
-3.12252e-10
-1.05651e-10
-2.83855e-10
-1.06433e-10
-2.55275e-10
-1.07143e-10
-2.26527e-10
-1.07774e-10
-1.97628e-10
-1.08333e-10
-1.68596e-10
-1.08821e-10
-1.39452e-10
-1.09238e-10
-1.10218e-10
-1.09577e-10
-8.09121e-11
-1.09834e-10
-5.15789e-11
-1.09867e-10
-2.28055e-11
-1.07833e-10
-8.52755e-11
2.2111e-11
-1.16774e-10
5.2253e-11
-1.35634e-10
8.25339e-11
-1.36199e-10
1.1227e-10
-1.36636e-10
1.41597e-10
-1.37095e-10
1.70682e-10
-1.37284e-10
1.99589e-10
-1.37186e-10
2.2837e-10
-1.36854e-10
2.57022e-10
-1.36333e-10
2.85532e-10
-1.35657e-10
3.13879e-10
-1.34847e-10
3.42041e-10
-1.33915e-10
3.69995e-10
-1.3287e-10
3.97717e-10
-1.31717e-10
4.25184e-10
-1.3046e-10
4.52374e-10
-1.29102e-10
4.79263e-10
-1.27642e-10
5.05832e-10
-1.26083e-10
5.32057e-10
-1.24422e-10
5.57917e-10
-1.22661e-10
5.8339e-10
-1.20799e-10
6.08454e-10
-1.18834e-10
6.33088e-10
-1.16767e-10
6.57269e-10
-1.14598e-10
6.80976e-10
-1.12325e-10
7.04187e-10
-1.09949e-10
7.2688e-10
-1.07469e-10
7.49031e-10
-1.04884e-10
7.70619e-10
-1.02195e-10
7.9162e-10
-9.94e-11
8.12013e-10
-9.65e-11
8.31775e-10
-9.34944e-11
8.50884e-10
-9.03831e-11
8.69317e-10
-8.71661e-11
8.87053e-10
-8.38436e-11
9.04068e-10
-8.04159e-11
9.2034e-10
-7.68834e-11
9.35846e-10
-7.32469e-11
9.50565e-10
-6.95071e-11
9.64474e-10
-6.56648e-11
9.77554e-10
-6.17211e-11
9.89782e-10
-5.76771e-11
1.00114e-09
-5.35343e-11
1.0116e-09
-4.92947e-11
1.02115e-09
-4.49604e-11
1.02976e-09
-4.05338e-11
1.03742e-09
-3.60177e-11
1.04412e-09
-3.14147e-11
1.04982e-09
-2.67278e-11
1.05452e-09
-2.19603e-11
1.05819e-09
-1.71159e-11
1.06083e-09
-1.21988e-11
1.06242e-09
-7.21369e-12
1.06294e-09
-2.16629e-12
1.06238e-09
2.94211e-12
1.06072e-09
8.10445e-12
1.05797e-09
1.3315e-11
1.0541e-09
1.8569e-11
1.04911e-09
2.38604e-11
1.043e-09
2.91832e-11
1.03575e-09
3.45308e-11
1.02737e-09
3.98966e-11
1.01784e-09
4.52737e-11
1.00718e-09
5.06548e-11
9.95377e-10
5.60323e-11
9.82437e-10
6.13981e-11
9.68364e-10
6.67443e-11
9.53165e-10
7.20627e-11
9.36845e-10
7.73451e-11
9.19414e-10
8.25829e-11
9.00883e-10
8.77676e-11
8.81263e-10
9.28904e-11
8.60571e-10
9.79428e-11
8.38822e-10
1.02916e-10
8.16038e-10
1.07802e-10
7.92237e-10
1.1259e-10
7.67442e-10
1.17273e-10
7.41678e-10
1.2184e-10
7.1497e-10
1.26282e-10
6.87346e-10
1.30592e-10
6.58835e-10
1.34761e-10
6.2947e-10
1.38781e-10
5.99284e-10
1.42643e-10
5.68312e-10
1.4634e-10
5.36591e-10
1.49863e-10
5.0416e-10
1.53206e-10
4.71058e-10
1.5636e-10
4.37326e-10
1.59319e-10
4.03008e-10
1.62076e-10
3.68146e-10
1.64625e-10
3.32787e-10
1.66961e-10
2.96978e-10
1.69079e-10
2.60766e-10
1.70974e-10
2.24199e-10
1.72641e-10
1.87326e-10
1.74077e-10
1.50198e-10
1.75278e-10
1.12864e-10
1.76243e-10
7.53764e-11
1.7697e-10
3.77855e-11
1.77456e-10
1.42687e-13
1.77699e-10
-3.75008e-11
1.777e-10
-7.50929e-11
1.77457e-10
-1.12582e-10
1.76972e-10
-1.49916e-10
1.76246e-10
-1.87045e-10
1.75281e-10
-2.23918e-10
1.74079e-10
-2.60486e-10
1.72644e-10
-2.96698e-10
1.70978e-10
-3.32507e-10
1.69085e-10
-3.67866e-10
1.66968e-10
-4.02727e-10
1.64633e-10
-4.37046e-10
1.62085e-10
-4.70779e-10
1.59328e-10
-5.03883e-10
1.5637e-10
-5.36317e-10
1.53218e-10
-5.68039e-10
1.49876e-10
-5.99013e-10
1.46354e-10
-6.29201e-10
1.42659e-10
-6.58567e-10
1.38798e-10
-6.8708e-10
1.34779e-10
-7.14707e-10
1.3061e-10
-7.41418e-10
1.263e-10
-7.67186e-10
1.21857e-10
-7.91984e-10
1.1729e-10
-8.15789e-10
1.12609e-10
-8.38576e-10
1.07822e-10
-8.60326e-10
1.02938e-10
-8.81019e-10
9.79652e-11
-9.00641e-10
9.29129e-11
-9.19175e-10
8.77902e-11
-9.36609e-10
8.26056e-11
-9.52931e-10
7.7368e-11
-9.68135e-10
7.20869e-11
-9.82209e-10
6.67706e-11
-9.9515e-10
6.14261e-11
-1.00696e-09
5.60619e-11
-1.01762e-09
5.06868e-11
-1.02715e-09
4.53076e-11
-1.03553e-09
3.99308e-11
-1.04278e-09
3.45651e-11
-1.0489e-09
2.9218e-11
-1.05388e-09
2.38954e-11
-1.05775e-09
1.86038e-11
-1.06051e-09
1.33493e-11
-1.06217e-09
8.13778e-12
-1.06273e-09
2.97516e-12
-1.06222e-09
-2.13346e-12
-1.06064e-09
-7.18265e-12
-1.058e-09
-1.21669e-11
-1.05433e-09
-1.70813e-11
-1.04964e-09
-2.19221e-11
-1.04393e-09
-2.66855e-11
-1.03724e-09
-3.13685e-11
-1.02958e-09
-3.59682e-11
-1.02096e-09
-4.04812e-11
-1.01141e-09
-4.49054e-11
-1.00095e-09
-4.92384e-11
-9.89593e-10
-5.34778e-11
-9.77365e-10
-5.76205e-11
-9.64283e-10
-6.16641e-11
-9.50372e-10
-6.56074e-11
-9.35652e-10
-6.94496e-11
-9.20146e-10
-7.31903e-11
-9.03874e-10
-7.6826e-11
-8.86859e-10
-8.03578e-11
-8.69122e-10
-8.37839e-11
-8.50686e-10
-8.71047e-11
-8.31574e-10
-9.03202e-11
-8.11807e-10
-9.34297e-11
-7.9141e-10
-9.64342e-11
-7.70404e-10
-9.9333e-11
-7.48812e-10
-1.02127e-10
-7.26656e-10
-1.04816e-10
-7.03958e-10
-1.07398e-10
-6.80739e-10
-1.09873e-10
-6.5702e-10
-1.12243e-10
-6.32827e-10
-1.1451e-10
-6.08177e-10
-1.16674e-10
-5.83094e-10
-1.1874e-10
-5.57599e-10
-1.20707e-10
-5.31712e-10
-1.2257e-10
-5.05456e-10
-1.24334e-10
-4.78854e-10
-1.25997e-10
-4.51924e-10
-1.27559e-10
-4.24688e-10
-1.29024e-10
-3.97165e-10
-1.30391e-10
-3.69372e-10
-1.31661e-10
-3.41331e-10
-1.32837e-10
-3.13066e-10
-1.33919e-10
-2.84592e-10
-1.34907e-10
-2.55931e-10
-1.35802e-10
-2.27107e-10
-1.36605e-10
-1.98131e-10
-1.37311e-10
-1.69022e-10
-1.37928e-10
-1.398e-10
-1.38455e-10
-1.10499e-10
-1.38886e-10
-8.11263e-11
-1.39206e-10
-5.1734e-11
-1.39251e-10
-2.28851e-11
-1.36681e-10
-1.08166e-10
2.20245e-11
-1.38798e-10
5.17519e-11
-1.65361e-10
8.19755e-11
-1.66421e-10
1.11881e-10
-1.6654e-10
1.41449e-10
-1.66661e-10
1.70761e-10
-1.66594e-10
1.99885e-10
-1.66309e-10
2.28851e-10
-1.65819e-10
2.57665e-10
-1.65146e-10
2.86317e-10
-1.64309e-10
3.14792e-10
-1.63322e-10
3.43073e-10
-1.62194e-10
3.71138e-10
-1.60934e-10
3.98967e-10
-1.59546e-10
4.26539e-10
-1.58032e-10
4.53831e-10
-1.56395e-10
4.80822e-10
-1.54635e-10
5.07492e-10
-1.52753e-10
5.33819e-10
-1.50749e-10
5.59781e-10
-1.48622e-10
5.85356e-10
-1.46373e-10
6.10523e-10
-1.44e-10
6.3526e-10
-1.41503e-10
6.59544e-10
-1.38882e-10
6.83355e-10
-1.36135e-10
7.06671e-10
-1.33263e-10
7.29468e-10
-1.30264e-10
7.51724e-10
-1.27139e-10
7.73417e-10
-1.23886e-10
7.94524e-10
-1.20507e-10
8.15022e-10
-1.16999e-10
8.3489e-10
-1.13363e-10
8.54105e-10
-1.09598e-10
8.72644e-10
-1.05705e-10
8.90485e-10
-1.01684e-10
9.07605e-10
-9.75352e-11
9.23981e-10
-9.32594e-11
9.39591e-10
-8.88572e-11
9.54412e-10
-8.43293e-11
9.68423e-10
-7.96766e-11
9.81603e-10
-7.49006e-11
9.9393e-10
-7.00028e-11
1.00538e-09
-6.49853e-11
1.01594e-09
-5.98503e-11
1.02558e-09
-5.46006e-11
1.03428e-09
-4.92387e-11
1.04203e-09
-4.37677e-11
1.04881e-09
-3.81909e-11
1.05459e-09
-3.25118e-11
1.05937e-09
-2.67347e-11
1.06312e-09
-2.08641e-11
1.06582e-09
-1.4905e-11
1.06747e-09
-8.86285e-12
1.06805e-09
-2.74397e-12
1.06754e-09
3.44921e-12
1.06594e-09
9.70846e-12
1.06322e-09
1.60272e-11
1.05939e-09
2.23991e-11
1.05444e-09
2.8817e-11
1.04835e-09
3.52733e-11
1.04112e-09
4.17602e-11
1.03275e-09
4.82696e-11
1.02323e-09
5.47931e-11
1.01256e-09
6.13219e-11
1.00075e-09
6.78466e-11
9.87785e-10
7.43576e-11
9.73684e-10
8.08454e-11
9.58448e-10
8.72998e-11
9.42084e-10
9.37108e-11
9.246e-10
1.00068e-10
9.06007e-10
1.06361e-10
8.86317e-10
1.1258e-10
8.65545e-10
1.18714e-10
8.43709e-10
1.24752e-10
8.20828e-10
1.30684e-10
7.96921e-10
1.36498e-10
7.72011e-10
1.42183e-10
7.46123e-10
1.47729e-10
7.19282e-10
1.53123e-10
6.91516e-10
1.58357e-10
6.62856e-10
1.63421e-10
6.33334e-10
1.68303e-10
6.02982e-10
1.72995e-10
5.71836e-10
1.77485e-10
5.39934e-10
1.81765e-10
5.07314e-10
1.85825e-10
4.74016e-10
1.89657e-10
4.40083e-10
1.93251e-10
4.05556e-10
1.96601e-10
3.70481e-10
1.99698e-10
3.34904e-10
2.02536e-10
2.98872e-10
2.0511e-10
2.62433e-10
2.07411e-10
2.25635e-10
2.09437e-10
1.88528e-10
2.11182e-10
1.51163e-10
2.12643e-10
1.13591e-10
2.13816e-10
7.58626e-11
2.14699e-10
3.80295e-11
2.15289e-10
1.43661e-13
2.15585e-10
-3.77426e-11
2.15585e-10
-7.55768e-11
2.1529e-10
-1.13307e-10
2.14701e-10
-1.5088e-10
2.13819e-10
-1.88246e-10
2.12647e-10
-2.25354e-10
2.11187e-10
-2.62152e-10
2.09442e-10
-2.98591e-10
2.07418e-10
-3.34623e-10
2.05117e-10
-3.702e-10
2.02545e-10
-4.05276e-10
1.99707e-10
-4.39803e-10
1.9661e-10
-4.73737e-10
1.93262e-10
-5.07037e-10
1.89668e-10
-5.39659e-10
1.85838e-10
-5.71562e-10
1.8178e-10
-6.02709e-10
1.77502e-10
-6.33063e-10
1.73013e-10
-6.62587e-10
1.68323e-10
-6.9125e-10
1.63441e-10
-7.19018e-10
1.58378e-10
-7.45862e-10
1.53143e-10
-7.71754e-10
1.47749e-10
-7.96667e-10
1.42204e-10
-8.20577e-10
1.36519e-10
-8.43462e-10
1.30706e-10
-8.653e-10
1.24776e-10
-8.86073e-10
1.18738e-10
-9.05766e-10
1.12604e-10
-9.24362e-10
1.06385e-10
-9.41848e-10
1.00092e-10
-9.58214e-10
9.37357e-11
-9.73453e-10
8.73255e-11
-9.87556e-10
8.08727e-11
-1.00052e-09
7.43867e-11
-1.01233e-09
6.78768e-11
-1.023e-09
6.13534e-11
-1.03253e-09
5.48264e-11
-1.0409e-09
4.83041e-11
-1.04813e-09
4.17954e-11
-1.05422e-09
3.53093e-11
-1.05918e-09
2.88536e-11
-1.06301e-09
2.24361e-11
-1.06573e-09
1.6064e-11
-1.06733e-09
9.7444e-12
-1.06785e-09
3.48426e-12
-1.06727e-09
-2.70891e-12
-1.06563e-09
-8.8295e-12
-1.06292e-09
-1.48711e-11
-1.05918e-09
-2.08279e-11
-1.0544e-09
-2.66948e-11
-1.04862e-09
-3.24676e-11
-1.04185e-09
-3.81431e-11
-1.0341e-09
-4.3718e-11
-1.02539e-09
-4.91875e-11
-1.01575e-09
-5.45477e-11
-1.00519e-09
-5.9796e-11
-9.93742e-10
-6.49301e-11
-9.81415e-10
-6.99469e-11
-9.68233e-10
-7.48432e-11
-9.5422e-10
-7.96188e-11
-9.39398e-10
-8.42715e-11
-9.23787e-10
-8.88007e-11
-9.07411e-10
-9.32038e-11
-8.9029e-10
-9.74793e-11
-8.72448e-10
-1.01626e-10
-8.53905e-10
-1.05645e-10
-8.34686e-10
-1.09537e-10
-8.14815e-10
-1.13302e-10
-7.94311e-10
-1.16938e-10
-7.732e-10
-1.20445e-10
-7.51502e-10
-1.23825e-10
-7.29239e-10
-1.27076e-10
-7.06435e-10
-1.302e-10
-6.83112e-10
-1.33197e-10
-6.59291e-10