/*--------------------------------*- C++ -*----------------------------------*\
| =========                 |                                                 |
| \\      /  F ield         | OpenFOAM: The Open Source CFD Toolbox           |
|  \\    /   O peration     | Version:  2412                                  |
|   \\  /    A nd           | Website:  www.openfoam.com                      |
|    \\/     M anipulation  |                                                 |
\*---------------------------------------------------------------------------*/
FoamFile
{
    version     2.0;
    format      ascii;
    arch        "LSB;label=32;scalar=64";
    class       volVectorField;
    location    "1.07";
    object      U;
}
// * * * * * * * * * * * * * * * * * * * * * * * * * * * * * * * * * * * * * //

dimensions      [0 1 -1 0 0 0 0];

internalField   nonuniform List<vector> 
40000
(
(1.15742e-05 -4.68704e-06 0)
(2.36721e-05 -2.30516e-06 0)
(4.32245e-05 -7.52168e-06 0)
(6.34266e-05 -9.25245e-06 0)
(8.72925e-05 -9.78556e-06 0)
(0.000110806 -9.8955e-06 0)
(0.000134325 -9.80413e-06 0)
(0.0001576 -9.69362e-06 0)
(0.000180634 -9.56842e-06 0)
(0.000203441 -9.4615e-06 0)
(0.000226001 -9.36721e-06 0)
(0.000248328 -9.2732e-06 0)
(0.000270428 -9.17977e-06 0)
(0.000292296 -9.08556e-06 0)
(0.000313926 -8.98899e-06 0)
(0.000335309 -8.88823e-06 0)
(0.000356436 -8.7816e-06 0)
(0.000377297 -8.66931e-06 0)
(0.000397876 -8.55124e-06 0)
(0.000418161 -8.42709e-06 0)
(0.000438136 -8.2966e-06 0)
(0.000457786 -8.15957e-06 0)
(0.000477096 -8.01567e-06 0)
(0.000496051 -7.86457e-06 0)
(0.000514635 -7.70613e-06 0)
(0.000532831 -7.54041e-06 0)
(0.000550623 -7.36755e-06 0)
(0.000567994 -7.18785e-06 0)
(0.000584927 -7.00147e-06 0)
(0.000601406 -6.80837e-06 0)
(0.000617414 -6.60837e-06 0)
(0.000632937 -6.40127e-06 0)
(0.000647957 -6.1869e-06 0)
(0.000662458 -5.9653e-06 0)
(0.000676424 -5.73665e-06 0)
(0.000689836 -5.50115e-06 0)
(0.000702678 -5.25885e-06 0)
(0.000714934 -5.00968e-06 0)
(0.000726585 -4.75353e-06 0)
(0.000737618 -4.49026e-06 0)
(0.000748013 -4.21982e-06 0)
(0.000757756 -3.94232e-06 0)
(0.000766828 -3.658e-06 0)
(0.000775214 -3.36701e-06 0)
(0.000782896 -3.0695e-06 0)
(0.000789861 -2.76566e-06 0)
(0.000796092 -2.45568e-06 0)
(0.000801578 -2.13976e-06 0)
(0.000806303 -1.81819e-06 0)
(0.000810256 -1.4913e-06 0)
(0.000813423 -1.15933e-06 0)
(0.000815794 -8.22499e-07 0)
(0.000817356 -4.80985e-07 0)
(0.000818099 -1.34782e-07 0)
(0.000818009 2.15876e-07 0)
(0.000817079 5.69958e-07 0)
(0.000815305 9.26708e-07 0)
(0.000812678 1.28599e-06 0)
(0.000809194 1.64748e-06 0)
(0.000804845 2.01093e-06 0)
(0.000799629 2.37607e-06 0)
(0.00079354 2.74248e-06 0)
(0.000786577 3.10966e-06 0)
(0.000778739 3.47715e-06 0)
(0.000770026 3.84449e-06 0)
(0.000760441 4.21111e-06 0)
(0.000749985 4.57638e-06 0)
(0.000738662 4.93964e-06 0)
(0.000726479 5.30028e-06 0)
(0.000713442 5.65775e-06 0)
(0.000699559 6.01146e-06 0)
(0.000684839 6.3608e-06 0)
(0.000669292 6.70514e-06 0)
(0.000652932 7.04391e-06 0)
(0.00063577 7.37658e-06 0)
(0.000617824 7.70267e-06 0)
(0.000599108 8.02169e-06 0)
(0.000579642 8.33309e-06 0)
(0.000559444 8.6363e-06 0)
(0.000538534 8.93073e-06 0)
(0.000516935 9.21577e-06 0)
(0.000494671 9.49078e-06 0)
(0.000471765 9.75507e-06 0)
(0.000448245 1.0008e-05 0)
(0.000424139 1.02488e-05 0)
(0.000399474 1.04772e-05 0)
(0.000374282 1.06926e-05 0)
(0.000348595 1.08946e-05 0)
(0.000322445 1.10829e-05 0)
(0.000295866 1.12569e-05 0)
(0.000268891 1.14162e-05 0)
(0.000241556 1.15605e-05 0)
(0.000213896 1.16892e-05 0)
(0.000185947 1.18022e-05 0)
(0.000157749 1.18994e-05 0)
(0.000129338 1.19809e-05 0)
(0.000100752 1.20466e-05 0)
(7.20311e-05 1.20964e-05 0)
(4.32125e-05 1.21299e-05 0)
(1.43368e-05 1.21468e-05 0)
(-1.45596e-05 1.21467e-05 0)
(-4.34356e-05 1.21296e-05 0)
(-7.2255e-05 1.20958e-05 0)
(-0.000100977 1.20459e-05 0)
(-0.000129563 1.19799e-05 0)
(-0.000157974 1.1898e-05 0)
(-0.000186173 1.18003e-05 0)
(-0.000214121 1.16868e-05 0)
(-0.000241782 1.15577e-05 0)
(-0.000269119 1.14136e-05 0)
(-0.000296095 1.12546e-05 0)
(-0.000322678 1.10811e-05 0)
(-0.000348832 1.08933e-05 0)
(-0.000374522 1.06916e-05 0)
(-0.000399718 1.04767e-05 0)
(-0.000424387 1.02492e-05 0)
(-0.000448499 1.00092e-05 0)
(-0.000472024 9.75695e-06 0)
(-0.000494936 9.49351e-06 0)
(-0.000517207 9.21901e-06 0)
(-0.000538812 8.93407e-06 0)
(-0.00055973 8.63972e-06 0)
(-0.000579936 8.33637e-06 0)
(-0.000599411 8.02466e-06 0)
(-0.000618136 7.70546e-06 0)
(-0.000636092 7.37922e-06 0)
(-0.000653264 7.04641e-06 0)
(-0.000669635 6.70743e-06 0)
(-0.000685194 6.36288e-06 0)
(-0.000699927 6.01359e-06 0)
(-0.000713825 5.66025e-06 0)
(-0.000726877 5.30314e-06 0)
(-0.000739076 4.94262e-06 0)
(-0.000750415 4.57995e-06 0)
(-0.000760889 4.21582e-06 0)
(-0.000770494 3.84985e-06 0)
(-0.000779226 3.48273e-06 0)
(-0.000787087 3.11595e-06 0)
(-0.000794075 2.7497e-06 0)
(-0.00080019 2.38348e-06 0)
(-0.000805434 2.01843e-06 0)
(-0.000809812 1.65542e-06 0)
(-0.000813323 1.29393e-06 0)
(-0.000815974 9.34107e-07 0)
(-0.000817769 5.76398e-07 0)
(-0.000818717 2.2099e-07 0)
(-0.000818823 -1.31017e-07 0)
(-0.000818095 -4.78104e-07 0)
(-0.000816546 -8.20311e-07 0)
(-0.00081419 -1.1572e-06 0)
(-0.000811041 -1.4884e-06 0)
(-0.00080711 -1.81408e-06 0)
(-0.00080241 -2.13391e-06 0)
(-0.000796955 -2.44775e-06 0)
(-0.000790758 -2.75572e-06 0)
(-0.000783832 -3.05764e-06 0)
(-0.000776191 -3.35373e-06 0)
(-0.00076785 -3.64397e-06 0)
(-0.000758823 -3.92774e-06 0)
(-0.000749125 -4.20512e-06 0)
(-0.000738774 -4.47641e-06 0)
(-0.000727784 -4.74111e-06 0)
(-0.000716173 -4.99831e-06 0)
(-0.000703959 -5.24745e-06 0)
(-0.000691159 -5.48923e-06 0)
(-0.000677792 -5.72395e-06 0)
(-0.000663875 -5.95171e-06 0)
(-0.000649425 -6.17257e-06 0)
(-0.000634459 -6.38581e-06 0)
(-0.000618994 -6.59215e-06 0)
(-0.000603043 -6.79196e-06 0)
(-0.000586623 -6.98604e-06 0)
(-0.000569751 -7.17323e-06 0)
(-0.000552448 -7.35137e-06 0)
(-0.000534731 -7.52113e-06 0)
(-0.000516622 -7.68257e-06 0)
(-0.000498137 -7.83667e-06 0)
(-0.000479292 -7.98474e-06 0)
(-0.000460103 -8.12646e-06 0)
(-0.000440581 -8.26257e-06 0)
(-0.000420741 -8.39371e-06 0)
(-0.000400602 -8.51949e-06 0)
(-0.000380178 -8.63863e-06 0)
(-0.00035949 -8.74859e-06 0)
(-0.000338554 -8.84817e-06 0)
(-0.000317389 -8.93783e-06 0)
(-0.000296012 -9.01912e-06 0)
(-0.000274439 -9.09498e-06 0)
(-0.000252682 -9.16741e-06 0)
(-0.000230755 -9.23643e-06 0)
(-0.000208669 -9.30088e-06 0)
(-0.000186439 -9.35851e-06 0)
(-0.000164084 -9.40798e-06 0)
(-0.000141624 -9.44915e-06 0)
(-0.000119074 -9.48436e-06 0)
(-9.64557e-05 -9.51346e-06 0)
(-7.37791e-05 -9.5272e-06 0)
(-5.1079e-05 -9.51105e-06 0)
(-2.88245e-05 -9.34157e-06 0)
(-8.03127e-06 -8.02211e-06 0)
(1.66744e-05 -3.38705e-05 0)
(4.40494e-05 -2.89185e-05 0)
(7.11689e-05 -3.42296e-05 0)
(9.6497e-05 -3.67293e-05 0)
(0.000123545 -3.80587e-05 0)
(0.000150941 -3.82656e-05 0)
(0.000178719 -3.80961e-05 0)
(0.000206651 -3.77978e-05 0)
(0.000234611 -3.74417e-05 0)
(0.000262515 -3.70882e-05 0)
(0.000290293 -3.6738e-05 0)
(0.000317905 -3.63819e-05 0)
(0.000345322 -3.60191e-05 0)
(0.000372515 -3.56457e-05 0)
(0.00039946 -3.52584e-05 0)
(0.000426136 -3.48536e-05 0)
(0.000452521 -3.44283e-05 0)
(0.000478594 -3.39817e-05 0)
(0.000504334 -3.35128e-05 0)
(0.00052972 -3.30206e-05 0)
(0.000554731 -3.25039e-05 0)
(0.000579346 -3.19619e-05 0)
(0.000603546 -3.13937e-05 0)
(0.000627309 -3.07986e-05 0)
(0.000650616 -3.01763e-05 0)
(0.000673445 -2.9527e-05 0)
(0.000695773 -2.88507e-05 0)
(0.000717579 -2.81477e-05 0)
(0.000738841 -2.74179e-05 0)
(0.000759537 -2.66611e-05 0)
(0.000779646 -2.5877e-05 0)
(0.000799148 -2.50651e-05 0)
(0.00081802 -2.42253e-05 0)
(0.000836241 -2.33578e-05 0)
(0.000853789 -2.24629e-05 0)
(0.000870643 -2.15407e-05 0)
(0.000886779 -2.05913e-05 0)
(0.000902177 -1.96146e-05 0)
(0.000916816 -1.86103e-05 0)
(0.000930676 -1.75785e-05 0)
(0.000943734 -1.65194e-05 0)
(0.00095597 -1.54333e-05 0)
(0.000967365 -1.43209e-05 0)
(0.000977897 -1.31824e-05 0)
(0.000987547 -1.20185e-05 0)
(0.000996296 -1.08298e-05 0)
(0.00100413 -9.61711e-06 0)
(0.00101102 -8.38135e-06 0)
(0.00101696 -7.12356e-06 0)
(0.00102192 -5.84478e-06 0)
(0.0010259 -4.54593e-06 0)
(0.00102888 -3.22794e-06 0)
(0.00103084 -1.89184e-06 0)
(0.00103178 -5.38614e-07 0)
(0.00103167 8.30188e-07 0)
(0.00103051 2.21251e-06 0)
(0.00102829 3.60636e-06 0)
(0.00102499 5.01064e-06 0)
(0.00102061 6.42412e-06 0)
(0.00101514 7.8455e-06 0)
(0.00100857 9.2734e-06 0)
(0.00100091 1.07062e-05 0)
(0.000992138 1.2142e-05 0)
(0.000982266 1.3579e-05 0)
(0.000971291 1.50153e-05 0)
(0.000959215 1.64485e-05 0)
(0.000946042 1.78764e-05 0)
(0.000931776 1.92965e-05 0)
(0.000916424 2.07068e-05 0)
(0.000899993 2.21049e-05 0)
(0.000882493 2.34886e-05 0)
(0.000863937 2.48557e-05 0)
(0.000844336 2.62036e-05 0)
(0.000823707 2.753e-05 0)
(0.000802067 2.88328e-05 0)
(0.000779436 3.01098e-05 0)
(0.000755835 3.13588e-05 0)
(0.000731287 3.25776e-05 0)
(0.000705816 3.37638e-05 0)
(0.000679448 3.49149e-05 0)
(0.000652212 3.60285e-05 0)
(0.000624136 3.71022e-05 0)
(0.000595253 3.81336e-05 0)
(0.000565596 3.91201e-05 0)
(0.000535198 4.00599e-05 0)
(0.000504096 4.0951e-05 0)
(0.00047233 4.17918e-05 0)
(0.000439938 4.25807e-05 0)
(0.000406961 4.33159e-05 0)
(0.000373441 4.39955e-05 0)
(0.00033942 4.46178e-05 0)
(0.000304943 4.51815e-05 0)
(0.000270054 4.56856e-05 0)
(0.0002348 4.61289e-05 0)
(0.000199229 4.65108e-05 0)
(0.000163387 4.68305e-05 0)
(0.000127324 4.70875e-05 0)
(9.10881e-05 4.72811e-05 0)
(5.4729e-05 4.74107e-05 0)
(1.82972e-05 4.74757e-05 0)
(-1.81623e-05 4.74758e-05 0)
(-5.45947e-05 4.74108e-05 0)
(-9.09545e-05 4.72811e-05 0)
(-0.000127191 4.70878e-05 0)
(-0.000163254 4.68314e-05 0)
(-0.000199096 4.65121e-05 0)
(-0.000234668 4.61304e-05 0)
(-0.000269922 4.56872e-05 0)
(-0.000304811 4.51833e-05 0)
(-0.00033929 4.46199e-05 0)
(-0.000373313 4.39983e-05 0)
(-0.000406835 4.33197e-05 0)
(-0.000439815 4.25858e-05 0)
(-0.00047221 4.17978e-05 0)
(-0.000503978 4.09576e-05 0)
(-0.000535081 4.00675e-05 0)
(-0.000565481 3.91284e-05 0)
(-0.000595141 3.81419e-05 0)
(-0.000624028 3.71111e-05 0)
(-0.000652107 3.60381e-05 0)
(-0.000679347 3.49248e-05 0)
(-0.000705719 3.37744e-05 0)
(-0.000731195 3.25892e-05 0)
(-0.000755748 3.13712e-05 0)
(-0.000779353 3.01233e-05 0)
(-0.000801987 2.88471e-05 0)
(-0.000823631 2.7545e-05 0)
(-0.000844264 2.62191e-05 0)
(-0.00086387 2.48718e-05 0)
(-0.000882433 2.35058e-05 0)
(-0.00089994 2.21236e-05 0)
(-0.000916379 2.07274e-05 0)
(-0.00093174 1.93188e-05 0)
(-0.000946014 1.79007e-05 0)
(-0.000959196 1.64762e-05 0)
(-0.00097128 1.50461e-05 0)
(-0.000982261 1.36117e-05 0)
(-0.00099214 1.21767e-05 0)
(-0.00100092 1.07433e-05 0)
(-0.00100859 9.3113e-06 0)
(-0.00101516 7.88256e-06 0)
(-0.00102064 6.46024e-06 0)
(-0.00102503 5.04499e-06 0)
(-0.00102833 3.63772e-06 0)
(-0.00103057 2.24034e-06 0)
(-0.00103173 8.54611e-07 0)
(-0.00103185 -5.16673e-07 0)
(-0.00103093 -1.8703e-06 0)
(-0.00102898 -3.20566e-06 0)
(-0.00102601 -4.52142e-06 0)
(-0.00102204 -5.81589e-06 0)
(-0.00101708 -7.08909e-06 0)
(-0.00101115 -8.34047e-06 0)
(-0.00100427 -9.56937e-06 0)
(-0.000996447 -1.07759e-05 0)
(-0.000987705 -1.19596e-05 0)
(-0.000978062 -1.31203e-05 0)
(-0.000967539 -1.42576e-05 0)
(-0.000956154 -1.53701e-05 0)
(-0.00094393 -1.64569e-05 0)
(-0.000930885 -1.75174e-05 0)
(-0.000917039 -1.85503e-05 0)
(-0.000902414 -1.9554e-05 0)
(-0.000887029 -2.05281e-05 0)
(-0.000870907 -2.1473e-05 0)
(-0.000854067 -2.23903e-05 0)
(-0.000836533 -2.32799e-05 0)
(-0.000818325 -2.41433e-05 0)
(-0.000799467 -2.49788e-05 0)
(-0.000779978 -2.57869e-05 0)
(-0.000759882 -2.65686e-05 0)
(-0.000739201 -2.73234e-05 0)
(-0.000717958 -2.80503e-05 0)
(-0.000696176 -2.87453e-05 0)
(-0.000673874 -2.94088e-05 0)
(-0.00065107 -3.00419e-05 0)
(-0.000627782 -3.06461e-05 0)
(-0.000604032 -3.12262e-05 0)
(-0.000579845 -3.17825e-05 0)
(-0.000555246 -3.23145e-05 0)
(-0.00053026 -3.28234e-05 0)
(-0.000504904 -3.33064e-05 0)
(-0.000479197 -3.37599e-05 0)
(-0.000453156 -3.41814e-05 0)
(-0.000426798 -3.45699e-05 0)
(-0.000400142 -3.49277e-05 0)
(-0.000373212 -3.52604e-05 0)
(-0.00034603 -3.5572e-05 0)
(-0.000318617 -3.58639e-05 0)
(-0.000290994 -3.61351e-05 0)
(-0.00026318 -3.63817e-05 0)
(-0.000235191 -3.66015e-05 0)
(-0.000207045 -3.67931e-05 0)
(-0.000178763 -3.69565e-05 0)
(-0.000150367 -3.70951e-05 0)
(-0.000121873 -3.72074e-05 0)
(-9.3277e-05 -3.72783e-05 0)
(-6.46032e-05 -3.72367e-05 0)
(-3.64605e-05 -3.64455e-05 0)
(-9.35278e-06 -2.88063e-05 0)
(1.15355e-05 -5.85899e-05 0)
(4.00814e-05 -5.80835e-05 0)
(7.17873e-05 -5.99201e-05 0)
(9.96937e-05 -6.24858e-05 0)
(0.000127901 -6.42119e-05 0)
(0.000156115 -6.49808e-05 0)
(0.000184456 -6.52108e-05 0)
(0.000212857 -6.51431e-05 0)
(0.00024125 -6.48983e-05 0)
(0.000269579 -6.45496e-05 0)
(0.000297796 -6.41283e-05 0)
(0.000325862 -6.36482e-05 0)
(0.000353744 -6.31183e-05 0)
(0.000381412 -6.25421e-05 0)
(0.000408841 -6.19211e-05 0)
(0.000436005 -6.12554e-05 0)
(0.000462881 -6.05448e-05 0)
(0.000489446 -5.97894e-05 0)
(0.000515677 -5.89888e-05 0)
(0.000541552 -5.81423e-05 0)
(0.00056705 -5.7249e-05 0)
(0.000592148 -5.6308e-05 0)
(0.000616826 -5.53188e-05 0)
(0.000641062 -5.4281e-05 0)
(0.000664836 -5.31946e-05 0)
(0.000688125 -5.20598e-05 0)
(0.000710906 -5.08765e-05 0)
(0.000733157 -4.96446e-05 0)
(0.000754855 -4.83638e-05 0)
(0.000775978 -4.70338e-05 0)
(0.000796505 -4.56543e-05 0)
(0.000816412 -4.42253e-05 0)
(0.000835679 -4.27468e-05 0)
(0.000854283 -4.12191e-05 0)
(0.000872201 -3.96423e-05 0)
(0.000889411 -3.80164e-05 0)
(0.000905891 -3.63414e-05 0)
(0.000921618 -3.46173e-05 0)
(0.00093657 -3.28444e-05 0)
(0.000950727 -3.1023e-05 0)
(0.000964068 -2.91539e-05 0)
(0.00097657 -2.72378e-05 0)
(0.000988213 -2.52751e-05 0)
(0.000998978 -2.32666e-05 0)
(0.00100884 -2.1213e-05 0)
(0.00101779 -1.91156e-05 0)
(0.0010258 -1.69758e-05 0)
(0.00103285 -1.47953e-05 0)
(0.00103893 -1.25757e-05 0)
(0.00104402 -1.03187e-05 0)
(0.0010481 -8.02584e-06 0)
(0.00105116 -5.69886e-06 0)
(0.00105318 -3.33989e-06 0)
(0.00105415 -9.51506e-07 0)
(0.00105406 1.4639e-06 0)
(0.00105289 3.90412e-06 0)
(0.00105063 6.36644e-06 0)
(0.00104727 8.84835e-06 0)
(0.00104281 1.13475e-05 0)
(0.00103723 1.38612e-05 0)
(0.00103054 1.63866e-05 0)
(0.00102272 1.89207e-05 0)
(0.00101377 2.14602e-05 0)
(0.0010037 2.40017e-05 0)
(0.000992495 2.65416e-05 0)
(0.000980168 2.90758e-05 0)
(0.000966719 3.16004e-05 0)
(0.000952152 3.41113e-05 0)
(0.000936475 3.66045e-05 0)
(0.000919695 3.90762e-05 0)
(0.000901823 4.15224e-05 0)
(0.000882869 4.39387e-05 0)
(0.000862847 4.63212e-05 0)
(0.000841774 4.86658e-05 0)
(0.000819668 5.09687e-05 0)
(0.000796548 5.32259e-05 0)
(0.000772437 5.54338e-05 0)
(0.000747357 5.7588e-05 0)
(0.000721334 5.96844e-05 0)
(0.000694394 6.17187e-05 0)
(0.000666566 6.36867e-05 0)
(0.00063788 6.5584e-05 0)
(0.000608369 6.74065e-05 0)
(0.000578065 6.91503e-05 0)
(0.000547005 7.08117e-05 0)
(0.000515225 7.23875e-05 0)
(0.000482765 7.38746e-05 0)
(0.000449666 7.52697e-05 0)
(0.000415968 7.65694e-05 0)
(0.000381714 7.77704e-05 0)
(0.000346947 7.887e-05 0)
(0.000311713 7.98661e-05 0)
(0.000276059 8.07568e-05 0)
(0.000240031 8.15404e-05 0)
(0.000203678 8.22153e-05 0)
(0.000167048 8.27801e-05 0)
(0.000130191 8.32336e-05 0)
(9.31573e-05 8.3575e-05 0)
(5.59971e-05 8.38032e-05 0)
(1.87624e-05 8.39174e-05 0)
(-1.85009e-05 8.39174e-05 0)
(-5.57362e-05 8.38031e-05 0)
(-9.28967e-05 8.35748e-05 0)
(-0.000129931 8.32335e-05 0)
(-0.000166788 8.27801e-05 0)
(-0.000203418 8.2215e-05 0)
(-0.000239772 8.15393e-05 0)
(-0.0002758 8.07548e-05 0)
(-0.000311456 7.98632e-05 0)
(-0.00034669 7.88667e-05 0)
(-0.000381458 7.77672e-05 0)
(-0.000415713 7.65671e-05 0)
(-0.000449413 7.52694e-05 0)
(-0.000482515 7.38768e-05 0)
(-0.000514975 7.23917e-05 0)
(-0.000546755 7.08175e-05 0)
(-0.000577818 6.91576e-05 0)
(-0.000608123 6.74145e-05 0)
(-0.000637637 6.55929e-05 0)
(-0.000666325 6.36973e-05 0)
(-0.000694156 6.17309e-05 0)
(-0.000721099 5.9698e-05 0)
(-0.000747126 5.76031e-05 0)
(-0.000772208 5.545e-05 0)
(-0.000796322 5.32427e-05 0)
(-0.000819444 5.0985e-05 0)
(-0.000841552 4.86811e-05 0)
(-0.000862627 4.63354e-05 0)
(-0.000882651 4.39522e-05 0)
(-0.000901607 4.15355e-05 0)
(-0.000919484 3.90896e-05 0)
(-0.000936269 3.6619e-05 0)
(-0.000951952 3.41274e-05 0)
(-0.000966523 3.1618e-05 0)
(-0.000979976 2.90959e-05 0)
(-0.000992308 2.65652e-05 0)
(-0.00100351 2.40281e-05 0)
(-0.00101359 2.14884e-05 0)
(-0.00102253 1.89512e-05 0)
(-0.00103036 1.64188e-05 0)
(-0.00103705 1.3893e-05 0)
(-0.00104263 1.13781e-05 0)
(-0.00104709 8.8775e-06 0)
(-0.00105045 6.39322e-06 0)
(-0.00105271 3.92839e-06 0)
(-0.00105389 1.48601e-06 0)
(-0.00105399 -9.30901e-07 0)
(-0.00105303 -3.31929e-06 0)
(-0.00105101 -5.67693e-06 0)
(-0.00104796 -8.00176e-06 0)
(-0.00104389 -1.02908e-05 0)
(-0.0010388 -1.25427e-05 0)
(-0.00103273 -1.4756e-05 0)
(-0.00102567 -1.69293e-05 0)
(-0.00101766 -1.9062e-05 0)
(-0.00100871 -2.11539e-05 0)
(-0.000998844 -2.32037e-05 0)
(-0.000988077 -2.52105e-05 0)
(-0.000976432 -2.7173e-05 0)
(-0.00096393 -2.90899e-05 0)
(-0.000950592 -3.09598e-05 0)
(-0.000936437 -3.27811e-05 0)
(-0.000921486 -3.45531e-05 0)
(-0.000905763 -3.62761e-05 0)
(-0.000889288 -3.79489e-05 0)
(-0.00087208 -3.95736e-05 0)
(-0.000854163 -4.11488e-05 0)
(-0.000835559 -4.26752e-05 0)
(-0.000816289 -4.4151e-05 0)
(-0.000796378 -4.5576e-05 0)
(-0.000775849 -4.69528e-05 0)
(-0.000754726 -4.82798e-05 0)
(-0.000733031 -4.95576e-05 0)
(-0.000710786 -5.07847e-05 0)
(-0.00068801 -5.19593e-05 0)
(-0.000664722 -5.30824e-05 0)
(-0.000640939 -5.41557e-05 0)
(-0.000616684 -5.51829e-05 0)
(-0.000591983 -5.61651e-05 0)
(-0.000566864 -5.71019e-05 0)
(-0.000541352 -5.79931e-05 0)
(-0.000515465 -5.88355e-05 0)
(-0.000489219 -5.96275e-05 0)
(-0.000462631 -6.03675e-05 0)
(-0.000435718 -6.10547e-05 0)
(-0.000408504 -6.16926e-05 0)
(-0.000381012 -6.22865e-05 0)
(-0.000353264 -6.28401e-05 0)
(-0.000325281 -6.33565e-05 0)
(-0.000297085 -6.38339e-05 0)
(-0.000268693 -6.42666e-05 0)
(-0.000240122 -6.46522e-05 0)
(-0.00021139 -6.49891e-05 0)
(-0.000182521 -6.52778e-05 0)
(-0.000153536 -6.55225e-05 0)
(-0.000124447 -6.57236e-05 0)
(-9.52476e-05 -6.58708e-05 0)
(-6.59765e-05 -6.58772e-05 0)
(-3.73057e-05 -6.46337e-05 0)
(-9.52506e-06 -5.10779e-05 0)
(9.52442e-06 -8.4355e-05 0)
(3.75206e-05 -9.06171e-05 0)
(6.94851e-05 -9.09036e-05 0)
(9.87452e-05 -9.21818e-05 0)
(0.00012769 -9.32081e-05 0)
(0.000156403 -9.36908e-05 0)
(0.000185057 -9.37889e-05 0)
(0.000213663 -9.36408e-05 0)
(0.000242204 -9.33185e-05 0)
(0.000270651 -9.28658e-05 0)
(0.000298969 -9.23087e-05 0)
(0.000327128 -9.16623e-05 0)
(0.000355099 -9.09365e-05 0)
(0.000382855 -9.01367e-05 0)
(0.000410371 -8.92661e-05 0)
(0.000437622 -8.83265e-05 0)
(0.000464585 -8.73188e-05 0)
(0.000491238 -8.62435e-05 0)
(0.000517557 -8.51004e-05 0)
(0.000543521 -8.38891e-05 0)
(0.000569109 -8.26087e-05 0)
(0.000594297 -8.12585e-05 0)
(0.000619066 -7.98382e-05 0)
(0.000643393 -7.83476e-05 0)
(0.000667257 -7.67868e-05 0)
(0.000690636 -7.51556e-05 0)
(0.000713507 -7.34538e-05 0)
(0.000735847 -7.1681e-05 0)
(0.000757635 -6.98369e-05 0)
(0.000778848 -6.79212e-05 0)
(0.000799463 -6.59336e-05 0)
(0.000819458 -6.38742e-05 0)
(0.000838812 -6.17431e-05 0)
(0.000857502 -5.95404e-05 0)
(0.000875505 -5.72661e-05 0)
(0.000892799 -5.49202e-05 0)
(0.000909361 -5.25028e-05 0)
(0.000925169 -5.00143e-05 0)
(0.000940202 -4.74552e-05 0)
(0.000954437 -4.48262e-05 0)
(0.000967853 -4.21282e-05 0)
(0.00098043 -3.9362e-05 0)
(0.000992145 -3.65285e-05 0)
(0.00100298 -3.36286e-05 0)
(0.00101291 -3.06638e-05 0)
(0.00102192 -2.76359e-05 0)
(0.00102999 -2.4547e-05 0)
(0.00103711 -2.13991e-05 0)
(0.00104324 -1.81946e-05 0)
(0.00104838 -1.49355e-05 0)
(0.00105251 -1.16243e-05 0)
(0.00105561 -8.26365e-06 0)
(0.00105768 -4.85666e-06 0)
(0.00105868 -1.40685e-06 0)
(0.00105862 2.08257e-06 0)
(0.00105747 5.60813e-06 0)
(0.00105523 9.16643e-06 0)
(0.00105189 1.27539e-05 0)
(0.00104744 1.63667e-05 0)
(0.00104187 2.00009e-05 0)
(0.00103517 2.3652e-05 0)
(0.00102735 2.73155e-05 0)
(0.00101839 3.09866e-05 0)
(0.0010083 3.46604e-05 0)
(0.000997073 3.83313e-05 0)
(0.000984715 4.19938e-05 0)
(0.00097123 4.56424e-05 0)
(0.00095662 4.92712e-05 0)
(0.000940894 5.28748e-05 0)
(0.000924058 5.64473e-05 0)
(0.000906123 5.99831e-05 0)
(0.0008871 6.34761e-05 0)
(0.000867004 6.69205e-05 0)
(0.000845849 7.03106e-05 0)
(0.000823655 7.36407e-05 0)
(0.000800442 7.69051e-05 0)
(0.00077623 8.00979e-05 0)
(0.000751045 8.32129e-05 0)
(0.000724909 8.62439e-05 0)
(0.00069785 8.91846e-05 0)
(0.000669897 9.20291e-05 0)
(0.00064108 9.47716e-05 0)
(0.000611431 9.74061e-05 0)
(0.000580984 9.99272e-05 0)
(0.000549776 0.00010233 0)
(0.000517844 0.000104609 0)
(0.000485227 0.000106759 0)
(0.000451965 0.000108777 0)
(0.0004181 0.000110656 0)
(0.000383675 0.000112392 0)
(0.000348733 0.000113983 0)
(0.000313321 0.000115424 0)
(0.000277486 0.000116713 0)
(0.000241274 0.000117847 0)
(0.000204736 0.000118824 0)
(0.000167918 0.000119641 0)
(0.000130872 0.000120297 0)
(9.36478e-05 0.000120792 0)
(5.62958e-05 0.000121122 0)
(1.88687e-05 0.000121288 0)
(-1.85871e-05 0.000121288 0)
(-5.60148e-05 0.000121124 0)
(-9.33673e-05 0.000120794 0)
(-0.000130592 0.0001203 0)
(-0.000167639 0.000119644 0)
(-0.000204457 0.000118826 0)
(-0.000240997 0.000117848 0)
(-0.000277209 0.000116713 0)
(-0.000313044 0.000115423 0)
(-0.000348456 0.000113982 0)
(-0.000383398 0.000112392 0)
(-0.000417824 0.000110656 0)
(-0.00045169 0.000108778 0)
(-0.000484953 0.000106764 0)
(-0.000517572 0.000104615 0)
(-0.000549505 0.000102338 0)
(-0.000580715 9.9937e-05 0)
(-0.000611163 9.74172e-05 0)
(-0.000640814 9.4784e-05 0)
(-0.000669633 9.20436e-05 0)
(-0.000697589 8.92011e-05 0)
(-0.00072465 8.62619e-05 0)
(-0.00075079 8.32325e-05 0)
(-0.00077598 8.01186e-05 0)
(-0.000800194 7.69262e-05 0)
(-0.000823411 7.36613e-05 0)
(-0.000845606 7.03297e-05 0)
(-0.000866762 6.6938e-05 0)
(-0.00088686 6.34923e-05 0)
(-0.000905885 5.99981e-05 0)
(-0.000923823 5.64611e-05 0)
(-0.000940662 5.28881e-05 0)
(-0.000956393 4.92854e-05 0)
(-0.000971006 4.56575e-05 0)
(-0.000984495 4.20103e-05 0)
(-0.000996855 3.83507e-05 0)
(-0.00100808 3.46833e-05 0)
(-0.00101817 3.10121e-05 0)
(-0.00102713 2.73429e-05 0)
(-0.00103496 2.36815e-05 0)
(-0.00104166 2.00313e-05 0)
(-0.00104723 1.63969e-05 0)
(-0.00105168 1.27832e-05 0)
(-0.00105502 9.19439e-06 0)
(-0.00105727 5.63484e-06 0)
(-0.00105842 2.10847e-06 0)
(-0.00105848 -1.38158e-06 0)
(-0.00105748 -4.83164e-06 0)
(-0.00105543 -8.23699e-06 0)
(-0.00105233 -1.1595e-05 0)
(-0.00104821 -1.49024e-05 0)
(-0.00104307 -1.81566e-05 0)
(-0.00103694 -2.13554e-05 0)
(-0.00102982 -2.44965e-05 0)
(-0.00102175 -2.7579e-05 0)
(-0.00101273 -3.06023e-05 0)
(-0.0010028 -3.35642e-05 0)
(-0.00099196 -3.6463e-05 0)
(-0.000980242 -3.9297e-05 0)
(-0.000967665 -4.20644e-05 0)
(-0.000954248 -4.47636e-05 0)
(-0.000940013 -4.73937e-05 0)
(-0.000924981 -4.99533e-05 0)
(-0.000909175 -5.24424e-05 0)
(-0.000892615 -5.48596e-05 0)
(-0.000875322 -5.72058e-05 0)
(-0.000857318 -5.94807e-05 0)
(-0.000838624 -6.16826e-05 0)
(-0.000819264 -6.38117e-05 0)
(-0.000799263 -6.5868e-05 0)
(-0.000778643 -6.78527e-05 0)
(-0.000757427 -6.9766e-05 0)
(-0.000735639 -7.16071e-05 0)
(-0.0007133 -7.33755e-05 0)
(-0.000690429 -7.50698e-05 0)
(-0.000667046 -7.66904e-05 0)
(-0.000643169 -7.82402e-05 0)
(-0.000618821 -7.97219e-05 0)
(-0.000594027 -8.11367e-05 0)
(-0.000568814 -8.24854e-05 0)
(-0.000543206 -8.37659e-05 0)
(-0.00051722 -8.49754e-05 0)
(-0.000490875 -8.61138e-05 0)
(-0.000464186 -8.71813e-05 0)
(-0.000437175 -8.81788e-05 0)
(-0.000409865 -8.91106e-05 0)
(-0.00038228 -8.99788e-05 0)
(-0.000354443 -9.07854e-05 0)
(-0.000326371 -9.15327e-05 0)
(-0.00029808 -9.22199e-05 0)
(-0.000269589 -9.28412e-05 0)
(-0.000240917 -9.33914e-05 0)
(-0.000212085 -9.38716e-05 0)
(-0.000183117 -9.42857e-05 0)
(-0.000154037 -9.46386e-05 0)
(-0.000124852 -9.49287e-05 0)
(-9.55602e-05 -9.51495e-05 0)
(-6.62047e-05 -9.51825e-05 0)
(-3.74708e-05 -9.34199e-05 0)
(-9.57496e-06 -7.3861e-05 0)
(9.21585e-06 -0.000106135 0)
(3.65248e-05 -0.000120811 0)
(6.78905e-05 -0.000121101 0)
(9.76858e-05 -0.00012176 0)
(0.00012712 -0.000122371 0)
(0.000156248 -0.000122637 0)
(0.000185188 -0.000122608 0)
(0.000213998 -0.000122351 0)
(0.000242698 -0.000121913 0)
(0.000271274 -0.000121326 0)
(0.000299703 -0.000120611 0)
(0.000327961 -0.000119783 0)
(0.000356022 -0.000118851 0)
(0.000383864 -0.000117821 0)
(0.000411463 -0.000116697 0)
(0.000438796 -0.000115481 0)
(0.00046584 -0.000114174 0)
(0.000492573 -0.000112777 0)
(0.000518973 -0.000111291 0)
(0.000545019 -0.000109714 0)
(0.000570688 -0.000108046 0)
(0.00059596 -0.000106287 0)
(0.000620811 -0.000104436 0)
(0.000645222 -0.000102494 0)
(0.000669169 -0.000100459 0)
(0.000692631 -9.83311e-05 0)
(0.000715585 -9.61107e-05 0)
(0.00073801 -9.3797e-05 0)
(0.000759882 -9.13897e-05 0)
(0.00078118 -8.88885e-05 0)
(0.000801879 -8.62931e-05 0)
(0.000821959 -8.36035e-05 0)
(0.000841398 -8.08195e-05 0)
(0.000860172 -7.79412e-05 0)
(0.000878259 -7.49686e-05 0)
(0.000895638 -7.19019e-05 0)
(0.000912284 -6.87415e-05 0)
(0.000928175 -6.54879e-05 0)
(0.00094329 -6.21419e-05 0)
(0.000957607 -5.87042e-05 0)
(0.000971103 -5.51758e-05 0)
(0.000983759 -5.15578e-05 0)
(0.000995553 -4.78515e-05 0)
(0.00100646 -4.40585e-05 0)
(0.00101647 -4.01808e-05 0)
(0.00102556 -3.62206e-05 0)
(0.0010337 -3.21805e-05 0)
(0.00104087 -2.8063e-05 0)
(0.00104707 -2.38708e-05 0)
(0.00105228 -1.96067e-05 0)
(0.00105647 -1.52741e-05 0)
(0.00105963 -1.08765e-05 0)
(0.00106174 -6.41796e-06 0)
(0.00106279 -1.90274e-06 0)
(0.00106277 2.66457e-06 0)
(0.00106167 7.27976e-06 0)
(0.00105946 1.19386e-05 0)
(0.00105615 1.66362e-05 0)
(0.00105173 2.13674e-05 0)
(0.00104618 2.61267e-05 0)
(0.0010395 3.09081e-05 0)
(0.00103168 3.57057e-05 0)
(0.00102273 4.05132e-05 0)
(0.00101263 4.5324e-05 0)
(0.0010014 5.01311e-05 0)
(0.000989029 5.49273e-05 0)
(0.000975522 5.97054e-05 0)
(0.000960885 6.44581e-05 0)
(0.000945124 6.91782e-05 0)
(0.000928248 7.38581e-05 0)
(0.000910265 7.84902e-05 0)
(0.000891188 8.3067e-05 0)
(0.00087103 8.75808e-05 0)
(0.000849807 9.20239e-05 0)
(0.000827538 9.63888e-05 0)
(0.000804243 0.000100668 0)
(0.000779943 0.000104852 0)
(0.000754661 0.000108934 0)
(0.000728422 0.000112906 0)
(0.000701253 0.000116758 0)
(0.000673182 0.000120485 0)
(0.000644241 0.000124078 0)
(0.000614462 0.00012753 0)
(0.000583879 0.000130833 0)
(0.000552528 0.000133981 0)
(0.000520447 0.000136968 0)
(0.000487676 0.000139786 0)
(0.000454255 0.000142429 0)
(0.000420225 0.000144891 0)
(0.00038563 0.000147168 0)
(0.000350515 0.000149253 0)
(0.000314926 0.000151144 0)
(0.00027891 0.000152836 0)
(0.000242516 0.000154324 0)
(0.000205791 0.000155607 0)
(0.000168785 0.00015668 0)
(0.000131549 0.000157542 0)
(9.41334e-05 0.00015819 0)
(5.65887e-05 0.000158625 0)
(1.89677e-05 0.000158842 0)
(-1.86823e-05 0.000158843 0)
(-5.63038e-05 0.000158627 0)
(-9.38498e-05 0.000158195 0)
(-0.000131267 0.000157548 0)
(-0.000168504 0.000156686 0)
(-0.000205511 0.000155613 0)
(-0.000242237 0.00015433 0)
(-0.000278632 0.000152842 0)
(-0.000314647 0.000151151 0)
(-0.000350236 0.000149261 0)
(-0.000385351 0.000147176 0)
(-0.000419946 0.0001449 0)
(-0.000453976 0.000142438 0)
(-0.000487399 0.000139796 0)
(-0.000520171 0.000136979 0)
(-0.000552253 0.000133993 0)
(-0.000583606 0.000130846 0)
(-0.000614191 0.000127544 0)
(-0.000643971 0.000124093 0)
(-0.000672914 0.000120502 0)
(-0.000700987 0.000116776 0)
(-0.00072816 0.000112924 0)
(-0.000754403 0.000108954 0)
(-0.000779689 0.000104873 0)
(-0.000803993 0.00010069 0)
(-0.000827292 9.64119e-05 0)
(-0.000849563 9.20471e-05 0)
(-0.000870787 8.76032e-05 0)
(-0.000890946 8.30885e-05 0)
(-0.000910026 7.85106e-05 0)
(-0.000928011 7.38769e-05 0)
(-0.000944891 6.91958e-05 0)
(-0.000960655 6.4476e-05 0)
(-0.000975295 5.97242e-05 0)
(-0.000988804 5.49471e-05 0)
(-0.00100118 5.01529e-05 0)
(-0.00101241 4.53489e-05 0)
(-0.00102251 4.05408e-05 0)
(-0.00103146 3.57348e-05 0)
(-0.00103928 3.09389e-05 0)
(-0.00104596 2.61591e-05 0)
(-0.00105151 2.14008e-05 0)
(-0.00105594 1.667e-05 0)
(-0.00105925 1.1972e-05 0)
(-0.00106146 7.31265e-06 0)
(-0.00106257 2.69692e-06 0)
(-0.00106259 -1.87088e-06 0)
(-0.00106154 -6.38635e-06 0)
(-0.00105943 -1.08434e-05 0)
(-0.00105628 -1.52381e-05 0)
(-0.00105209 -1.95671e-05 0)
(-0.00104689 -2.38268e-05 0)
(-0.00104069 -2.80145e-05 0)
(-0.00103351 -3.21275e-05 0)
(-0.00102537 -3.61633e-05 0)
(-0.00101629 -4.01207e-05 0)
(-0.00100628 -4.39974e-05 0)
(-0.000995363 -4.77908e-05 0)
(-0.000983568 -5.14982e-05 0)
(-0.000970911 -5.51175e-05 0)
(-0.000957414 -5.86474e-05 0)
(-0.000943097 -6.20871e-05 0)
(-0.000927983 -6.54352e-05 0)
(-0.000912092 -6.86896e-05 0)
(-0.000895448 -7.18504e-05 0)
(-0.000878071 -7.49165e-05 0)
(-0.000859982 -7.78889e-05 0)
(-0.000841202 -8.07659e-05 0)
(-0.000821756 -8.35477e-05 0)
(-0.000801669 -8.62352e-05 0)
(-0.000780964 -8.88279e-05 0)
(-0.000759664 -9.13277e-05 0)
(-0.000737791 -9.37337e-05 0)
(-0.000715365 -9.60435e-05 0)
(-0.000692407 -9.82569e-05 0)
(-0.000668937 -0.000100375 0)
(-0.000644978 -0.0001024 0)
(-0.00062055 -0.000104335 0)
(-0.000595676 -0.000106182 0)
(-0.000570383 -0.000107941 0)
(-0.000544691 -0.00010961 0)
(-0.000518622 -0.000111189 0)
(-0.000492194 -0.000112677 0)
(-0.000465424 -0.000114076 0)
(-0.000438334 -0.000115388 0)
(-0.000410948 -0.000116614 0)
(-0.000383287 -0.000117756 0)
(-0.000355374 -0.000118814 0)
(-0.000327228 -0.000119787 0)
(-0.000298861 -0.000120677 0)
(-0.000270288 -0.000121481 0)
(-0.000241531 -0.000122193 0)
(-0.000212619 -0.000122817 0)
(-0.000183578 -0.000123361 0)
(-0.000154424 -0.000123828 0)
(-0.000125167 -0.000124214 0)
(-9.58074e-05 -0.000124508 0)
(-6.63908e-05 -0.000124555 0)
(-3.75953e-05 -0.000122258 0)
(-9.6163e-06 -9.67212e-05 0)
(9.14993e-06 -0.000127991 0)
(3.64041e-05 -0.000150661 0)
(6.71544e-05 -0.00015138 0)
(9.71587e-05 -0.000151581 0)
(0.00012684 -0.000151804 0)
(0.000156228 -0.000151832 0)
(0.000185401 -0.00015164 0)
(0.000214413 -0.000151239 0)
(0.000243284 -0.000150655 0)
(0.000272007 -0.000149911 0)
(0.000300566 -0.000149023 0)
(0.000328943 -0.000148002 0)
(0.000357117 -0.000146857 0)
(0.000385067 -0.000145593 0)