/*--------------------------------*- C++ -*----------------------------------*\
| =========                 |                                                 |
| \\      /  F ield         | OpenFOAM: The Open Source CFD Toolbox           |
|  \\    /   O peration     | Version:  2412                                  |
|   \\  /    A nd           | Website:  www.openfoam.com                      |
|    \\/     M anipulation  |                                                 |
\*---------------------------------------------------------------------------*/
FoamFile
{
    version     2.0;
    format      ascii;
    arch        "LSB;label=32;scalar=64";
    class       volScalarField;
    location    "1.21";
    object      p;
}
// * * * * * * * * * * * * * * * * * * * * * * * * * * * * * * * * * * * * * //

dimensions      [1 -1 -2 0 0 0 0];

internalField   nonuniform List<scalar> 
40000
(
0
5.92486e-05
5.38304e-05
-1.86767e-05
-0.000158697
-0.000367433
-0.000645131
-0.000990899
-0.00140371
-0.00188302
-0.00242852
-0.00303973
-0.0037159
-0.00445618
-0.00525965
-0.00612542
-0.00705256
-0.00804003
-0.00908678
-0.0101917
-0.0113535
-0.012571
-0.013843
-0.0151678
-0.0165442
-0.0179706
-0.0194454
-0.0209669
-0.0225336
-0.0241437
-0.0257954
-0.027487
-0.0292166
-0.0309822
-0.032782
-0.0346139
-0.0364759
-0.0383661
-0.0402824
-0.0422227
-0.0441848
-0.0461665
-0.0481658
-0.0501805
-0.0522082
-0.054247
-0.0562946
-0.0583487
-0.0604071
-0.0624675
-0.0645278
-0.0665857
-0.068639
-0.0706857
-0.0727235
-0.0747503
-0.076764
-0.0787624
-0.0807435
-0.0827052
-0.0846455
-0.0865625
-0.0884543
-0.0903189
-0.0921545
-0.0939594
-0.0957319
-0.0974701
-0.0991725
-0.100837
-0.102463
-0.104049
-0.105592
-0.107092
-0.108547
-0.109957
-0.111319
-0.112633
-0.113897
-0.115111
-0.116273
-0.117383
-0.11844
-0.119442
-0.12039
-0.121282
-0.122118
-0.122896
-0.123618
-0.124281
-0.124886
-0.125431
-0.125918
-0.126344
-0.126711
-0.127017
-0.127263
-0.127449
-0.127574
-0.127637
-0.127641
-0.127583
-0.127464
-0.127285
-0.127045
-0.126744
-0.126384
-0.125963
-0.125483
-0.124943
-0.124344
-0.123687
-0.122971
-0.122199
-0.121369
-0.120483
-0.119541
-0.118544
-0.117493
-0.116389
-0.115232
-0.114024
-0.112765
-0.111456
-0.1101
-0.108696
-0.107246
-0.105751
-0.104213
-0.102633
-0.101012
-0.0993518
-0.0976544
-0.095921
-0.0941533
-0.0923532
-0.0905221
-0.088662
-0.0867747
-0.084862
-0.0829259
-0.0809684
-0.0789914
-0.0769971
-0.0749875
-0.0729646
-0.0709307
-0.0688877
-0.066838
-0.0647836
-0.0627268
-0.0606698
-0.0586149
-0.0565641
-0.0545197
-0.052484
-0.050459
-0.0484472
-0.0464506
-0.0444715
-0.0425121
-0.0405744
-0.0386606
-0.0367727
-0.0349128
-0.033083
-0.0312853
-0.0295216
-0.027794
-0.0261043
-0.0244544
-0.022846
-0.0212809
-0.0197608
-0.0182873
-0.0168624
-0.0154874
-0.0141637
-0.012893
-0.0116764
-0.0105153
-0.0094112
-0.00836513
-0.00737833
-0.00645166
-0.00558639
-0.00478326
-0.00404345
-0.00336753
-0.00275641
-0.00221062
-0.00173082
-0.00131773
-0.00097151
-0.00069269
-0.000481406
-0.000338188
-0.000263316
-0.00025717
-0.000318746
-3.92406
-3.924
-3.924
-3.92407
-3.92421
-3.92442
-3.9247
-3.92505
-3.92546
-3.92594
-3.92648
-3.92709
-3.92777
-3.92851
-3.92931
-3.93018
-3.93111
-3.93209
-3.93314
-3.93424
-3.9354
-3.93662
-3.93789
-3.93922
-3.94059
-3.94202
-3.94349
-3.94501
-3.94658
-3.94819
-3.94984
-3.95153
-3.95326
-3.95502
-3.95682
-3.95865
-3.96051
-3.9624
-3.96432
-3.96626
-3.96822
-3.9702
-3.9722
-3.97421
-3.97623
-3.97827
-3.98032
-3.98237
-3.98443
-3.98649
-3.98854
-3.9906
-3.99265
-3.9947
-3.99673
-3.99876
-4.00077
-4.00276
-4.00474
-4.0067
-4.00864
-4.01055
-4.01244
-4.0143
-4.01614
-4.01794
-4.01971
-4.02145
-4.02314
-4.02481
-4.02643
-4.02801
-4.02955
-4.03105
-4.0325
-4.03391
-4.03527
-4.03658
-4.03784
-4.03905
-4.04021
-4.04132
-4.04238
-4.04338
-4.04432
-4.04521
-4.04605
-4.04682
-4.04754
-4.04821
-4.04881
-4.04935
-4.04984
-4.05026
-4.05063
-4.05094
-4.05118
-4.05137
-4.05149
-4.05155
-4.05156
-4.0515
-4.05138
-4.0512
-4.05096
-4.05066
-4.0503
-4.04988
-4.0494
-4.04887
-4.04827
-4.04761
-4.0469
-4.04613
-4.0453
-4.04442
-4.04348
-4.04248
-4.04143
-4.04033
-4.03918
-4.03797
-4.03671
-4.03541
-4.03405
-4.03265
-4.0312
-4.02971
-4.02818
-4.0266
-4.02498
-4.02332
-4.02163
-4.0199
-4.01813
-4.01634
-4.01451
-4.01265
-4.01077
-4.00886
-4.00692
-4.00497
-4.00299
-4.001
-3.99899
-3.99697
-3.99494
-3.9929
-3.99085
-3.9888
-3.98674
-3.98469
-3.98264
-3.98059
-3.97854
-3.97651
-3.97449
-3.97248
-3.97048
-3.9685
-3.96655
-3.96461
-3.9627
-3.96081
-3.95895
-3.95712
-3.95533
-3.95356
-3.95184
-3.95015
-3.9485
-3.94689
-3.94533
-3.94381
-3.94234
-3.94091
-3.93954
-3.93821
-3.93694
-3.93573
-3.93457
-3.93346
-3.93242
-3.93143
-3.9305
-3.92964
-3.92884
-3.9281
-3.92742
-3.92681
-3.92627
-3.92579
-3.92537
-3.92503
-3.92475
-3.92454
-3.92439
-3.92432
-3.92432
-3.92438
-7.84806
-7.848
-7.848
-7.84807
-7.84821
-7.84842
-7.8487
-7.84905
-7.84946
-7.84994
-7.85049
-7.8511
-7.85177
-7.85251
-7.85332
-7.85418
-7.85511
-7.8561
-7.85714
-7.85825
-7.85941
-7.86063
-7.8619
-7.86323
-7.8646
-7.86603
-7.8675
-7.86902
-7.87059
-7.8722
-7.87385
-7.87554
-7.87727
-7.87904
-7.88084
-7.88267
-7.88453
-7.88642
-7.88833
-7.89027
-7.89224
-7.89422
-7.89621
-7.89823
-7.90025
-7.90229
-7.90434
-7.90639
-7.90845
-7.9105
-7.91256
-7.91462
-7.91667
-7.91871
-7.92075
-7.92277
-7.92479
-7.92678
-7.92876
-7.93072
-7.93266
-7.93457
-7.93646
-7.93832
-7.94015
-7.94195
-7.94372
-7.94546
-7.94715
-7.94882
-7.95044
-7.95202
-7.95356
-7.95506
-7.95651
-7.95791
-7.95927
-7.96058
-7.96184
-7.96305
-7.96421
-7.96532
-7.96637
-7.96737
-7.96831
-7.9692
-7.97004
-7.97081
-7.97153
-7.97219
-7.97279
-7.97334
-7.97382
-7.97425
-7.97461
-7.97492
-7.97516
-7.97535
-7.97547
-7.97554
-7.97554
-7.97548
-7.97536
-7.97518
-7.97495
-7.97465
-7.97429
-7.97387
-7.97339
-7.97285
-7.97226
-7.9716
-7.97089
-7.97012
-7.96929
-7.96841
-7.96747
-7.96647
-7.96543
-7.96433
-7.96317
-7.96197
-7.96071
-7.95941
-7.95806
-7.95666
-7.95521
-7.95372
-7.95218
-7.95061
-7.94899
-7.94733
-7.94564
-7.94391
-7.94215
-7.94035
-7.93852
-7.93667
-7.93478
-7.93287
-7.93094
-7.92898
-7.92701
-7.92502
-7.92301
-7.92099
-7.91896
-7.91692
-7.91487
-7.91282
-7.91076
-7.90871
-7.90666
-7.90461
-7.90256
-7.90053
-7.89851
-7.8965
-7.8945
-7.89252
-7.89056
-7.88863
-7.88671
-7.88483
-7.88297
-7.88114
-7.87934
-7.87758
-7.87585
-7.87416
-7.87251
-7.8709
-7.86934
-7.86782
-7.86634
-7.86492
-7.86354
-7.86222
-7.86095
-7.85973
-7.85857
-7.85747
-7.85642
-7.85544
-7.85451
-7.85364
-7.85284
-7.8521
-7.85142
-7.85081
-7.85027
-7.84979
-7.84937
-7.84903
-7.84875
-7.84854
-7.84839
-7.84832
-7.84832
-7.84838
-11.772
-11.7719
-11.7719
-11.772
-11.7722
-11.7724
-11.7726
-11.773
-11.7734
-11.7739
-11.7744
-11.775
-11.7757
-11.7765
-11.7773
-11.7781
-11.7791
-11.78
-11.7811
-11.7822
-11.7834
-11.7846
-11.7859
-11.7872
-11.7886
-11.79
-11.7915
-11.793
-11.7946
-11.7962
-11.7978
-11.7995
-11.8013
-11.803
-11.8048
-11.8067
-11.8085
-11.8104
-11.8123
-11.8143
-11.8162
-11.8182
-11.8202
-11.8222
-11.8243
-11.8263
-11.8284
-11.8304
-11.8325
-11.8345
-11.8366
-11.8386
-11.8407
-11.8427
-11.8448
-11.8468
-11.8488
-11.8508
-11.8528
-11.8548
-11.8567
-11.8586
-11.8605
-11.8624
-11.8642
-11.866
-11.8678
-11.8695
-11.8712
-11.8729
-11.8745
-11.8761
-11.8776
-11.8791
-11.8806
-11.882
-11.8833
-11.8846
-11.8859
-11.8871
-11.8883
-11.8894
-11.8904
-11.8914
-11.8924
-11.8933
-11.8941
-11.8949
-11.8956
-11.8963
-11.8969
-11.8974
-11.8979
-11.8983
-11.8987
-11.899
-11.8992
-11.8994
-11.8995
-11.8996
-11.8996
-11.8995
-11.8994
-11.8992
-11.899
-11.8987
-11.8983
-11.8979
-11.8975
-11.8969
-11.8963
-11.8957
-11.8949
-11.8942
-11.8934
-11.8925
-11.8915
-11.8905
-11.8895
-11.8884
-11.8872
-11.886
-11.8848
-11.8835
-11.8821
-11.8807
-11.8793
-11.8778
-11.8762
-11.8747
-11.873
-11.8714
-11.8697
-11.868
-11.8662
-11.8644
-11.8626
-11.8607
-11.8588
-11.8569
-11.855
-11.853
-11.851
-11.8491
-11.847
-11.845
-11.843
-11.8409
-11.8389
-11.8368
-11.8348
-11.8327
-11.8307
-11.8286
-11.8266
-11.8245
-11.8225
-11.8205
-11.8185
-11.8165
-11.8146
-11.8126
-11.8107
-11.8088
-11.807
-11.8051
-11.8033
-11.8016
-11.7998
-11.7981
-11.7965
-11.7949
-11.7933
-11.7918
-11.7903
-11.7889
-11.7875
-11.7862
-11.7849
-11.7837
-11.7825
-11.7814
-11.7804
-11.7794
-11.7785
-11.7776
-11.7768
-11.776
-11.7754
-11.7748
-11.7742
-11.7737
-11.7733
-11.773
-11.7727
-11.7725
-11.7723
-11.7723
-11.7723
-11.7723
-15.6959
-15.6958
-15.6958
-15.6959
-15.696
-15.6962
-15.6965
-15.6969
-15.6973
-15.6978
-15.6983
-15.6989
-15.6996
-15.7003
-15.7012
-15.702
-15.703
-15.7039
-15.705
-15.7061
-15.7073
-15.7085
-15.7098
-15.7111
-15.7125
-15.7139
-15.7154
-15.7169
-15.7185
-15.7201
-15.7218
-15.7235
-15.7252
-15.727
-15.7288
-15.7306
-15.7325
-15.7344
-15.7363
-15.7382
-15.7402
-15.7422
-15.7442
-15.7462
-15.7483
-15.7503
-15.7524
-15.7544
-15.7565
-15.7585
-15.7606
-15.7627
-15.7647
-15.7668
-15.7688
-15.7709
-15.7729
-15.7749
-15.7769
-15.7788
-15.7808
-15.7827
-15.7846
-15.7864
-15.7883
-15.7901
-15.7919
-15.7936
-15.7953
-15.797
-15.7986
-15.8002
-15.8017
-15.8032
-15.8047
-15.8061
-15.8074
-15.8088
-15.81
-15.8112
-15.8124
-15.8135
-15.8146
-15.8156
-15.8165
-15.8174
-15.8182
-15.819
-15.8197
-15.8204
-15.821
-15.8215
-15.822
-15.8224
-15.8228
-15.8231
-15.8234
-15.8235
-15.8237
-15.8237
-15.8237
-15.8237
-15.8236
-15.8234
-15.8231
-15.8228
-15.8225
-15.8221
-15.8216
-15.821
-15.8204
-15.8198
-15.8191
-15.8183
-15.8175
-15.8166
-15.8157
-15.8147
-15.8136
-15.8125
-15.8114
-15.8101
-15.8089
-15.8076
-15.8062
-15.8048
-15.8034
-15.8019
-15.8003
-15.7988
-15.7971
-15.7955
-15.7938
-15.792
-15.7903
-15.7885
-15.7866
-15.7848
-15.7829
-15.781
-15.779
-15.7771
-15.7751
-15.7731
-15.7711
-15.7691
-15.767
-15.765
-15.7629
-15.7609
-15.7588
-15.7567
-15.7547
-15.7526
-15.7506
-15.7485
-15.7465
-15.7445
-15.7425
-15.7405
-15.7385
-15.7366
-15.7347
-15.7328
-15.7309
-15.7291
-15.7273
-15.7255
-15.7238
-15.7221
-15.7204
-15.7188
-15.7172
-15.7157
-15.7142
-15.7128
-15.7114
-15.7101
-15.7088
-15.7076
-15.7064
-15.7053
-15.7043
-15.7033
-15.7023
-15.7015
-15.7007
-15.6999
-15.6993
-15.6986
-15.6981
-15.6976
-15.6972
-15.6968
-15.6966
-15.6964
-15.6962
-15.6961
-15.6961
-15.6962
-19.6197
-19.6196
-19.6196
-19.6197
-19.6198
-19.6201
-19.6203
-19.6207
-19.6211
-19.6216
-19.6221
-19.6227
-19.6234
-19.6242
-19.625
-19.6259
-19.6268
-19.6278
-19.6288
-19.63
-19.6311
-19.6323
-19.6336
-19.635
-19.6364
-19.6378
-19.6393
-19.6408
-19.6424
-19.644
-19.6457
-19.6474
-19.6491
-19.6509
-19.6527
-19.6545
-19.6564
-19.6583
-19.6602
-19.6622
-19.6642
-19.6662
-19.6682
-19.6702
-19.6722
-19.6743
-19.6764
-19.6784
-19.6805
-19.6826
-19.6846
-19.6867
-19.6888
-19.6908
-19.6929
-19.6949
-19.6969
-19.6989
-19.7009
-19.7029
-19.7049
-19.7068
-19.7087
-19.7106
-19.7124
-19.7142
-19.716
-19.7177
-19.7194
-19.7211
-19.7227
-19.7243
-19.7259
-19.7274
-19.7288
-19.7302
-19.7316
-19.7329
-19.7342
-19.7354
-19.7366
-19.7377
-19.7387
-19.7397
-19.7407
-19.7416
-19.7424
-19.7432
-19.7439
-19.7446
-19.7452
-19.7457
-19.7462
-19.7466
-19.747
-19.7473
-19.7476
-19.7478
-19.7479
-19.7479
-19.7479
-19.7479
-19.7478
-19.7476
-19.7473
-19.747
-19.7467
-19.7463
-19.7458
-19.7452
-19.7446
-19.744
-19.7433
-19.7425
-19.7417
-19.7408
-19.7398
-19.7388
-19.7378
-19.7367
-19.7355
-19.7343
-19.7331
-19.7317
-19.7304
-19.729
-19.7275
-19.726
-19.7245
-19.7229
-19.7213
-19.7196
-19.7179
-19.7162
-19.7144
-19.7126
-19.7108
-19.7089
-19.707
-19.7051
-19.7031
-19.7012
-19.6992
-19.6972
-19.6952
-19.6931
-19.6911
-19.689
-19.687
-19.6849
-19.6828
-19.6808
-19.6787
-19.6766
-19.6746
-19.6725
-19.6705
-19.6685
-19.6665
-19.6645
-19.6625
-19.6605
-19.6586
-19.6567
-19.6548
-19.653
-19.6512
-19.6494
-19.6477
-19.646
-19.6443
-19.6427
-19.6411
-19.6396
-19.6381
-19.6367
-19.6353
-19.634
-19.6327
-19.6314
-19.6303
-19.6292
-19.6281
-19.6271
-19.6262
-19.6253
-19.6245
-19.6238
-19.6231
-19.6225
-19.6219
-19.6214
-19.621
-19.6207
-19.6204
-19.6202
-19.62
-19.62
-19.6199
-19.62
-23.5434
-23.5434
-23.5434
-23.5435
-23.5436
-23.5438
-23.5441
-23.5444
-23.5449
-23.5453
-23.5459
-23.5465
-23.5472
-23.548
-23.5488
-23.5496
-23.5506
-23.5516
-23.5526
-23.5538
-23.5549
-23.5562
-23.5574
-23.5588
-23.5602
-23.5616
-23.5631
-23.5647
-23.5662
-23.5679
-23.5695
-23.5712
-23.573
-23.5748
-23.5766
-23.5784
-23.5803
-23.5822
-23.5842
-23.5861
-23.5881
-23.5901
-23.5921
-23.5942
-23.5962
-23.5983
-23.6004
-23.6024
-23.6045
-23.6066
-23.6087
-23.6107
-23.6128
-23.6149
-23.6169
-23.619
-23.621
-23.623
-23.625
-23.627
-23.629
-23.6309
-23.6328
-23.6347
-23.6365
-23.6384
-23.6401
-23.6419
-23.6436
-23.6453
-23.6469
-23.6485
-23.6501
-23.6516
-23.653
-23.6545
-23.6558
-23.6572
-23.6584
-23.6596
-23.6608
-23.6619
-23.663
-23.664
-23.6649
-23.6658
-23.6667
-23.6675
-23.6682
-23.6689
-23.6695
-23.67
-23.6705
-23.6709
-23.6713
-23.6716
-23.6718
-23.672
-23.6722
-23.6722
-23.6722
-23.6722
-23.6721
-23.6719
-23.6716
-23.6713
-23.671
-23.6705
-23.6701
-23.6695
-23.6689
-23.6683
-23.6675
-23.6668
-23.6659
-23.665
-23.6641
-23.6631
-23.662
-23.6609
-23.6598
-23.6586
-23.6573
-23.656
-23.6546
-23.6532
-23.6517
-23.6502
-23.6487
-23.6471
-23.6455
-23.6438
-23.6421
-23.6403
-23.6386
-23.6367
-23.6349
-23.633
-23.6311
-23.6292
-23.6272
-23.6253
-23.6233
-23.6213
-23.6192
-23.6172
-23.6151
-23.6131
-23.611
-23.6089
-23.6069
-23.6048
-23.6027
-23.6006
-23.5986
-23.5965
-23.5945
-23.5924
-23.5904
-23.5884
-23.5864
-23.5845
-23.5825
-23.5806
-23.5787
-23.5769
-23.5751
-23.5733
-23.5716
-23.5698
-23.5682
-23.5665
-23.565
-23.5634
-23.5619
-23.5605
-23.5591
-23.5578
-23.5565
-23.5553
-23.5541
-23.553
-23.5519
-23.5509
-23.55
-23.5491
-23.5483
-23.5475
-23.5468
-23.5462
-23.5457
-23.5452
-23.5448
-23.5444
-23.5441
-23.5439
-23.5438
-23.5437
-23.5437
-23.5438
-27.4671
-27.4671
-27.4671
-27.4672
-27.4673
-27.4675
-27.4678
-27.4681
-27.4686
-27.4691
-27.4696
-27.4702
-27.4709
-27.4717
-27.4725
-27.4734
-27.4743
-27.4753
-27.4764
-27.4775
-27.4787
-27.4799
-27.4812
-27.4826
-27.484
-27.4854
-27.4869
-27.4885
-27.49
-27.4917
-27.4934
-27.4951
-27.4968
-27.4986
-27.5005
-27.5023
-27.5042
-27.5061
-27.5081
-27.5101
-27.512
-27.5141
-27.5161
-27.5181
-27.5202
-27.5223
-27.5243
-27.5264
-27.5285
-27.5306
-27.5327
-27.5348
-27.5369
-27.539
-27.541
-27.5431
-27.5451
-27.5471
-27.5492
-27.5511
-27.5531
-27.5551
-27.557
-27.5589
-27.5607
-27.5625
-27.5643
-27.5661
-27.5678
-27.5695
-27.5712
-27.5728
-27.5743
-27.5758
-27.5773
-27.5787
-27.5801
-27.5814
-27.5827
-27.5839
-27.5851
-27.5862
-27.5873
-27.5883
-27.5893
-27.5902
-27.591
-27.5918
-27.5925
-27.5932
-27.5938
-27.5944
-27.5948
-27.5953
-27.5956
-27.596
-27.5962
-27.5964
-27.5965
-27.5966
-27.5966
-27.5965
-27.5964
-27.5962
-27.596
-27.5957
-27.5953
-27.5949
-27.5944
-27.5939
-27.5933
-27.5926
-27.5919
-27.5911
-27.5903
-27.5894
-27.5884
-27.5874
-27.5863
-27.5852
-27.5841
-27.5828
-27.5816
-27.5802
-27.5789
-27.5775
-27.576
-27.5745
-27.5729
-27.5713
-27.5697
-27.568
-27.5663
-27.5645
-27.5627
-27.5609
-27.5591
-27.5572
-27.5553
-27.5533
-27.5514
-27.5494
-27.5474
-27.5454
-27.5433
-27.5413
-27.5392
-27.5371
-27.535
-27.533
-27.5309
-27.5288
-27.5267
-27.5246
-27.5225
-27.5205
-27.5184
-27.5164
-27.5143
-27.5123
-27.5103
-27.5084
-27.5064
-27.5045
-27.5026
-27.5008
-27.4989
-27.4971
-27.4954
-27.4937
-27.492
-27.4904
-27.4888
-27.4872
-27.4857
-27.4843
-27.4829
-27.4815
-27.4802
-27.479
-27.4778
-27.4767
-27.4756
-27.4746
-27.4737
-27.4728
-27.472
-27.4713
-27.4706
-27.4699
-27.4694
-27.4689
-27.4685
-27.4681
-27.4678
-27.4676
-27.4675
-27.4674
-27.4674
-27.4675
-31.3908
-31.3907
-31.3907
-31.3908
-31.3909
-31.3912
-31.3914
-31.3918
-31.3922
-31.3927
-31.3933
-31.3939
-31.3946
-31.3953
-31.3962
-31.397
-31.398
-31.399
-31.4001
-31.4012
-31.4024
-31.4036
-31.4049
-31.4063
-31.4077
-31.4092
-31.4107
-31.4122
-31.4138
-31.4155
-31.4172
-31.4189
-31.4207
-31.4225
-31.4243
-31.4262
-31.4281
-31.43
-31.432
-31.434
-31.436
-31.438
-31.44
-31.4421
-31.4442
-31.4462
-31.4483
-31.4504
-31.4525
-31.4546
-31.4567
-31.4588
-31.4609
-31.463
-31.4651
-31.4672
-31.4692
-31.4713
-31.4733
-31.4753
-31.4773
-31.4792
-31.4812
-31.4831
-31.4849
-31.4868
-31.4886
-31.4903
-31.4921
-31.4938
-31.4954
-31.497
-31.4986
-31.5001
-31.5016
-31.5031
-31.5044
-31.5058
-31.5071
-31.5083
-31.5095
-31.5106
-31.5117
-31.5127
-31.5137
-31.5146
-31.5154
-31.5162
-31.5169
-31.5176
-31.5182
-31.5188
-31.5193
-31.5197
-31.5201
-31.5204
-31.5206
-31.5208
-31.521
-31.521
-31.521
-31.521
-31.5208
-31.5207
-31.5204
-31.5201
-31.5197
-31.5193
-31.5188
-31.5183
-31.5177
-31.517
-31.5163
-31.5155
-31.5147
-31.5138
-31.5128
-31.5118
-31.5107
-31.5096
-31.5084
-31.5072
-31.5059
-31.5046
-31.5032
-31.5018
-31.5003
-31.4988
-31.4972
-31.4956
-31.494
-31.4923
-31.4905
-31.4888
-31.487
-31.4851
-31.4833
-31.4814
-31.4794
-31.4775
-31.4755
-31.4735
-31.4715
-31.4695
-31.4674
-31.4654
-31.4633
-31.4612
-31.4591
-31.457
-31.4549
-31.4528
-31.4507
-31.4486
-31.4465
-31.4444
-31.4424
-31.4403
-31.4383
-31.4362
-31.4342
-31.4323
-31.4303
-31.4284
-31.4265
-31.4246
-31.4228
-31.421
-31.4192
-31.4175
-31.4158
-31.4141
-31.4125
-31.411
-31.4095
-31.408
-31.4066
-31.4053
-31.404
-31.4027
-31.4015
-31.4004
-31.3993
-31.3983
-31.3974
-31.3965
-31.3957
-31.3949
-31.3942
-31.3936
-31.393
-31.3925
-31.3921
-31.3918
-31.3915
-31.3913
-31.3911
-31.391
-31.391
-31.3911
-35.3143
-35.3143
-35.3143
-35.3144
-35.3145
-35.3147
-35.315
-35.3154
-35.3158
-35.3163
-35.3169
-35.3175
-35.3182
-35.3189
-35.3198
-35.3207
-35.3216
-35.3226
-35.3237
-35.3249
-35.326
-35.3273
-35.3286
-35.33
-35.3314
-35.3329
-35.3344
-35.3359
-35.3376
-35.3392
-35.3409
-35.3427
-35.3444
-35.3463
-35.3481
-35.35
-35.3519
-35.3539
-35.3558
-35.3578
-35.3598
-35.3619
-35.3639
-35.366
-35.3681
-35.3702
-35.3723
-35.3744
-35.3765
-35.3787
-35.3808
-35.3829
-35.385
-35.3871
-35.3892
-35.3913
-35.3934
-35.3954
-35.3975
-35.3995
-35.4015
-35.4034
-35.4054
-35.4073
-35.4092
-35.411
-35.4129
-35.4146
-35.4164
-35.4181
-35.4198
-35.4214
-35.423
-35.4245
-35.426
-35.4274
-35.4288
-35.4302
-35.4315
-35.4327
-35.4339
-35.435
-35.4361
-35.4372
-35.4381
-35.439
-35.4399
-35.4407
-35.4414
-35.4421
-35.4427
-35.4433
-35.4438
-35.4442
-35.4446
-35.4449
-35.4451
-35.4453
-35.4455
-35.4455
-35.4455
-35.4455
-35.4453
-35.4452
-35.4449
-35.4446
-35.4442
-35.4438
-35.4433
-35.4428
-35.4422
-35.4415
-35.4408
-35.44
-35.4391
-35.4382
-35.4373
-35.4362
-35.4352
-35.434
-35.4328
-35.4316
-35.4303
-35.429
-35.4276
-35.4261
-35.4247
-35.4231
-35.4215
-35.4199
-35.4183
-35.4166
-35.4148
-35.413
-35.4112
-35.4094
-35.4075
-35.4056
-35.4037
-35.4017
-35.3997
-35.3977
-35.3957
-35.3936
-35.3915
-35.3895
-35.3874
-35.3853
-35.3832
-35.381
-35.3789
-35.3768
-35.3747
-35.3726
-35.3705
-35.3684
-35.3663
-35.3642
-35.3622
-35.3601
-35.3581
-35.3561
-35.3542
-35.3522
-35.3503
-35.3484
-35.3466
-35.3447
-35.343
-35.3412
-35.3395
-35.3379
-35.3363
-35.3347
-35.3332
-35.3317
-35.3303
-35.3289
-35.3276
-35.3264
-35.3252
-35.324
-35.323
-35.3219
-35.321
-35.3201
-35.3193
-35.3185
-35.3178
-35.3172
-35.3166
-35.3161
-35.3157
-35.3154
-35.3151
-35.3148
-35.3147
-35.3146
-35.3146
-35.3147
-39.2379
-39.2378
-39.2378
-39.2379
-39.238
-39.2382
-39.2385
-39.2389
-39.2393
-39.2398
-39.2404
-39.241
-39.2417
-39.2425
-39.2433
-39.2442
-39.2452
-39.2462
-39.2473
-39.2484
-39.2497
-39.2509
-39.2522
-39.2536
-39.255
-39.2565
-39.2581
-39.2596
-39.2613
-39.2629
-39.2646
-39.2664
-39.2682
-39.27
-39.2719
-39.2738
-39.2757
-39.2777
-39.2797
-39.2817
-39.2837
-39.2858
-39.2879
-39.2899
-39.292
-39.2942
-39.2963
-39.2984
-39.3006
-39.3027
-39.3048
-39.307
-39.3091
-39.3112
-39.3133
-39.3154
-39.3175
-39.3196
-39.3216
-39.3237
-39.3257
-39.3277
-39.3296
-39.3316
-39.3335
-39.3353
-39.3372
-39.339
-39.3407
-39.3424
-39.3441
-39.3458
-39.3474
-39.3489
-39.3504
-39.3519
-39.3533
-39.3546
-39.3559
-39.3572
-39.3584
-39.3595
-39.3606
-39.3617
-39.3626
-39.3636
-39.3644
-39.3652
-39.366
-39.3667
-39.3673
-39.3678
-39.3683
-39.3688
-39.3692
-39.3695
-39.3697
-39.3699
-39.37
-39.3701
-39.3701
-39.3701
-39.3699
-39.3698
-39.3695
-39.3692
-39.3688
-39.3684
-39.3679
-39.3673
-39.3667
-39.366
-39.3653
-39.3645
-39.3637
-39.3627
-39.3618
-39.3607
-39.3597
-39.3585
-39.3573
-39.3561
-39.3548
-39.3534
-39.352
-39.3506
-39.3491
-39.3475
-39.3459
-39.3443
-39.3426
-39.3409
-39.3391
-39.3374
-39.3355
-39.3337
-39.3318
-39.3298
-39.3279
-39.3259
-39.3239
-39.3219
-39.3198
-39.3178
-39.3157
-39.3136
-39.3115
-39.3093
-39.3072
-39.3051
-39.303
-39.3008
-39.2987
-39.2966
-39.2944
-39.2923
-39.2902
-39.2881
-39.2861
-39.284
-39.282
-39.28
-39.278
-39.276
-39.2741
-39.2722
-39.2703
-39.2685
-39.2667
-39.265
-39.2632
-39.2616
-39.2599
-39.2584
-39.2568
-39.2554
-39.2539
-39.2526
-39.2512
-39.25
-39.2488
-39.2476
-39.2465
-39.2455
-39.2446
-39.2437
-39.2428
-39.2421
-39.2414
-39.2407
-39.2402
-39.2397
-39.2392
-39.2389
-39.2386
-39.2384
-39.2382
-39.2381
-39.2381
-39.2382
-43.1613
-43.1613
-43.1613
-43.1613
-43.1615
-43.1617
-43.162
-43.1624
-43.1628
-43.1633
-43.1639
-43.1645
-43.1652
-43.166
-43.1668
-43.1677
-43.1687
-43.1697
-43.1708
-43.172
-43.1732
-43.1745
-43.1758
-43.1772
-43.1786
-43.1801
-43.1817
-43.1833
-43.1849
-43.1866
-43.1883
-43.1901
-43.1919
-43.1938
-43.1956
-43.1976
-43.1995
-43.2015
-43.2035
-43.2055
-43.2076
-43.2097
-43.2117
-43.2139
-43.216
-43.2181
-43.2203
-43.2224
-43.2246
-43.2267
-43.2289
-43.231
-43.2332
-43.2353
-43.2375
-43.2396
-43.2417
-43.2438
-43.2458
-43.2479
-43.2499
-43.2519
-43.2539
-43.2559
-43.2578
-43.2597
-43.2615
-43.2633
-43.2651
-43.2668
-43.2685
-43.2702
-43.2718
-43.2734
-43.2749
-43.2764
-43.2778
-43.2792
-43.2805
-43.2817
-43.2829
-43.2841
-43.2852
-43.2863
-43.2872
-43.2882
-43.289
-43.2898
-43.2906
-43.2913
-43.2919
-43.2925
-43.293
-43.2934
-43.2938
-43.2941
-43.2944
-43.2946
-43.2947
-43.2948
-43.2948
-43.2947
-43.2946
-43.2944
-43.2942
-43.2938
-43.2935
-43.293
-43.2925
-43.292
-43.2914
-43.2907
-43.2899
-43.2891
-43.2883
-43.2873
-43.2864
-43.2853
-43.2842
-43.2831
-43.2819
-43.2806
-43.2793
-43.2779
-43.2765
-43.275
-43.2735
-43.272
-43.2704
-43.2687
-43.267
-43.2653
-43.2635
-43.2617
-43.2599
-43.258
-43.2561
-43.2541
-43.2521
-43.2501
-43.2481
-43.2461
-43.244
-43.2419
-43.2398
-43.2377
-43.2356
-43.2334
-43.2313
-43.2291
-43.227
-43.2248
-43.2227
-43.2205
-43.2184
-43.2163
-43.2141
-43.212
-43.2099
-43.2079
-43.2058
-43.2038
-43.2018
-43.1998
-43.1979
-43.1959
-43.1941
-43.1922
-43.1904
-43.1886
-43.1869
-43.1852
-43.1836
-43.182
-43.1805
-43.179
-43.1775
-43.1761
-43.1748
-43.1735
-43.1723
-43.1712
-43.1701
-43.169
-43.1681
-43.1672
-43.1663
-43.1655
-43.1648
-43.1642
-43.1636
-43.1631
-43.1627
-43.1623
-43.162
-43.1618
-43.1617
-43.1616
-43.1616
-43.1616
-47.0847
-47.0846
-47.0846
-47.0847
-47.0849
-47.0851
-47.0854
-47.0858
-47.0862
-47.0867
-47.0873
-47.0879
-47.0886
-47.0894
-47.0903
-47.0912
-47.0922
-47.0932
-47.0943
-47.0955
-47.0967
-47.098
-47.0993
-47.1007
-47.1022
-47.1037
-47.1053
-47.1069
-47.1085
-47.1102
-47.112
-47.1138
-47.1156
-47.1175
-47.1194
-47.1213
-47.1233
-47.1253
-47.1273
-47.1293
-47.1314
-47.1335
-47.1356
-47.1378
-47.1399
-47.1421
-47.1442
-47.1464
-47.1486
-47.1507
-47.1529
-47.1551
-47.1573
-47.1594
-47.1616
-47.1637
-47.1659
-47.168
-47.1701
-47.1721
-47.1742
-47.1762
-47.1782
-47.1802
-47.1821
-47.184
-47.1859
-47.1877
-47.1895
-47.1913
-47.193
-47.1947
-47.1963
-47.1979
-47.1994
-47.2009
-47.2023
-47.2037
-47.2051
-47.2063
-47.2076
-47.2087
-47.2098
-47.2109
-47.2119
-47.2128
-47.2137
-47.2145
-47.2153
-47.216
-47.2166
-47.2172
-47.2177
-47.2182
-47.2185
-47.2189
-47.2191
-47.2193
-47.2195
-47.2195
-47.2195
-47.2195
-47.2193
-47.2192
-47.2189
-47.2186
-47.2182
-47.2178
-47.2173
-47.2167
-47.2161
-47.2154
-47.2146
-47.2138
-47.2129
-47.212
-47.211
-47.21
-47.2088
-47.2077
-47.2065
-47.2052
-47.2039
-47.2025
-47.2011
-47.1996
-47.198
-47.1965
-47.1948
-47.1932
-47.1915
-47.1897
-47.1879
-47.1861
-47.1842
-47.1823
-47.1804
-47.1784
-47.1764
-47.1744
-47.1724
-47.1703
-47.1682
-47.1661
-47.164
-47.1618
-47.1597
-47.1575
-47.1554
-47.1532
-47.151
-47.1488
-47.1467
-47.1445
-47.1423
-47.1402
-47.138
-47.1359
-47.1338
-47.1317
-47.1296
-47.1276
-47.1256
-47.1236
-47.1216
-47.1197
-47.1178
-47.1159
-47.1141
-47.1123
-47.1105
-47.1088
-47.1072
-47.1056
-47.104
-47.1025
-47.1011
-47.0997
-47.0983
-47.097
-47.0958
-47.0946
-47.0935
-47.0925
-47.0915
-47.0906
-47.0898
-47.089
-47.0883
-47.0876
-47.087
-47.0865
-47.0861
-47.0857
-47.0854
-47.0852
-47.0851
-47.085
-47.085
-47.085
-51.008
-51.008
-51.008
-51.0081
-51.0082
-51.0084
-51.0087
-51.0091
-51.0095
-51.0101
-51.0106
-51.0113
-51.012
-51.0128
-51.0137
-51.0146
-51.0156
-51.0166
-51.0177
-51.0189
-51.0202
-51.0215
-51.0228
-51.0242
-51.0257
-51.0272
-51.0288
-51.0304
-51.0321
-51.0338
-51.0356
-51.0374
-51.0392
-51.0411
-51.0431
-51.045
-51.047
-51.049
-51.0511
-51.0531
-51.0552
-51.0574
-51.0595
-51.0616
-51.0638
-51.066
-51.0682
-51.0704
-51.0726
-51.0748
-51.077
-51.0792
-51.0814
-51.0836
-51.0857
-51.0879
-51.0901
-51.0922
-51.0943
-51.0964
-51.0985
-51.1005
-51.1026
-51.1046
-51.1065
-51.1084
-51.1103
-51.1122
-51.114
-51.1158
-51.1175
-51.1192
-51.1209
-51.1225
-51.124
-51.1255
-51.127
-51.1284
-51.1297
-51.131
-51.1322
-51.1334
-51.1346
-51.1356
-51.1366
-51.1376
-51.1385
-51.1393
-51.1401
-51.1408
-51.1414
-51.142
-51.1425
-51.143
-51.1434
-51.1437
-51.1439
-51.1441
-51.1443
-51.1443
-51.1443
-51.1443
-51.1442
-51.144
-51.1437
-51.1434
-51.143
-51.1426
-51.1421
-51.1415
-51.1408
-51.1401
-51.1394
-51.1386
-51.1377
-51.1367
-51.1357
-51.1347
-51.1335
-51.1324
-51.1311
-51.1298
-51.1285
-51.1271
-51.1257
-51.1242
-51.1226
-51.121
-51.1194
-51.1177
-51.116
-51.1142
-51.1124
-51.1105
-51.1086
-51.1067
-51.1048
-51.1028
-51.1008
-51.0987
-51.0966
-51.0946
-51.0924
-51.0903
-51.0882
-51.086
-51.0838
-51.0816
-51.0794
-51.0772
-51.075
-51.0728
-51.0707
-51.0685
-51.0663
-51.0641
-51.0619
-51.0598
-51.0576
-51.0555
-51.0534
-51.0514
-51.0493
-51.0473
-51.0453
-51.0434
-51.0414
-51.0396
-51.0377
-51.0359
-51.0341
-51.0324
-51.0308
-51.0291
-51.0276
-51.026
-51.0246
-51.0232
-51.0218
-51.0205
-51.0193
-51.0181
-51.017
-51.0159
-51.0149
-51.014
-51.0131
-51.0123
-51.0116
-51.011
-51.0104
-51.0099
-51.0094
-51.0091
-51.0088
-51.0085
-51.0084
-51.0083
-51.0083
-51.0084
-54.9313
-54.9312
-54.9312
-54.9313
-54.9315
-54.9317
-54.932
-54.9324
-54.9328
-54.9333
-54.9339
-54.9346
-54.9353
-54.9361
-54.937
-54.9379
-54.9389
-54.94
-54.9411
-54.9423
-54.9436
-54.9449
-54.9463
-54.9477
-54.9492
-54.9507
-54.9523
-54.9539
-54.9556
-54.9574
-54.9592
-54.961
-54.9629
-54.9648
-54.9667
-54.9687
-54.9707
-54.9727
-54.9748
-54.9769
-54.979
-54.9812
-54.9833
-54.9855
-54.9877
-54.9899
-54.9921
-54.9944
-54.9966
-54.9988
-55.001
-55.0033
-55.0055
-55.0077
-55.0099
-55.0121
-55.0143
-55.0164
-55.0186
-55.0207
-55.0228
-55.0249
-55.0269
-55.029
-55.0309
-55.0329
-55.0348
-55.0367
-55.0385
-55.0403
-55.0421
-55.0438
-55.0455
-55.0471
-55.0487
-55.0502
-55.0516
-55.0531
-55.0544
-55.0557
-55.057
-55.0582
-55.0593
-55.0604
-55.0614
-55.0624
-55.0633
-55.0641
-55.0649
-55.0656
-55.0663
-55.0669
-55.0674
-55.0679
-55.0683
-55.0686
-55.0688
-55.069
-55.0692
-55.0692
-55.0693
-55.0692
-55.0691
-55.0689
-55.0686
-55.0683
-55.0679
-55.0674
-55.0669
-55.0663
-55.0657
-55.065
-55.0642
-55.0634
-55.0625
-55.0615
-55.0605
-55.0594
-55.0583
-55.0571
-55.0559
-55.0546
-55.0532
-55.0518
-55.0503
-55.0488
-55.0472
-55.0456
-55.044
-55.0423
-55.0405
-55.0387
-55.0369
-55.035
-55.0331
-55.0311
-55.0292
-55.0271
-55.0251
-55.023
-55.0209
-55.0188
-55.0167
-55.0145
-55.0124
-55.0102
-55.008
-55.0058
-55.0035
-55.0013
-54.9991
-54.9969
-54.9946
-54.9924
-54.9902
-54.988
-54.9858
-54.9836
-54.9815
-54.9793
-54.9772
-54.9751
-54.9731
-54.971
-54.969
-54.967
-54.9651
-54.9632
-54.9613
-54.9595
-54.9577
-54.956
-54.9543
-54.9526
-54.951
-54.9495
-54.948
-54.9466
-54.9452
-54.9439
-54.9426
-54.9415
-54.9403
-54.9393
-54.9383
-54.9373
-54.9365
-54.9357
-54.9349
-54.9343
-54.9337
-54.9332
-54.9327
-54.9323
-54.932
-54.9318
-54.9317
-54.9316
-54.9316
-54.9316
-58.8545
-58.8544
-58.8544
-58.8545
-58.8547
-58.8549
-58.8552
-58.8556
-58.856
-58.8566
-58.8572
-58.8578
-58.8586
-58.8594
-58.8603
-58.8612
-58.8622
-58.8633
-58.8644
-58.8656
-58.8669
-58.8682
-58.8696
-58.8711
-58.8726
-58.8741
-58.8758
-58.8774
-58.8791
-58.8809
-58.8827
-58.8846
-58.8864
-58.8884
-58.8903
-58.8923
-58.8944
-58.8965
-58.8986
-58.9007
-58.9028
-58.905
-58.9072
-58.9094
-58.9116
-58.9138
-58.9161
-58.9183
-58.9206
-58.9229
-58.9251
-58.9274
-58.9296
-58.9319
-58.9341
-58.9363
-58.9385
-58.9407
-58.9429
-58.945
-58.9472
-58.9493
-58.9513
-58.9534
-58.9554
-58.9574
-58.9593
-58.9612
-58.9631
-58.9649
-58.9667
-58.9684
-58.9701
-58.9718
-58.9734
-58.9749
-58.9764
-58.9778
-58.9792
-58.9805
-58.9818
-58.983
-58.9842
-58.9853
-58.9863
-58.9873
-58.9882
-58.9891
-58.9898
-58.9906
-58.9912
-58.9918
-58.9924
-58.9928
-58.9932
-58.9936
-58.9938
-58.994
-58.9942
-58.9942
-58.9942
-58.9942
-58.994
-58.9938
-58.9936
-58.9933
-58.9929
-58.9924
-58.9919
-58.9913
-58.9906
-58.9899
-58.9891
-58.9883
-58.9874
-58.9864
-58.9854
-58.9843
-58.9831
-58.9819
-58.9807
-58.9793
-58.978
-58.9765
-58.9751
-58.9735
-58.9719
-58.9703
-58.9686
-58.9669
-58.9651
-58.9633
-58.9614
-58.9595
-58.9576
-58.9556
-58.9536
-58.9516
-58.9495
-58.9474
-58.9453
-58.9431
-58.941
-58.9388
-58.9366
-58.9343
-58.9321
-58.9299
-58.9276
-58.9254
-58.9231
-58.9209
-58.9186
-58.9164
-58.9141
-58.9119
-58.9097
-58.9075
-58.9053
-58.9031
-58.901
-58.8989
-58.8968
-58.8947
-58.8927
-58.8907
-58.8887
-58.8868
-58.8849
-58.883
-58.8812
-58.8795
-58.8777
-58.8761
-58.8745
-58.8729
-58.8714
-58.87
-58.8686
-58.8672
-58.866
-58.8648
-58.8636
-58.8626
-58.8615
-58.8606
-58.8597
-58.8589
-58.8582
-58.8575
-58.8569
-58.8564
-58.8559
-58.8556
-58.8553
-58.855
-58.8549
-58.8548
-58.8548
-58.8548
-62.7776
-62.7776
-62.7776
-62.7777
-62.7778
-62.7781
-62.7784
-62.7787
-62.7792
-62.7797
-62.7803
-62.781
-62.7818
-62.7826
-62.7835
-62.7844
-62.7855
-62.7866
-62.7877
-62.7889
-62.7902
-62.7916
-62.793
-62.7944
-62.796
-62.7975
-62.7992
-62.8009
-62.8026
-62.8044
-62.8062