/*--------------------------------*- C++ -*----------------------------------*\
| =========                 |                                                 |
| \\      /  F ield         | OpenFOAM: The Open Source CFD Toolbox           |
|  \\    /   O peration     | Version:  2412                                  |
|   \\  /    A nd           | Website:  www.openfoam.com                      |
|    \\/     M anipulation  |                                                 |
\*---------------------------------------------------------------------------*/
FoamFile
{
    version     2.0;
    format      ascii;
    arch        "LSB;label=32;scalar=64";
    class       volVectorField;
    location    "1.21";
    object      U;
}
// * * * * * * * * * * * * * * * * * * * * * * * * * * * * * * * * * * * * * //

dimensions      [0 1 -1 0 0 0 0];

internalField   nonuniform List<vector> 
40000
(
(5.15078e-06 -4.80474e-06 0)
(3.18096e-05 -8.40905e-06 0)
(6.69869e-05 -9.9135e-06 0)
(0.000104435 -1.05141e-05 0)
(0.000142813 -1.07237e-05 0)
(0.00018146 -1.07734e-05 0)
(0.00022009 -1.07392e-05 0)
(0.000258571 -1.06711e-05 0)
(0.000296835 -1.05895e-05 0)
(0.000334846 -1.05025e-05 0)
(0.000372576 -1.04119e-05 0)
(0.000410001 -1.03159e-05 0)
(0.000447097 -1.02136e-05 0)
(0.000483838 -1.01045e-05 0)
(0.000520198 -9.98799e-06 0)
(0.000556152 -9.86361e-06 0)
(0.00059167 -9.73108e-06 0)
(0.000626725 -9.59041e-06 0)
(0.000661288 -9.44166e-06 0)
(0.000695331 -9.28482e-06 0)
(0.000728823 -9.11982e-06 0)
(0.000761737 -8.94656e-06 0)
(0.000794044 -8.76488e-06 0)
(0.000825715 -8.57474e-06 0)
(0.000856719 -8.3762e-06 0)
(0.000887028 -8.16949e-06 0)
(0.000916611 -7.95482e-06 0)
(0.00094544 -7.73238e-06 0)
(0.000973486 -7.50217e-06 0)
(0.00100072 -7.26413e-06 0)
(0.00102712 -7.01818e-06 0)
(0.00105264 -6.76438e-06 0)
(0.00107728 -6.50292e-06 0)
(0.00110098 -6.23404e-06 0)
(0.00112374 -5.95796e-06 0)
(0.00114551 -5.6748e-06 0)
(0.00116628 -5.3846e-06 0)
(0.00118602 -5.08742e-06 0)
(0.0012047 -4.78344e-06 0)
(0.00122229 -4.47291e-06 0)
(0.00123878 -4.15607e-06 0)
(0.00125413 -3.83317e-06 0)
(0.00126832 -3.5044e-06 0)
(0.00128132 -3.16995e-06 0)
(0.00129313 -2.83007e-06 0)
(0.00130371 -2.48511e-06 0)
(0.00131304 -2.13542e-06 0)
(0.00132111 -1.78131e-06 0)
(0.00132789 -1.42305e-06 0)
(0.00133337 -1.06081e-06 0)
(0.00133753 -6.94653e-07 0)
(0.00134036 -3.24313e-07 0)
(0.00134183 5.10745e-08 0)
(0.00134194 4.28955e-07 0)
(0.00134065 8.12382e-07 0)
(0.00133798 1.19473e-06 0)
(0.00133392 1.57523e-06 0)
(0.00132845 1.9545e-06 0)
(0.00132159 2.33302e-06 0)
(0.00131332 2.71075e-06 0)
(0.00130365 3.08735e-06 0)
(0.00129257 3.4625e-06 0)
(0.00128009 3.83584e-06 0)
(0.00126621 4.20697e-06 0)
(0.00125094 4.57543e-06 0)
(0.00123428 4.94069e-06 0)
(0.00121625 5.30221e-06 0)
(0.00119686 5.65943e-06 0)
(0.00117611 6.01183e-06 0)
(0.00115402 6.35893e-06 0)
(0.00113062 6.70024e-06 0)
(0.00110592 7.03531e-06 0)
(0.00107994 7.3637e-06 0)
(0.0010527 7.68497e-06 0)
(0.00102424 7.99872e-06 0)
(0.000994573 8.30452e-06 0)
(0.000963734 8.60196e-06 0)
(0.000931752 8.89057e-06 0)
(0.000898661 9.16992e-06 0)
(0.000864495 9.43954e-06 0)
(0.00082929 9.69904e-06 0)
(0.000793086 9.94809e-06 0)
(0.000755922 1.01864e-05 0)
(0.00071784 1.04136e-05 0)
(0.000678885 1.06295e-05 0)
(0.0006391 1.08336e-05 0)
(0.000598532 1.10255e-05 0)
(0.00055723 1.12051e-05 0)
(0.000515241 1.13719e-05 0)
(0.000472616 1.15259e-05 0)
(0.000429407 1.16668e-05 0)
(0.000385665 1.17943e-05 0)
(0.000341445 1.19082e-05 0)
(0.0002968 1.20085e-05 0)
(0.000251786 1.2095e-05 0)
(0.00020646 1.21677e-05 0)
(0.000160876 1.22264e-05 0)
(0.000115092 1.2271e-05 0)
(6.91653e-05 1.23012e-05 0)
(2.31538e-05 1.23165e-05 0)
(-2.28863e-05 1.23165e-05 0)
(-6.88985e-05 1.23012e-05 0)
(-0.000114827 1.22709e-05 0)
(-0.000160612 1.22262e-05 0)
(-0.000206196 1.21674e-05 0)
(-0.000251524 1.20948e-05 0)
(-0.000296537 1.20084e-05 0)
(-0.000341182 1.19081e-05 0)
(-0.000385403 1.17941e-05 0)
(-0.000429146 1.16667e-05 0)
(-0.000472358 1.1526e-05 0)
(-0.000514986 1.13722e-05 0)
(-0.000556978 1.12056e-05 0)
(-0.000598285 1.10262e-05 0)
(-0.000638856 1.08345e-05 0)
(-0.000678644 1.06307e-05 0)
(-0.000717602 1.04153e-05 0)
(-0.000755687 1.01883e-05 0)
(-0.000792854 9.94994e-06 0)
(-0.000829063 9.70072e-06 0)
(-0.000864272 9.44113e-06 0)
(-0.000898443 9.17147e-06 0)
(-0.000931539 8.89221e-06 0)
(-0.000963527 8.60378e-06 0)
(-0.000994372 8.30652e-06 0)
(-0.00102404 8.00088e-06 0)
(-0.00105251 7.68729e-06 0)
(-0.00107976 7.36598e-06 0)
(-0.00110574 7.03737e-06 0)
(-0.00113045 6.70214e-06 0)
(-0.00115386 6.36077e-06 0)
(-0.00117596 6.01366e-06 0)
(-0.00119671 5.66147e-06 0)
(-0.00121612 5.30471e-06 0)
(-0.00123416 4.94364e-06 0)
(-0.00125083 4.57886e-06 0)
(-0.00126611 4.21088e-06 0)
(-0.00127999 3.83983e-06 0)
(-0.00129249 3.46633e-06 0)
(-0.00130358 3.0912e-06 0)
(-0.00131326 2.71447e-06 0)
(-0.00132154 2.33647e-06 0)
(-0.00132842 1.95801e-06 0)
(-0.00133389 1.57876e-06 0)
(-0.00133797 1.19795e-06 0)
(-0.00134065 8.15296e-07 0)
(-0.00134195 4.31492e-07 0)
(-0.00134184 5.33183e-08 0)
(-0.00134037 -3.21959e-07 0)
(-0.00133756 -6.92191e-07 0)
(-0.00133341 -1.05813e-06 0)
(-0.00132794 -1.41974e-06 0)
(-0.00132117 -1.77746e-06 0)
(-0.00131311 -2.13106e-06 0)
(-0.0013038 -2.4802e-06 0)
(-0.00129323 -2.82482e-06 0)
(-0.00128144 -3.16453e-06 0)
(-0.00126845 -3.49912e-06 0)
(-0.00125428 -3.82825e-06 0)
(-0.00123895 -4.15139e-06 0)
(-0.00122248 -4.46844e-06 0)
(-0.0012049 -4.77908e-06 0)
(-0.00118624 -5.08293e-06 0)
(-0.00116652 -5.38013e-06 0)
(-0.00114576 -5.67032e-06 0)
(-0.001124 -5.9534e-06 0)
(-0.00110127 -6.22957e-06 0)
(-0.00107758 -6.49832e-06 0)
(-0.00105297 -6.75943e-06 0)
(-0.00102746 -7.01283e-06 0)
(-0.00100108 -7.25894e-06 0)
(-0.000973866 -7.49746e-06 0)
(-0.00094584 -7.72795e-06 0)
(-0.000917032 -7.95036e-06 0)
(-0.000887475 -8.16388e-06 0)
(-0.000857195 -8.36879e-06 0)
(-0.000826224 -8.56537e-06 0)
(-0.00079459 -8.754e-06 0)
(-0.000762323 -8.93515e-06 0)
(-0.00072945 -9.10875e-06 0)
(-0.000696001 -9.27402e-06 0)
(-0.000662003 -9.43054e-06 0)
(-0.000627487 -9.57824e-06 0)
(-0.000592484 -9.71657e-06 0)
(-0.000557025 -9.84623e-06 0)
(-0.000521139 -9.9674e-06 0)
(-0.000484856 -1.00803e-05 0)
(-0.000448203 -1.01849e-05 0)
(-0.000411211 -1.02814e-05 0)
(-0.000373907 -1.03698e-05 0)
(-0.000336321 -1.04493e-05 0)
(-0.000298482 -1.05199e-05 0)
(-0.000260419 -1.05804e-05 0)
(-0.000222166 -1.06303e-05 0)
(-0.000183758 -1.06668e-05 0)
(-0.000145236 -1.06779e-05 0)
(-0.000106658 -1.06235e-05 0)
(-6.8347e-05 -1.03254e-05 0)
(-3.19891e-05 -9.052e-06 0)
(-4.9159e-06 -4.97737e-06 0)
(9.49809e-06 -3.21521e-05 0)
(6.05545e-05 -5.83053e-05 0)
(0.000122418 -6.60517e-05 0)
(0.000186716 -6.84414e-05 0)
(0.000251642 -6.93143e-05 0)
(0.000316729 -6.95241e-05 0)
(0.000381788 -6.93807e-05 0)
(0.000446679 -6.90606e-05 0)
(0.0005113 -6.86462e-05 0)
(0.000575572 -6.81737e-05 0)
(0.000639435 -6.76548e-05 0)
(0.000702834 -6.70913e-05 0)
(0.00076572 -6.64825e-05 0)
(0.000828043 -6.5827e-05 0)
(0.000889756 -6.51236e-05 0)
(0.00095081 -6.4371e-05 0)
(0.00101116 -6.35682e-05 0)
(0.00107075 -6.27151e-05 0)
(0.00112954 -6.18112e-05 0)
(0.00118748 -6.08562e-05 0)
(0.00124452 -5.98497e-05 0)
(0.00130061 -5.8791e-05 0)
(0.00135571 -5.76799e-05 0)
(0.00140976 -5.65161e-05 0)
(0.00146271 -5.52997e-05 0)
(0.00151452 -5.40313e-05 0)
(0.00156513 -5.27112e-05 0)
(0.0016145 -5.13396e-05 0)
(0.00166258 -4.99164e-05 0)
(0.00170932 -4.84418e-05 0)
(0.00175466 -4.69155e-05 0)
(0.00179857 -4.5338e-05 0)
(0.001841 -4.37097e-05 0)
(0.00188188 -4.20314e-05 0)
(0.00192118 -4.03035e-05 0)
(0.00195886 -3.85267e-05 0)
(0.00199485 -3.67014e-05 0)
(0.00202912 -3.4828e-05 0)
(0.00206162 -3.29074e-05 0)
(0.00209231 -3.09405e-05 0)
(0.00212113 -2.89283e-05 0)
(0.00214805 -2.68719e-05 0)
(0.00217303 -2.47724e-05 0)
(0.00219601 -2.2631e-05 0)
(0.00221697 -2.04491e-05 0)
(0.00223586 -1.82284e-05 0)
(0.00225264 -1.59706e-05 0)
(0.00226728 -1.36774e-05 0)
(0.00227974 -1.13504e-05 0)
(0.00229 -8.99137e-06 0)
(0.002298 -6.60171e-06 0)
(0.00230374 -4.18266e-06 0)
(0.00230718 -1.73432e-06 0)
(0.0023083 7.42501e-07 0)
(0.00230707 3.24356e-06 0)
(0.00230347 5.75617e-06 0)
(0.00229749 8.27746e-06 0)
(0.0022891 1.0807e-05 0)
(0.0022783 1.33438e-05 0)
(0.00226508 1.58856e-05 0)
(0.00224942 1.843e-05 0)
(0.00223132 2.0974e-05 0)
(0.00221079 2.35147e-05 0)
(0.00218782 2.60489e-05 0)
(0.00216241 2.8573e-05 0)
(0.00213459 3.10836e-05 0)
(0.00210435 3.35768e-05 0)
(0.00207172 3.6049e-05 0)
(0.0020367 3.84965e-05 0)
(0.00199934 4.09157e-05 0)
(0.00195964 4.33029e-05 0)
(0.00191764 4.56546e-05 0)
(0.00187338 4.7967e-05 0)
(0.00182689 5.02368e-05 0)
(0.00177821 5.24601e-05 0)
(0.00172739 5.46336e-05 0)
(0.00167448 5.67535e-05 0)
(0.00161952 5.88163e-05 0)
(0.00156257 6.08183e-05 0)
(0.0015037 6.2756e-05 0)
(0.00144296 6.46262e-05 0)
(0.00138042 6.64256e-05 0)
(0.00131615 6.81512e-05 0)
(0.00125022 6.97998e-05 0)
(0.00118272 7.13683e-05 0)
(0.00111371 7.28537e-05 0)
(0.00104329 7.42531e-05 0)
(0.000971528 7.5564e-05 0)
(0.000898523 7.67839e-05 0)
(0.000824362 7.79107e-05 0)
(0.000749137 7.89422e-05 0)
(0.000672943 7.98765e-05 0)
(0.000595876 8.07118e-05 0)
(0.000518035 8.14466e-05 0)
(0.00043952 8.20796e-05 0)
(0.000360433 8.26098e-05 0)
(0.000280876 8.30358e-05 0)
(0.000200952 8.33568e-05 0)
(0.000120766 8.35717e-05 0)
(4.04234e-05 8.36795e-05 0)
(-3.99737e-05 8.36795e-05 0)
(-0.000120317 8.35718e-05 0)
(-0.000200504 8.33568e-05 0)
(-0.000280429 8.30357e-05 0)
(-0.000359988 8.26098e-05 0)
(-0.000439076 8.20801e-05 0)
(-0.000517591 8.14474e-05 0)
(-0.000595432 8.07128e-05 0)
(-0.000672501 7.98777e-05 0)
(-0.000748698 7.89438e-05 0)
(-0.000823926 7.79129e-05 0)
(-0.000898091 7.67868e-05 0)
(-0.0009711 7.55675e-05 0)
(-0.00104286 7.42573e-05 0)
(-0.00111329 7.28588e-05 0)
(-0.0011823 7.13745e-05 0)
(-0.00124981 6.98072e-05 0)
(-0.00131574 6.81594e-05 0)
(-0.00138001 6.64341e-05 0)
(-0.00144256 6.46346e-05 0)
(-0.00150331 6.27645e-05 0)
(-0.00156219 6.0827e-05 0)
(-0.00161914 5.88255e-05 0)
(-0.00167411 5.67635e-05 0)
(-0.00172703 5.46444e-05 0)
(-0.00177786 5.24716e-05 0)
(-0.00182654 5.02487e-05 0)
(-0.00187304 4.7979e-05 0)
(-0.00191731 4.56663e-05 0)
(-0.00195932 4.33145e-05 0)
(-0.00199902 4.09277e-05 0)
(-0.0020364 3.85091e-05 0)
(-0.00207142 3.60627e-05 0)
(-0.00210407 3.35923e-05 0)
(-0.00213432 3.11009e-05 0)
(-0.00216216 2.8592e-05 0)
(-0.00218757 2.60694e-05 0)
(-0.00221056 2.35363e-05 0)
(-0.0022311 2.09958e-05 0)
(-0.00224921 1.84519e-05 0)
(-0.00226489 1.59073e-05 0)
(-0.00227813 1.33646e-05 0)
(-0.00228894 1.08271e-05 0)
(-0.00229734 8.2968e-06 0)
(-0.00230333 5.77398e-06 0)
(-0.00230694 3.25984e-06 0)
(-0.00230818 7.57613e-07 0)
(-0.00230707 -1.71974e-06 0)
(-0.00230364 -4.16736e-06 0)
(-0.00229792 -6.5849e-06 0)
(-0.00228992 -8.97259e-06 0)
(-0.00227969 -1.13287e-05 0)
(-0.00226724 -1.36528e-05 0)
(-0.00225261 -1.59438e-05 0)
(-0.00223585 -1.81997e-05 0)
(-0.00221698 -2.04192e-05 0)
(-0.00219604 -2.26004e-05 0)
(-0.00217307 -2.47419e-05 0)
(-0.00214811 -2.68422e-05 0)
(-0.00212121 -2.88991e-05 0)
(-0.00209241 -3.09117e-05 0)
(-0.00206174 -3.28789e-05 0)
(-0.00202926 -3.47993e-05 0)
(-0.001995 -3.66721e-05 0)
(-0.00195903 -3.84967e-05 0)
(-0.00192137 -4.02723e-05 0)
(-0.00188209 -4.19991e-05 0)
(-0.00184122 -4.36759e-05 0)
(-0.00179882 -4.53024e-05 0)
(-0.00175493 -4.68787e-05 0)
(-0.00170961 -4.84047e-05 0)
(-0.00166289 -4.98797e-05 0)
(-0.00161484 -5.13019e-05 0)
(-0.00156549 -5.2671e-05 0)
(-0.0015149 -5.39855e-05 0)
(-0.00146312 -5.5246e-05 0)
(-0.0014102 -5.64543e-05 0)
(-0.00135619 -5.76116e-05 0)
(-0.00130113 -5.87189e-05 0)
(-0.00124508 -5.97753e-05 0)
(-0.00118808 -6.07795e-05 0)
(-0.00113018 -6.17296e-05 0)
(-0.00107143 -6.2626e-05 0)
(-0.00101188 -6.34675e-05 0)
(-0.000951584 -6.42559e-05 0)
(-0.000890584 -6.49922e-05 0)
(-0.00082893 -6.56762e-05 0)
(-0.000766669 -6.63097e-05 0)
(-0.00070385 -6.68929e-05 0)
(-0.000640521 -6.74256e-05 0)
(-0.000576729 -6.79051e-05 0)
(-0.000512522 -6.83317e-05 0)
(-0.000447946 -6.87036e-05 0)
(-0.00038305 -6.9019e-05 0)
(-0.000317884 -6.9272e-05 0)
(-0.000252487 -6.94249e-05 0)
(-0.000186896 -6.92609e-05 0)
(-0.000121527 -6.76169e-05 0)
(-5.90738e-05 -5.96361e-05 0)
(-8.7927e-06 -3.18437e-05 0)
(1.03821e-05 -6.90487e-05 0)
(6.82189e-05 -0.000121216 0)
(0.00013758 -0.000134398 0)
(0.000209234 -0.000137535 0)
(0.000280947 -0.000138513 0)
(0.000352533 -0.000138734 0)
(0.000423993 -0.00013851 0)
(0.000495264 -0.000138006 0)
(0.000566264 -0.000137314 0)
(0.000636914 -0.000136482 0)
(0.000707145 -0.000135534 0)
(0.000776893 -0.000134477 0)
(0.0008461 -0.000133316 0)
(0.000914708 -0.000132053 0)
(0.000982662 -0.000130688 0)
(0.00104991 -0.000129221 0)
(0.00111639 -0.000127652 0)
(0.00118206 -0.00012598 0)
(0.00124686 -0.000124205 0)
(0.00131073 -0.000122327 0)
(0.00137362 -0.000120345 0)
(0.00143549 -0.000118258 0)
(0.00149627 -0.000116067 0)
(0.00155591 -0.00011377 0)
(0.00161436 -0.000111368 0)
(0.00167156 -0.000108862 0)
(0.00172746 -0.000106252 0)
(0.00178201 -0.000103537 0)
(0.00183514 -0.000100718 0)
(0.00188681 -9.77948e-05 0)
(0.00193697 -9.47674e-05 0)
(0.00198555 -9.16365e-05 0)
(0.00203251 -8.84031e-05 0)
(0.00207779 -8.5068e-05 0)
(0.00212134 -8.1632e-05 0)
(0.0021631 -7.80961e-05 0)
(0.00220303 -7.4461e-05 0)
(0.00224107 -7.07281e-05 0)
(0.00227716 -6.68987e-05 0)
(0.00231127 -6.29746e-05 0)
(0.00234334 -5.89575e-05 0)
(0.00237332 -5.48494e-05 0)
(0.00240116 -5.06525e-05 0)
(0.00242682 -4.6369e-05 0)
(0.00245025 -4.20019e-05 0)
(0.0024714 -3.75539e-05 0)
(0.00249024 -3.30284e-05 0)
(0.00250672 -2.84284e-05 0)
(0.00252081 -2.37573e-05 0)
(0.00253246 -1.90187e-05 0)
(0.00254164 -1.42162e-05 0)
(0.00254832 -9.35402e-06 0)
(0.00255246 -4.43576e-06 0)
(0.00255404 5.36203e-07 0)
(0.00255304 5.55144e-06 0)
(0.00254944 1.06042e-05 0)
(0.0025432 1.56889e-05 0)
(0.00253431 2.08009e-05 0)
(0.00252274 2.59349e-05 0)
(0.00250848 3.10853e-05 0)
(0.00249153 3.62463e-05 0)
(0.00247187 4.14117e-05 0)
(0.0024495 4.65751e-05 0)
(0.00242443 5.17297e-05 0)
(0.00239665 5.68683e-05 0)
(0.00236618 6.19837e-05 0)
(0.00233302 6.70682e-05 0)
(0.00229719 7.21146e-05 0)
(0.00225872 7.71151e-05 0)
(0.00221761 8.20623e-05 0)
(0.0021739 8.69485e-05 0)
(0.00212763 9.17662e-05 0)
(0.00207882 9.65076e-05 0)
(0.00202752 0.000101165 0)
(0.00197377 0.000105731 0)
(0.00191763 0.000110198 0)
(0.00185913 0.000114557 0)
(0.00179835 0.000118802 0)
(0.00173534 0.000122925 0)
(0.00167016 0.000126918 0)
(0.00160289 0.000130775 0)
(0.00153359 0.000134488 0)
(0.00146236 0.00013805 0)
(0.00138926 0.000141456 0)
(0.00131438 0.000144697 0)
(0.00123781 0.000147767 0)
(0.00115965 0.000150661 0)
(0.00107998 0.000153373 0)
(0.000998909 0.000155898 0)
(0.000916533 0.00015823 0)
(0.000832958 0.000160365 0)
(0.000748288 0.0001623 0)
(0.000662634 0.000164029 0)
(0.000576105 0.00016555 0)
(0.000488816 0.000166859 0)
(0.00040088 0.000167955 0)
(0.000312413 0.000168834 0)
(0.000223531 0.000169495 0)
(0.000134353 0.000169936 0)
(4.49966e-05 0.000170157 0)
(-4.44232e-05 0.000170157 0)
(-0.00013378 0.000169937 0)
(-0.00022296 0.000169495 0)
(-0.000311843 0.000168835 0)
(-0.000400311 0.000167956 0)
(-0.000488248 0.000166861 0)
(-0.000575538 0.000165552 0)
(-0.000662067 0.000164031 0)
(-0.000747723 0.000162302 0)
(-0.000832395 0.000160368 0)
(-0.000915973 0.000158234 0)
(-0.000998352 0.000155902 0)
(-0.00107943 0.000153378 0)
(-0.0011591 0.000150668 0)
(-0.00123727 0.000147775 0)
(-0.00131384 0.000144706 0)
(-0.00138872 0.000141467 0)
(-0.00146182 0.000138063 0)
(-0.00153307 0.000134501 0)
(-0.00160236 0.000130789 0)
(-0.00166964 0.000126933 0)
(-0.00173482 0.000122941 0)
(-0.00179784 0.000118818 0)
(-0.00185863 0.000114574 0)
(-0.00191713 0.000110216 0)
(-0.00197329 0.00010575 0)
(-0.00202704 0.000101184 0)
(-0.00207835 9.65263e-05 0)
(-0.00212716 9.17848e-05 0)
(-0.00217345 8.69672e-05 0)
(-0.00221716 8.20817e-05 0)
(-0.00225828 7.71356e-05 0)
(-0.00229676 7.21365e-05 0)
(-0.0023326 6.70921e-05 0)
(-0.00236577 6.20097e-05 0)
(-0.00239625 5.68962e-05 0)
(-0.00242404 5.17593e-05 0)
(-0.00244912 4.66064e-05 0)
(-0.0024715 4.14438e-05 0)
(-0.00249116 3.62786e-05 0)
(-0.00250813 3.11178e-05 0)
(-0.00252239 2.59667e-05 0)
(-0.00253397 2.08315e-05 0)
(-0.00254288 1.57185e-05 0)
(-0.00254912 1.06322e-05 0)
(-0.00255274 5.5778e-06 0)
(-0.00255374 5.61743e-07 0)
(-0.00255217 -4.41042e-06 0)
(-0.00254804 -9.32777e-06 0)
(-0.00254137 -1.41879e-05 0)
(-0.0025322 -1.89878e-05 0)
(-0.00252056 -2.37235e-05 0)
(-0.00250649 -2.83916e-05 0)
(-0.00249002 -3.29895e-05 0)
(-0.00247119 -3.75134e-05 0)
(-0.00245004 -4.19599e-05 0)
(-0.00242662 -4.63262e-05 0)
(-0.00240098 -5.06093e-05 0)
(-0.00237314 -5.48065e-05 0)
(-0.00234318 -5.89148e-05 0)
(-0.00231112 -6.29319e-05 0)
(-0.00227702 -6.68566e-05 0)
(-0.00224094 -7.06862e-05 0)
(-0.00220291 -7.44187e-05 0)
(-0.002163 -7.80531e-05 0)
(-0.00212125 -8.1588e-05 0)
(-0.00207771 -8.50227e-05 0)
(-0.00203244 -8.8356e-05 0)
(-0.00198549 -9.15875e-05 0)
(-0.00193692 -9.47173e-05 0)
(-0.00188678 -9.77442e-05 0)
(-0.00183512 -0.000100668 0)
(-0.001782 -0.000103486 0)
(-0.00172746 -0.000106197 0)
(-0.00167158 -0.000108802 0)
(-0.00161439 -0.0001113 0)
(-0.00155595 -0.000113694 0)
(-0.00149632 -0.000115985 0)
(-0.00143555 -0.000118173 0)
(-0.0013737 -0.000120257 0)
(-0.00131081 -0.000122236 0)
(-0.00124695 -0.000124109 0)
(-0.00118217 -0.000125877 0)
(-0.00111651 -0.000127538 0)
(-0.00105004 -0.000129095 0)
(-0.000982795 -0.000130549 0)
(-0.000914839 -0.000131898 0)
(-0.000846223 -0.000133146 0)
(-0.000777 -0.000134293 0)
(-0.000707221 -0.00013534 0)
(-0.000636938 -0.000136283 0)
(-0.000566204 -0.000137123 0)
(-0.000495067 -0.000137859 0)
(-0.000423581 -0.000138491 0)
(-0.000351799 -0.000139013 0)
(-0.000279764 -0.000139373 0)
(-0.000207513 -0.000139207 0)
(-0.000135497 -0.000136429 0)
(-6.66971e-05 -0.000121858 0)
(-9.98581e-06 -6.75366e-05 0)
(1.03586e-05 -0.000107516 0)
(6.91042e-05 -0.000187493 0)
(0.000140056 -0.000206937 0)
(0.000213634 -0.000210762 0)
(0.000287093 -0.000211534 0)
(0.000360232 -0.000211519 0)
(0.00043312 -0.000211069 0)
(0.000505754 -0.000210303 0)
(0.000578084 -0.000209291 0)
(0.000650052 -0.000208074 0)
(0.000721595 -0.000206675 0)
(0.000792652 -0.000205106 0)
(0.000863163 -0.000203373 0)
(0.000933073 -0.00020148 0)
(0.00100232 -0.000199429 0)
(0.00107086 -0.00019722 0)
(0.00113862 -0.000194854 0)
(0.00120556 -0.00019233 0)
(0.00127162 -0.000189649 0)
(0.00133674 -0.000186809 0)
(0.00140087 -0.000183811 0)
(0.00146396 -0.000180653 0)
(0.00152595 -0.000177335 0)
(0.00158679 -0.000173858 0)
(0.00164641 -0.00017022 0)
(0.00170478 -0.000166423 0)
(0.00176182 -0.000162467 0)
(0.00181748 -0.000158351 0)
(0.00187171 -0.000154075 0)
(0.00192446 -0.000149639 0)
(0.00197567 -0.000145044 0)
(0.00202529 -0.000140291 0)
(0.00207325 -0.000135381 0)
(0.00211951 -0.000130315 0)
(0.00216401 -0.000125094 0)
(0.00220669 -0.000119719 0)
(0.00224751 -0.000114192 0)
(0.00228641 -0.000108515 0)
(0.00232333 -0.000102689 0)
(0.00235823 -9.67172e-05 0)
(0.00239106 -9.06024e-05 0)
(0.00242175 -8.43472e-05 0)
(0.00245028 -7.79547e-05 0)
(0.00247658 -7.14286e-05 0)
(0.00250061 -6.47729e-05 0)
(0.00252233 -5.7992e-05 0)
(0.00254169 -5.10902e-05 0)
(0.00255865 -4.40726e-05 0)
(0.00257316 -3.6944e-05 0)
(0.0025852 -2.97101e-05 0)
(0.00259471 -2.23768e-05 0)
(0.00260167 -1.49508e-05 0)
(0.00260605 -7.43925e-06 0)
(0.00260781 1.49956e-07 0)
(0.00260693 7.80918e-06 0)
(0.00260339 1.55326e-05 0)
(0.00259715 2.33122e-05 0)
(0.0025882 3.1139e-05 0)
(0.00257652 3.90039e-05 0)
(0.00256209 4.68978e-05 0)
(0.0025449 5.48113e-05 0)
(0.00252495 6.27349e-05 0)
(0.00250224 7.06584e-05 0)
(0.00247675 7.85712e-05 0)
(0.0024485 8.64626e-05 0)
(0.00241749 9.43212e-05 0)
(0.00238374 0.000102136 0)
(0.00234725 0.000109895 0)
(0.00230805 0.000117587 0)
(0.00226615 0.000125199 0)
(0.0022216 0.000132722 0)
(0.00217441 0.000140141 0)
(0.00212463 0.000147446 0)
(0.0020723 0.000154625 0)
(0.00201746 0.000161665 0)
(0.00196015 0.000168553 0)
(0.00190045 0.000175279 0)
(0.00183839 0.00018183 0)
(0.00177404 0.000188195 0)
(0.00170748 0.000194361 0)
(0.00163877 0.000200318 0)
(0.00156798 0.000206055 0)
(0.00149521 0.000211561 0)
(0.00142051 0.000216824 0)
(0.001344 0.000221835 0)
(0.00126574 0.000226583 0)
(0.00118585 0.00023106 0)
(0.00110442 0.000235255 0)
(0.00102154 0.000239162 0)
(0.000937319 0.000242772 0)
(0.000851869 0.000246077 0)
(0.000765294 0.000249071 0)
(0.000677708 0.000251749 0)
(0.000589223 0.000254103 0)
(0.000499956 0.000256131 0)
(0.000410024 0.000257826 0)
(0.000319546 0.000259187 0)
(0.000228642 0.000260209 0)
(0.000137433 0.000260891 0)
(4.60429e-05 0.000261232 0)
(-4.54131e-05 0.000261232 0)
(-0.000136804 0.000260892 0)
(-0.000228015 0.00026021 0)
(-0.00031892 0.000259189 0)
(-0.000409398 0.00025783 0)
(-0.000499331 0.000256135 0)
(-0.000588599 0.000254108 0)
(-0.000677085 0.000251754 0)
(-0.000764673 0.000249077 0)
(-0.000851249 0.000246083 0)
(-0.000936703 0.000242779 0)
(-0.00102092 0.00023917 0)
(-0.00110381 0.000235264 0)
(-0.00118525 0.00023107 0)
(-0.00126514 0.000226595 0)
(-0.0013434 0.000221848 0)
(-0.00141992 0.000216839 0)
(-0.00149461 0.000211577 0)
(-0.0015674 0.000206073 0)
(-0.00163819 0.000200338 0)
(-0.00170691 0.000194382 0)
(-0.00177347 0.000188216 0)
(-0.00183782 0.000181852 0)
(-0.00189989 0.000175302 0)
(-0.0019596 0.000168577 0)
(-0.00201691 0.000161689 0)
(-0.00207176 0.00015465 0)
(-0.0021241 0.000147472 0)
(-0.00217389 0.000140167 0)
(-0.00222108 0.000132748 0)
(-0.00226564 0.000125227 0)
(-0.00230754 0.000117615 0)
(-0.00234675 0.000109924 0)
(-0.00238324 0.000102167 0)
(-0.00241701 9.43544e-05 0)
(-0.00244803 8.64977e-05 0)
(-0.00247629 7.86082e-05 0)
(-0.00250178 7.06973e-05 0)
(-0.0025245 6.27752e-05 0)
(-0.00254446 5.4852e-05 0)
(-0.00256165 4.69385e-05 0)
(-0.00257609 3.90441e-05 0)
(-0.00258778 3.11779e-05 0)
(-0.00259674 2.335e-05 0)
(-0.00260298 1.55693e-05 0)
(-0.00260654 7.84502e-06 0)
(-0.00260742 1.85809e-07 0)
(-0.00260567 -7.40291e-06 0)
(-0.0026013 -1.49134e-05 0)
(-0.00259435 -2.23373e-05 0)
(-0.00258484 -2.96683e-05 0)
(-0.00257282 -3.69e-05 0)
(-0.00255831 -4.40264e-05 0)
(-0.00254136 -5.10423e-05 0)
(-0.00252201 -5.79425e-05 0)
(-0.0025003 -6.4722e-05 0)
(-0.00247628 -7.13769e-05 0)
(-0.00244998 -7.79024e-05 0)
(-0.00242146 -8.42949e-05 0)
(-0.00239077 -9.05506e-05 0)
(-0.00235795 -9.6666e-05 0)
(-0.00232306 -0.000102638 0)
(-0.00228614 -0.000108464 0)
(-0.00224726 -0.000114141 0)
(-0.00220645 -0.000119668 0)
(-0.00216377 -0.000125041 0)
(-0.00211928 -0.000130261 0)
(-0.00207303 -0.000135326 0)
(-0.00202507 -0.000140235 0)
(-0.00197546 -0.000144987 0)
(-0.00192426 -0.000149581 0)
(-0.00187151 -0.000154016 0)
(-0.00181728 -0.000158291 0)
(-0.00176162 -0.000162404 0)
(-0.00170459 -0.000166356 0)
(-0.00164623 -0.000170147 0)
(-0.00158661 -0.000173779 0)
(-0.00152577 -0.000177252 0)
(-0.00146378 -0.000180566 0)
(-0.00140069 -0.000183721 0)
(-0.00133656 -0.000186717 0)
(-0.00127143 -0.000189554 0)
(-0.00120537 -0.00019223 0)
(-0.00113842 -0.000194749 0)
(-0.00107064 -0.000197108 0)
(-0.00100208 -0.00019931 0)
(-0.000932806 -0.000201355 0)
(-0.000862857 -0.000203246 0)
(-0.000792293 -0.000204982 0)
(-0.000721166 -0.000206564 0)
(-0.000649526 -0.000207992 0)
(-0.000577429 -0.000209264 0)
(-0.000504924 -0.000210379 0)
(-0.000432065 -0.000211339 0)
(-0.000358905 -0.000212136 0)
(-0.000285488 -0.000212697 0)
(-0.000211856 -0.000212496 0)
(-0.000138465 -0.000208475 0)
(-6.84074e-05 -0.000186996 0)
(-1.02851e-05 -0.000105135 0)
(1.03353e-05 -0.000145629 0)
(6.89065e-05 -0.000253666 0)
(0.00014002 -0.000279985 0)
(0.000214158 -0.000284734 0)
(0.00028825 -0.000285285 0)
(0.00036197 -0.000284953 0)
(0.000435368 -0.000284205 0)
(0.000508455 -0.000283128 0)
(0.000581202 -0.000281763 0)
(0.000653564 -0.000280141 0)
(0.000725488 -0.00027828 0)
(0.000796919 -0.000276191 0)
(0.000867801 -0.000273881 0)
(0.000938078 -0.000271355 0)
(0.00100769 -0.000268614 0)
(0.00107659 -0.000265661 0)
(0.00114472 -0.000262495 0)
(0.00121202 -0.000259117 0)
(0.00127844 -0.000255526 0)
(0.00134393 -0.000251722 0)
(0.00140842 -0.000247704 0)
(0.00147187 -0.000243471 0)
(0.00153422 -0.000239024 0)
(0.00159541 -0.000234362 0)
(0.00165539 -0.000229485 0)
(0.0017141 -0.000224393 0)
(0.00177149 -0.000219085 0)
(0.0018275 -0.000213562 0)
(0.00188208 -0.000207823 0)
(0.00193517 -0.00020187 0)
(0.00198671 -0.000195702 0)
(0.00203666 -0.000189321 0)
(0.00208495 -0.000182727 0)
(0.00213152 -0.000175923 0)
(0.00217634 -0.00016891 0)
(0.00221933 -0.000161688 0)
(0.00226045 -0.000154261 0)
(0.00229965 -0.00014663 0)
(0.00233686 -0.000138799 0)
(0.00237205 -0.00013077 0)
(0.00240515 -0.000122547 0)
(0.00243611 -0.000114134 0)
(0.00246489 -0.000105535 0)
(0.00249144 -9.67547e-05 0)
(0.00251571 -8.77982e-05 0)
(0.00253765 -7.86711e-05 0)
(0.00255722 -6.93796e-05 0)
(0.00257438 -5.993e-05 0)
(0.00258909 -5.03292e-05 0)
(0.0026013 -4.05845e-05 0)
(0.00261097 -3.07041e-05 0)
(0.00261808 -2.06968e-05 0)
(0.00262259 -1.05724e-05 0)
(0.00262446 -3.41503e-07 0)
(0.00262367 9.98744e-06 0)
(0.0026202 2.04055e-05 0)
(0.00261401 3.09021e-05 0)
(0.00260509 4.14652e-05 0)
(0.00259342 5.20826e-05 0)
(0.00257898 6.2742e-05 0)
(0.00256177 7.34305e-05 0)
(0.00254177 8.41351e-05 0)
(0.00251899 9.4842e-05 0)
(0.00249341 0.000105537 0)
(0.00246505 0.000116205 0)
(0.00243391 0.000126831 0)
(0.0024 0.000137401 0)
(0.00236334 0.000147898 0)
(0.00232394 0.000158306 0)
(0.00228183 0.000168611 0)
(0.00223703 0.000178795 0)
(0.00218958 0.000188843 0)
(0.00213952 0.000198739 0)
(0.00208688 0.000208464 0)
(0.0020317 0.000218004 0)
(0.00197405 0.000227341 0)
(0.00191396 0.000236459 0)
(0.00185151 0.000245342 0)
(0.00178675 0.000253974 0)
(0.00171975 0.000262339 0)
(0.00165059 0.000270421 0)
(0.00157933 0.000278205 0)
(0.00150605 0.000285677 0)
(0.00143085 0.000292821 0)
(0.0013538 0.000299624 0)
(0.001275 0.000306071 0)
(0.00119454 0.000312151 0)
(0.00111253 0.00031785 0)
(0.00102905 0.000323157 0)
(0.000944229 0.000328062 0)
(0.00085816 0.000332554 0)
(0.000770955 0.000336624 0)
(0.000682728 0.000340264 0)
(0.000593594 0.000343465 0)
(0.000503669 0.000346222 0)
(0.000413073 0.000348528 0)
(0.000321925 0.000350379 0)
(0.000230347 0.00035177 0)
(0.000138461 0.000352699 0)
(4.63915e-05 0.000353164 0)
(-4.57437e-05 0.000353164 0)
(-0.000137814 0.000352701 0)
(-0.000229701 0.000351774 0)
(-0.00032128 0.000350384 0)
(-0.000412429 0.000348535 0)
(-0.000503026 0.00034623 0)
(-0.000592952 0.000343474 0)
(-0.000682088 0.000340273 0)
(-0.000770316 0.000336634 0)
(-0.000857523 0.000332565 0)
(-0.000943595 0.000328073 0)
(-0.00102842 0.00032317 0)
(-0.0011119 0.000317864 0)
(-0.00119392 0.000312166 0)
(-0.00127438 0.000306088 0)
(-0.00135318 0.000299642 0)
(-0.00143023 0.000292841 0)
(-0.00150544 0.000285698 0)
(-0.00157872 0.000278228 0)
(-0.00164999 0.000270445 0)
(-0.00171916 0.000262364 0)
(-0.00178616 0.000254 0)
(-0.00185093 0.000245369 0)
(-0.00191339 0.000236487 0)
(-0.00197347 0.00022737 0)
(-0.00203114 0.000218034 0)
(-0.00208631 0.000208495 0)
(-0.00213896 0.000198771 0)
(-0.00218903 0.000188877 0)
(-0.00223649 0.00017883 0)
(-0.00228129 0.000168646 0)
(-0.00232341 0.000158343 0)
(-0.00236282 0.000147935 0)
(-0.00239949 0.00013744 0)
(-0.00243341 0.000126872 0)
(-0.00246455 0.000116248 0)
(-0.00249292 0.000105581 0)
(-0.0025185 9.48884e-05 0)
(-0.0025413 8.41829e-05 0)
(-0.0025613 7.34787e-05 0)
(-0.00257852 6.279e-05 0)
(-0.00259296 5.21302e-05 0)
(-0.00260464 4.15118e-05 0)
(-0.00261357 3.09478e-05 0)
(-0.00261977 2.0451e-05 0)
(-0.00262325 1.0033e-05 0)
(-0.00262405 -2.95438e-07 0)
(-0.00262218 -1.05254e-05 0)
(-0.00261768 -2.06488e-05 0)
(-0.00261058 -3.06545e-05 0)
(-0.00260091 -4.05329e-05 0)
(-0.00258871 -5.02761e-05 0)
(-0.00257402 -5.98754e-05 0)
(-0.00255686 -6.93233e-05 0)
(-0.0025373 -7.86133e-05 0)
(-0.00251536 -8.77392e-05 0)
(-0.0024911 -9.66954e-05 0)
(-0.00246455 -0.000105476 0)
(-0.00243578 -0.000114075 0)
(-0.00240482 -0.000122489 0)
(-0.00237173 -0.000130713 0)
(-0.00233655 -0.000138742 0)
(-0.00229935 -0.000146573 0)
(-0.00226016 -0.000154203 0)
(-0.00221904 -0.00016163 0)
(-0.00217605 -0.00016885 0)
(-0.00213125 -0.000175863 0)
(-0.00208467 -0.000182667 0)
(-0.00203639 -0.00018926 0)
(-0.00198645 -0.00019564 0)
(-0.00193491 -0.000201807 0)
(-0.00188182 -0.000207759 0)
(-0.00182725 -0.000213496 0)
(-0.00177124 -0.000219016 0)
(-0.00171385 -0.000224321 0)
(-0.00165514 -0.00022941 0)
(-0.00159516 -0.000234284 0)
(-0.00153397 -0.000238943 0)
(-0.00147162 -0.000243387 0)
(-0.00140816 -0.000247618 0)
(-0.00134366 -0.000251635 0)
(-0.00127817 -0.000255439 0)
(-0.00121174 -0.000259029 0)
(-0.00114442 -0.000262407 0)
(-0.00107627 -0.000265572 0)
(-0.00100734 -0.000268526 0)
(-0.000937694 -0.000271271 0)
(-0.000867374 -0.000273807 0)
(-0.000796437 -0.000276136 0)
(-0.000724936 -0.000278257 0)
(-0.000652922 -0.00028017 0)
(-0.000580448 -0.000281875 0)
(-0.000507567 -0.000283373 0)
(-0.000434331 -0.000284663 0)
(-0.000360795 -0.000285737 0)
(-0.000287004 -0.0002865 0)
(-0.000212999 -0.00028626 0)
(-0.00013924 -0.000280985 0)
(-6.88649e-05 -0.000252565 0)
(-1.03824e-05 -0.000143105 0)
(1.03399e-05 -0.000183584 0)
(6.88601e-05 -0.000319655 0)
(0.000139968 -0.000353117 0)
(0.000214355 -0.000358984 0)
(0.000288806 -0.00035938 0)
(0.000362907 -0.000358721 0)
(0.00043667 -0.000357642 0)
(0.000510093 -0.00035622 0)
(0.000583153 -0.000354479 0)
(0.00065581 -0.000352435 0)
(0.000728016 -0.000350101 0)
(0.000799722 -0.000347486 0)
(0.000870874 -0.000344596 0)
(0.000941418 -0.000341435 0)
(0.0010113 -0.000338006 0)
(0.00108046 -0.000334308 0)
(0.00114885 -0.000330343 0)
(0.00121642 -0.000326111 0)
(0.0012831 -0.000321612 0)
(0.00134885 -0.000316844 0)
(0.00141361 -0.000311807 0)
(0.00147733 -0.000306501 0)
(0.00153994 -0.000300926 0)
(0.0016014 -0.00029508 0)
(0.00166164 -0.000288964 0)
(0.00172062 -0.000282577 0)
(0.00177827 -0.000275919 0)
(0.00183455 -0.000268989 0)
(0.00188939 -0.000261788 0)
(0.00194274 -0.000254317 0)
(0.00199455 -0.000246576 0)
(0.00204475 -0.000238566 0)
(0.0020933 -0.000230289 0)
(0.00214014 -0.000221745 0)
(0.0021852 -0.000212938 0)