/*--------------------------------*- C++ -*----------------------------------*\
| =========                 |                                                 |
| \\      /  F ield         | OpenFOAM: The Open Source CFD Toolbox           |
|  \\    /   O peration     | Version:  2412                                  |
|   \\  /    A nd           | Website:  www.openfoam.com                      |
|    \\/     M anipulation  |                                                 |
\*---------------------------------------------------------------------------*/
FoamFile
{
    version     2.0;
    format      ascii;
    arch        "LSB;label=32;scalar=64";
    class       volScalarField;
    location    "1.3";
    object      alpha.water;
}
// * * * * * * * * * * * * * * * * * * * * * * * * * * * * * * * * * * * * * //

dimensions      [0 0 0 0 0 0 0];

internalField   nonuniform List<scalar> 
40000
(
1.77996e-182
1.21948e-172
2.44891e-171
3.98018e-171
4.17924e-171
3.98704e-171
3.67197e-171
3.30332e-171
2.91091e-171
2.51459e-171
2.12934e-171
1.76667e-171
1.43512e-171
1.14034e-171
8.85367e-172
6.70859e-172
4.95411e-172
3.56278e-172
2.49133e-172
1.69054e-172
1.11095e-172
7.05713e-173
4.32463e-173
2.55095e-173
1.44456e-173
7.82928e-174
4.04881e-174
1.99145e-174
9.30179e-175
4.11367e-175
1.71331e-175
6.67625e-176
2.41902e-176
8.10881e-177
2.50575e-177
7.11101e-178
1.84568e-178
4.35435e-179
9.25663e-180
1.7577e-180
2.96144e-181
4.40656e-182
5.76668e-183
6.60669e-184
6.59375e-185
5.70421e-186
4.2547e-187
2.71835e-188
1.4732e-189
6.65731e-191
2.42222e-192
6.49039e-194
1.15195e-195
2.03373e-197
3.56538e-199
6.19896e-201
1.06734e-202
1.81622e-204
3.0466e-206
5.02397e-208
8.12371e-210
1.28528e-211
1.9862e-213
2.99394e-215
4.39715e-217
6.28619e-219
8.73964e-221
1.18056e-222
1.54795e-224
1.96809e-226
2.42368e-228
2.88752e-230
3.32379e-232
3.69144e-234
3.94964e-236
4.06457e-238
4.01608e-240
3.80275e-242
3.44352e-244
2.97537e-246
2.44707e-248
1.9105e-250
1.41173e-252
9.8407e-255
6.44723e-257
3.95363e-259
2.25872e-261
1.19578e-263
5.83014e-266
2.59908e-268
1.05042e-270
3.80931e-273
1.22399e-275
3.42946e-278
8.20666e-281
1.6305e-283
2.58212e-286
3.05685e-289
2.40816e-292
9.53242e-296
9.59884e-296
2.51746e-292
3.24819e-289
2.77019e-286
1.76044e-283
8.90073e-281
3.73185e-278
1.33523e-275
4.16337e-273
1.14969e-270
2.84775e-268
6.39299e-266
1.31194e-263
2.47903e-261
4.34009e-259
7.07774e-257
1.08022e-254
1.54936e-252
2.09613e-250
2.68378e-248
3.26163e-246
3.77273e-244
4.1637e-242
4.39422e-240
4.44389e-238
4.31467e-236
4.029e-234
3.62426e-232
3.14532e-230
2.63717e-228
2.13895e-226
1.68024e-224
1.27975e-222
9.46049e-221
6.79441e-219
4.74505e-217
3.22539e-215
2.13602e-213
1.37977e-211
8.70552e-210
5.37445e-208
3.25364e-206
1.93642e-204
1.13599e-202
6.58473e-201
3.77844e-199
2.14931e-197
1.2136e-195
6.81518e-194
2.55313e-192
7.01716e-191
1.5502e-189
2.85273e-188
4.45003e-187
5.94333e-186
6.84201e-185
6.82655e-184
5.93375e-183
4.51597e-182
3.02319e-181
1.78773e-180
9.38315e-180
4.40103e-179
1.86082e-178
7.15349e-178
2.51562e-177
8.12619e-177
2.42061e-176
6.67233e-176
1.71055e-175
4.10347e-175
9.27186e-175
1.98376e-174
4.0307e-174
7.78946e-174
1.43643e-173
2.53551e-173
4.29724e-173
7.01134e-173
1.10367e-172
1.67949e-172
2.47516e-172
3.53986e-172
4.92246e-172
6.66605e-172
8.7982e-172
1.13336e-171
1.42667e-171
1.75688e-171
2.11858e-171
2.50379e-171
2.90207e-171
3.30117e-171
3.68725e-171
4.04068e-171
4.29818e-171
4.15293e-171
2.53722e-171
1.17877e-172
1.44208e-182
7.07268e-179
1.89786e-169
3.23412e-168
5.04824e-168
5.23544e-168
4.98075e-168
4.59739e-168
4.15684e-168
3.68777e-168
3.21086e-168
2.74311e-168
2.29837e-168
1.88734e-168
1.51757e-168
1.19364e-168
9.17304e-169
6.87862e-169
5.02996e-169
3.58128e-169
2.47768e-169
1.66224e-169
1.07942e-169
6.77067e-170
4.093e-170
2.37839e-170
1.32459e-170
7.0503e-171
3.57636e-171
1.72723e-171
7.92271e-172
3.43394e-172
1.39721e-172
5.30237e-173
1.86636e-173
6.06914e-174
1.81697e-174
4.99251e-175
1.25275e-175
2.84783e-176
5.81435e-177
1.05903e-177
1.71349e-178
2.45475e-179
3.10354e-180
3.45172e-181
3.36806e-182
2.87787e-183
2.15062e-184
1.4041e-185
7.99663e-187
3.96052e-188
1.69462e-189
6.17526e-191
2.12711e-192
7.17859e-194
2.37097e-195
7.6565e-197
2.41531e-198
7.43722e-200
2.23369e-201
6.53885e-203
1.86443e-204
5.17428e-206
1.3967e-207
3.66423e-209
9.33568e-211
2.30797e-212
5.53156e-214
1.28406e-215
2.88404e-217
6.2606e-219
1.31196e-220
2.6507e-222
5.15639e-224
9.64349e-226
1.73115e-227
2.97783e-229
4.89908e-231
7.693e-233
1.15048e-234
1.63458e-236
2.20049e-238
2.79855e-240
3.35137e-242
3.7653e-244
3.95253e-246
3.85856e-248
3.48445e-250
2.89288e-252
2.19226e-254
1.50355e-256
9.23731e-259
5.01981e-261
2.37473e-263
9.57833e-266
3.20198e-268
8.51632e-271
1.6898e-273
2.22534e-276
1.46518e-279
1.5163e-279
2.36173e-276
1.81366e-273
9.20227e-271
3.47563e-268
1.04308e-265
2.59232e-263
5.48977e-261
1.01162e-258
1.64834e-256
2.40527e-254
3.17581e-252
3.82678e-250
4.23872e-248
4.3425e-246
4.13687e-244
3.68179e-242
3.07394e-240
2.41643e-238
1.79441e-236
1.26249e-234
8.43818e-233
5.37092e-231
3.26281e-229
1.89567e-227
1.05529e-225
5.63865e-224
2.89641e-222
1.43241e-220
6.82953e-219
3.14326e-217
1.39814e-215
6.01691e-214
2.50781e-212
1.01327e-210
3.97243e-209
1.51232e-207
5.59537e-206
2.01343e-204
7.05138e-203
2.40516e-201
7.99544e-200
2.59223e-198
8.20269e-197
2.53529e-195
7.6606e-194
2.2651e-192
6.56126e-191
1.80059e-189
4.20358e-188
8.47069e-187
1.48331e-185
2.26441e-184
3.01857e-183
3.51793e-182
3.58943e-181
3.21296e-180
2.53016e-179
1.75866e-178
1.08255e-177
5.92069e-177
2.88988e-176
1.26748e-175
5.03855e-175
1.82966e-174
6.099e-174
1.87213e-173
5.31081e-173
1.39767e-172
3.4315e-172
7.91009e-172
1.7232e-171
3.56575e-171
7.0253e-171
1.31916e-170
2.36752e-170
4.07283e-170
6.73572e-170
1.07372e-169
1.65338e-169
2.46452e-169
3.56255e-169
5.00425e-169
6.84442e-169
9.12905e-169
1.1882e-168
1.51116e-168
1.8802e-168
2.29106e-168
2.73663e-168
3.20695e-168
3.68951e-168
4.16995e-168
4.6324e-168
5.05468e-168
5.36397e-168
5.20374e-168
3.28675e-168
1.80663e-169
5.82041e-179
6.92632e-176
8.86134e-167
1.33619e-165
2.03238e-165
2.09231e-165
1.98804e-165
1.83896e-165
1.67001e-165
1.49027e-165
1.30668e-165
1.12532e-165
9.51388e-166
7.89085e-166
6.415e-166
5.10677e-166
3.97632e-166
3.02446e-166
2.2462e-166
1.62634e-166
1.14561e-166
7.83457e-167
5.19238e-167
3.32771e-167
2.05754e-167
1.22412e-167
6.98768e-168
3.81704e-168
1.99039e-168
9.90378e-169
4.69315e-169
2.1075e-169
8.90887e-170
3.52103e-170
1.29302e-170
4.3925e-171
1.37564e-171
3.96296e-172
1.04586e-172
2.50896e-173
5.42145e-174
1.04763e-174
1.80248e-175
2.75284e-176
3.72047e-177
4.43629e-178
4.65641e-179
4.29702e-180
3.48597e-181
2.48812e-182
1.56471e-183
8.68496e-185
4.26179e-186
1.85083e-187
7.47977e-189
2.94975e-190
1.13453e-191
4.2535e-193
1.55369e-194
5.5266e-196
1.91344e-197
6.4449e-199
2.11075e-200
6.71792e-202
2.07659e-203
6.23029e-205
1.81302e-206
5.1134e-208
1.3966e-209
3.69065e-211
9.42729e-213
2.32525e-214
5.53172e-216
1.26773e-217
2.79506e-219
5.92011e-221
1.20272e-222
2.33967e-224
4.35013e-226
7.71487e-228
1.3022e-229
2.08691e-231
3.16698e-233
4.53763e-235
6.11838e-237
7.73538e-239
9.13233e-241
1.00211e-242
1.01666e-244
9.47737e-247
8.06005e-249
6.20048e-251
4.27063e-253
2.60047e-255
1.37776e-257
6.22048e-260
2.3265e-262
6.91914e-265
1.53428e-267
2.25653e-270
1.65739e-273
1.73139e-273
2.412e-270
1.65701e-267
7.5192e-265
2.53892e-262
6.80899e-260
1.5115e-257
2.85776e-255
4.69925e-253
6.82948e-251
8.88422e-249
1.04521e-246
1.12163e-244
1.10583e-242
1.00786e-240
8.53692e-239
6.75174e-237
5.00648e-235
3.49333e-233
2.30122e-231
1.43539e-229
8.50019e-228
4.79058e-226
2.57516e-224
1.32298e-222
6.50791e-221
3.07045e-219
1.39161e-217
6.0675e-216
2.54835e-214
1.03227e-212
4.03746e-211
1.52635e-209
5.58275e-208
1.97732e-206
6.78725e-205
2.25958e-203
7.3009e-202
2.29098e-200
6.98579e-199
2.0711e-197
5.97314e-196
1.67662e-194
4.58254e-193
1.22019e-191
3.16672e-190
8.01463e-189
1.97923e-187
4.55288e-186
9.26203e-185
1.6646e-183
2.63872e-182
3.68327e-181
4.52112e-180
4.87688e-179
4.6242e-178
3.85949e-177
2.84236e-176
1.85276e-175
1.07224e-174
5.52648e-174
2.54833e-173
1.05904e-172
4.00274e-172
1.38634e-171
4.41741e-171
1.29792e-170
3.52895e-170
8.91753e-170
2.10732e-169
4.68859e-169
9.88684e-169
1.98575e-168
3.80603e-168
6.96389e-168
1.21943e-167
2.049e-167
3.31324e-167
5.16926e-167
7.79939e-167
1.1405e-166
1.61926e-166
2.23677e-166
3.01235e-166
3.96138e-166
5.08924e-166
6.39568e-166
7.87137e-166
9.49715e-166
1.12438e-165
1.30721e-165
1.49342e-165
1.67764e-165
1.85405e-165
2.01456e-165
2.13211e-165
2.07329e-165
1.34142e-165
8.40635e-167
5.82961e-176
3.38856e-173
2.16208e-164
2.92449e-163
4.36138e-163
4.47052e-163
4.24809e-163
3.93912e-163
3.59218e-163
3.2233e-163
2.84504e-163
2.46902e-163
2.10556e-163
1.76329e-163
1.44887e-163
1.16697e-163
9.20324e-164
7.09795e-164
5.35204e-164
3.93928e-164
2.82421e-164
1.96803e-164
1.33063e-164
8.70915e-165
5.50479e-165
3.35106e-165
1.95922e-165
1.09741e-165
5.87647e-166
3.00921e-166
1.47145e-166
6.83714e-167
2.99857e-167
1.23234e-167
4.71313e-168
1.66908e-168
5.45448e-169
1.64274e-169
4.54503e-170
1.14634e-170
2.60983e-171
5.32088e-172
9.67005e-173
1.56178e-173
2.23438e-174
2.82228e-175
3.1392e-176
3.07045e-177
2.64052e-178
1.99848e-179
1.33363e-180
7.86679e-182
4.11412e-183
1.91372e-184
8.20338e-186
3.42492e-187
1.39216e-188
5.50757e-190
2.11986e-191
7.9355e-193
2.88802e-194
1.02143e-195
3.50923e-197
1.17058e-198
3.78919e-200
1.18959e-201
3.61971e-203
1.06677e-204
3.04265e-206
8.39164e-208
2.2359e-209
5.74948e-211
1.42526e-212
3.40192e-214
7.80821e-216
1.72091e-217
3.63637e-219
7.35447e-221
1.42106e-222
2.61805e-224
4.58878e-226
7.63356e-228
1.20203e-229
1.78646e-231
2.49771e-233
3.2733e-235
4.00446e-237
4.55198e-239
4.78245e-241
4.61559e-243
4.06273e-245
3.23389e-247
2.30407e-249
1.45092e-251
7.9477e-254
3.709e-256
1.43348e-258
4.40441e-261
1.00874e-263
1.53191e-266
1.16142e-269
1.22355e-269
1.65074e-266
1.0981e-263
4.82402e-261
1.57655e-258
4.0913e-256
8.78618e-254
1.60664e-251
2.55455e-249
3.58882e-247
4.51174e-245
5.12823e-243
5.31533e-241
5.06011e-239
4.45173e-237
3.63873e-235
2.77617e-233
1.98517e-231
1.33534e-229
8.477e-228
5.09361e-226
2.90464e-224
1.57576e-222
8.15029e-221
4.02726e-219
1.90458e-217
8.63522e-216
3.75929e-214
1.57368e-212
6.34264e-211
2.4643e-209
9.2399e-208
3.34681e-206
1.17216e-204
3.97288e-203
1.30413e-201
4.14897e-200
1.28009e-198
3.83242e-197
1.11395e-195
3.14501e-194
8.62846e-193
2.30129e-191
5.96893e-190
1.50613e-188
3.69844e-187
8.84133e-186
2.05836e-184
4.41905e-183
8.43218e-182
1.42545e-180
2.12856e-179
2.80074e-178
3.24157e-177
3.29748e-176
2.94916e-175
2.32272e-174
1.6154e-173
9.95436e-173
5.45251e-172
2.66303e-171
1.16528e-170
4.60569e-170
1.6604e-169
5.50058e-169
1.67958e-168
4.73362e-168
1.23574e-167
3.00295e-167
6.83987e-167
1.47072e-166
3.00552e-166
5.86565e-166
1.0948e-165
1.95357e-165
3.34005e-165
5.48508e-165
8.67639e-165
1.32549e-164
1.96038e-164
2.81334e-164
3.92455e-164
5.33291e-164
7.0741e-164
9.17486e-164
1.16378e-163
1.44555e-163
1.76025e-163
2.10342e-163
2.46874e-163
2.848e-163
3.23152e-163
3.60858e-163
3.96781e-163
4.29349e-163
4.53178e-163
4.41491e-163
2.91619e-163
2.05633e-164
2.9163e-173
1.05871e-170
3.39887e-162
4.13757e-161
6.06616e-161
6.20245e-161
5.9007e-161
5.48737e-161
5.02548e-161
4.5341e-161
4.02822e-161
3.52227e-161
3.02951e-161
2.56137e-161
2.12697e-161
1.73315e-161
1.38429e-161
1.08247e-161
8.28654e-162
6.20018e-162
4.52421e-162
3.21248e-162
2.21594e-162
1.48131e-162
9.57181e-163
5.96223e-163
3.57013e-163
2.05028e-163
1.12727e-163
5.93963e-164
2.99647e-164
1.44051e-164
6.55417e-165
2.80097e-165
1.11564e-165
4.1181e-166
1.40391e-166
4.41894e-167
1.28143e-167
3.3974e-168
8.14709e-169
1.75155e-169
3.35979e-170
5.73265e-171
8.6708e-172
1.15819e-172
1.36195e-173
1.40736e-174
1.2773e-175
1.0189e-176
7.15569e-178
4.43534e-179
2.43385e-180
1.18652e-181
5.28539e-183
2.29005e-184
9.64851e-186
3.95195e-187
1.57319e-188
6.08484e-190
2.28604e-191
8.33946e-193
2.95292e-194
1.01447e-195
3.37984e-197
1.09141e-198
3.41395e-200
1.03373e-201
3.02773e-203
8.57086e-205
2.3428e-206
6.17753e-208
1.5696e-209
3.8383e-211
9.02197e-213
2.03546e-214
4.40105e-216
9.1045e-218
1.79875e-219
3.38716e-221
6.06605e-223
1.03073e-224
1.65731e-226
2.51431e-228
3.58742e-230
4.79645e-232
5.98489e-234
6.93715e-236
7.43006e-238
7.30852e-240
6.55511e-242
5.31562e-244
3.85742e-246
2.47359e-248
1.37951e-250
6.55317e-253
2.57761e-255
8.05869e-258
1.8777e-260
2.90053e-263
2.23641e-266
2.37968e-266
3.15661e-263
2.06423e-260
8.91306e-258
2.86251e-255
7.29865e-253
1.53972e-250
2.76525e-248
4.31736e-246
5.95462e-244
7.34772e-242
8.19569e-240
8.3341e-238
7.78208e-236
6.71375e-234
5.37992e-232
4.02295e-230
2.8187e-228
1.85724e-226
1.15455e-224
6.79129e-223
3.78994e-221
2.01138e-219
1.01738e-217
4.91434e-216
2.27108e-214
1.0058e-212
4.27535e-211
1.74672e-209
6.86802e-208
2.60204e-206
9.50925e-205
3.35552e-203
1.14433e-201
3.77467e-200
1.20522e-198
3.72739e-197
1.11726e-195
3.24747e-194
9.15764e-193
2.5064e-191
6.66054e-190
1.7191e-188
4.31077e-187
1.05049e-185
2.48841e-184
5.73142e-183
1.28389e-181
2.62924e-180
4.77978e-179
7.68657e-178
1.09015e-176
1.36028e-175
1.49102e-174
1.43491e-173
1.21328e-172
9.03222e-172
5.93953e-171
3.46343e-170
1.79695e-169
8.32073e-169
3.45608e-168
1.29937e-167
4.4692e-167
1.41661e-166
4.14621e-166
1.121e-165
2.80986e-165
6.56632e-165
1.44164e-164
2.99615e-164
5.93466e-164
1.12564e-163
2.04624e-163
3.56131e-163
5.94514e-163
9.54167e-163
1.47638e-162
2.20837e-162
3.20139e-162
4.50876e-162
6.17967e-162
8.26049e-162
1.07929e-161
1.38061e-161
1.72914e-161
2.12297e-161
2.5579e-161
3.02738e-161
3.52263e-161
4.03262e-161
4.54465e-161
5.04497e-161
5.51921e-161
5.94764e-161
6.26061e-161
6.10853e-161
4.1126e-161
3.2481e-162
9.28717e-171
2.36628e-168
3.80684e-160
4.16796e-159
6.01296e-159
6.13879e-159
5.85129e-159
5.45949e-159
5.02231e-159
4.55633e-159
4.07451e-159
3.58965e-159
3.11388e-159
2.6579e-159
2.23057e-159
1.83881e-159
1.48748e-159
1.17937e-159
9.16684e-160
6.97333e-160
5.17971e-160
3.74837e-160
2.63852e-160
1.8019e-160
1.19066e-160
7.59091e-161
4.65639e-161
2.74226e-161
1.54828e-161
8.39537e-162
4.37051e-162
2.17436e-162
1.02676e-162
4.56526e-163
1.89486e-163
7.29441e-164
2.59532e-164
8.54174e-165
2.59793e-165
7.24687e-166
1.83229e-166
4.15798e-167
8.42625e-168
1.52056e-168
2.43447e-169
3.44321e-170
4.28617e-171
4.68488e-172
4.49207e-173
3.7797e-174
2.79464e-175
1.81977e-176
1.04663e-177
5.33498e-179
2.46643e-180
1.1077e-181
4.83174e-183
2.04662e-184
8.41666e-186
3.35986e-187
1.30161e-188
4.89217e-190
1.78341e-191
6.30326e-193
2.15904e-194
7.16342e-196
2.30089e-197
7.15002e-199
2.14801e-200
6.23351e-202
1.74585e-203
4.71445e-205
1.22613e-206
3.06774e-208
7.37423e-210
1.70069e-211
3.75742e-213
7.9394e-215
1.60154e-216
3.07812e-218
5.6246e-220
9.74816e-222
1.59824e-223
2.47168e-225
3.59391e-227
4.89551e-229
6.2218e-231
7.3437e-233
8.00748e-235
8.01684e-237
7.31691e-239
6.03645e-241
4.4557e-243
2.9057e-245
1.64765e-247
7.95666e-250
3.18093e-252
1.01061e-254
2.39248e-257
3.7543e-260
2.94006e-263
3.16456e-263
4.13242e-260
2.65991e-257
1.13029e-254
3.57183e-252
8.95962e-250
1.85914e-247
3.2836e-245
5.04072e-243
6.83441e-241
8.2886e-239
9.08454e-237
9.07546e-235
8.32333e-233
7.05106e-231
5.54682e-229
4.07079e-227
2.79854e-225
1.80874e-223
1.1026e-221
6.358e-220
3.47713e-218
1.80782e-216
8.95492e-215
4.23446e-213
1.91491e-211
8.29526e-210
3.4475e-208
1.3765e-206
5.28689e-205
1.95564e-203
6.97442e-202
2.40041e-200
7.98009e-199
2.56464e-197
7.97366e-196
2.39983e-194
6.99585e-193
1.9763e-191
5.41257e-190
1.43764e-188
3.70445e-187
9.2628e-186
2.24803e-184
5.29652e-183
1.21168e-181
2.69201e-180
5.80947e-179
1.13751e-177
1.97225e-176
3.01772e-175
4.06313e-174
4.80384e-173
4.98121e-172
4.52945e-171
3.616e-170
2.54108e-169
1.57802e-168
8.6979e-168
4.27038e-167
1.87292e-166
7.37687e-166
2.63582e-165
8.64369e-165
2.62017e-164
7.34758e-164
1.9047e-163
4.58131e-163
1.029e-162
2.17679e-162
4.37148e-162
8.39114e-162
1.54657e-161
2.73778e-161
4.64644e-161
7.57173e-161
1.18732e-160
1.79653e-160
2.63041e-160
3.7367e-160
5.16372e-160
6.95251e-160
9.14087e-160
1.17626e-159
1.48393e-159
1.83501e-159
2.22683e-159
2.6547e-159
3.1119e-159
3.58981e-159
4.07799e-159
4.56463e-159
5.0372e-159
5.48292e-159
5.88415e-159
6.17661e-159
6.03459e-159
4.13758e-159
3.6564e-160
2.10805e-168
4.02112e-166
3.2084e-158
3.15234e-157
4.47589e-157
4.56485e-157
4.36143e-157
4.08421e-157
3.77468e-157
3.44381e-157
3.10002e-157
2.75188e-157
2.40765e-157
2.07484e-157
1.75983e-157
1.4678e-157
1.20263e-157
9.66904e-158
7.63188e-158
5.90375e-158
4.46496e-158
3.29388e-158
2.36686e-158
1.65194e-158
1.1167e-158
7.2898e-159
4.58271e-159
2.76863e-159
1.60571e-159
8.96272e-160
4.81641e-160
2.48087e-160
1.21655e-160
5.63188e-161
2.43795e-161
9.79562e-162
3.64007e-162
1.25365e-162
4.00308e-163
1.17636e-163
3.1404e-164
7.53267e-165
1.61511e-165
3.08763e-166
5.24277e-167
7.86822e-168
1.03916e-168
1.20428e-169
1.22293e-170
1.0881e-171
8.49124e-173
5.82277e-174
3.518e-175
1.87877e-176
9.03902e-178
4.21878e-179
1.90995e-180
8.38659e-182
3.57134e-183
1.47471e-184
5.90407e-186
2.29127e-187
8.61736e-189
3.13983e-190
1.10791e-191
3.78409e-193
1.25039e-194
3.99466e-196
1.233e-197
3.67408e-199
1.05599e-200
2.92472e-202
7.79763e-204
1.99892e-205
4.92087e-207
1.16173e-208
2.62625e-210
5.67583e-212
1.1706e-213
2.29947e-215
4.29294e-217
7.59916e-219
1.27212e-220
2.00812e-222
2.97957e-224
4.14049e-226
5.36689e-228
6.45897e-230
7.17926e-232
7.3252e-234
6.81204e-236
5.7249e-238
4.30375e-240
2.85783e-242
1.64975e-244
8.10898e-247
3.29905e-249
1.06644e-251
2.5683e-254
4.09909e-257
3.2643e-260
3.55884e-260
4.56918e-257
2.8912e-254
1.20756e-251
3.75007e-249
9.24255e-247
1.88403e-244
3.26824e-242
4.92672e-240
6.55811e-238
7.8069e-236
8.397e-234
8.23027e-232
7.40396e-230
6.15085e-228
4.74382e-226
3.41233e-224
2.29864e-222
1.45531e-220
8.68778e-219
4.90438e-217
2.62491e-215
1.33514e-213
6.46776e-212
2.98981e-210
1.32121e-208
5.59044e-207
2.26839e-205
8.83848e-204
3.31111e-202
1.194e-200
4.14882e-199
1.39043e-197
4.49842e-196
1.40603e-194
4.24873e-193
1.24201e-191
3.51418e-190
9.62855e-189
2.55565e-187
6.57326e-186
1.63872e-184
3.96058e-183
9.28116e-182
2.10904e-180
4.64784e-179
9.93441e-178
2.0597e-176
3.84809e-175
6.34865e-174
9.21961e-173
1.17548e-171
1.31347e-170
1.28519e-169
1.10153e-168
8.28377e-168
5.48332e-167
3.20945e-166
1.66935e-165
7.74431e-165
3.21255e-164
1.19817e-163
4.06357e-163
1.26926e-162
3.67669e-162
9.8711e-162
2.45143e-161
5.65332e-161
1.21955e-160
2.48434e-160
4.81887e-160
8.96084e-160
1.60441e-159
2.76492e-159
4.57425e-159
7.27348e-159
1.11389e-158
1.64749e-158
2.36025e-158
3.28452e-158
4.45236e-158
5.88761e-158
7.61206e-158
9.64556e-158
1.19997e-157
1.46497e-157
1.75704e-157
2.0724e-157
2.40597e-157
2.75149e-157
3.10158e-157
3.44808e-157
3.7825e-157
4.09634e-157
4.37788e-157
4.58251e-157
4.48248e-157
3.12851e-157
3.09588e-158
3.62683e-166
5.38696e-164
2.10031e-156
1.84632e-155
2.57996e-155
2.62911e-155
2.51865e-155
2.3677e-155
2.19883e-155
2.01765e-155
1.82842e-155
1.63553e-155
1.44334e-155
1.25587e-155
1.07664e-155
9.08616e-156
7.54131e-156
6.14903e-156
4.92964e-156
3.87873e-156
2.98758e-156
2.24749e-156
1.64926e-156
1.17697e-156
8.14373e-157
5.44643e-157
3.51078e-157
2.17691e-157
1.29744e-157
7.45801e-158
4.13895e-158
2.20841e-158
1.12537e-158
5.4291e-159
2.45357e-159
1.03e-159
4.00119e-160
1.44338e-160
4.84436e-161
1.5019e-161
4.24022e-162
1.07678e-162
2.44687e-163
4.96507e-164
8.96095e-165
1.43046e-165
2.00961e-166
2.47605e-167
2.67063e-168
2.52029e-169
2.08222e-170
1.50839e-171
9.60359e-173
5.38993e-174
2.70784e-175
1.31769e-176
6.21091e-178
2.83563e-179
1.25401e-180
5.37161e-182
2.22859e-183
8.9541e-185
3.48333e-186
1.31168e-187
4.77929e-189
1.68428e-190
5.7379e-192
1.88854e-193
6.00124e-195
1.83981e-196
5.43702e-198
1.5474e-199
4.23702e-201
1.11493e-202
2.81601e-204
6.8177e-206
1.57987e-207
3.49853e-209
7.39037e-211
1.48636e-212
2.84011e-214
5.14377e-216
8.80725e-218
1.42155e-219
2.15603e-221
3.06168e-223
4.05431e-225
4.98344e-227
5.65596e-229
5.89114e-231
5.59124e-233
4.79458e-235
3.67692e-237
2.4902e-239
1.46584e-241
7.34545e-244
3.04606e-246
1.00346e-248
2.46228e-251
4.00338e-254
3.24702e-257
3.59042e-257
4.52497e-254
2.8102e-251
1.15179e-248
3.50944e-246
8.48476e-244
1.69629e-241
2.8854e-239
4.26423e-237
5.56361e-235
6.49019e-233
6.83917e-231
6.56584e-229
5.78403e-227
4.70416e-225
3.5509e-223
2.49923e-221
1.64682e-219
1.01958e-217
5.95012e-216
3.28255e-214
1.71635e-212
8.5256e-211
4.03177e-209
1.81868e-207
7.83929e-206
3.23409e-204
1.27885e-202
4.85362e-201
1.77018e-199
6.21102e-198
2.09866e-196
6.83521e-195
2.14762e-193
6.51454e-192
1.90906e-190
5.40781e-189
1.48153e-187
3.92714e-186
1.00756e-184
2.50272e-183
6.01979e-182
1.40227e-180
3.16363e-179
6.91274e-178
1.46291e-176
2.99837e-175
5.95187e-174
1.0577e-172
1.65516e-171
2.27403e-170
2.73683e-169
2.88131e-168
2.65252e-167
2.13694e-166
1.50982e-165
9.39072e-165
5.16905e-164
2.53222e-163
1.10814e-162
4.34081e-162
1.53056e-161
4.91987e-161
1.46203e-160
4.04325e-160
1.03833e-159
2.46785e-159
5.45114e-159
1.12842e-158
2.21207e-158
4.14214e-158
7.45842e-158
1.29674e-157
2.17457e-157
3.5052e-157
5.43562e-157
8.12525e-157
1.1741e-156
1.64506e-156
2.24164e-156
2.97983e-156
3.86894e-156
4.91776e-156
6.13507e-156
7.5256e-156
9.06943e-156
1.07497e-155
1.25435e-155
1.44216e-155
1.63493e-155
1.82867e-155
2.01904e-155
2.20165e-155
2.37218e-155
2.52463e-155
2.63505e-155
2.58033e-155
1.83275e-155
2.03489e-156
4.90777e-164
5.82082e-162
1.08792e-154
8.52562e-154
1.17229e-153
1.19378e-153
1.14689e-153
1.08251e-153
1.0103e-153
9.32505e-154
8.508e-154
7.66955e-154
6.82754e-154
5.99884e-154
5.19851e-154
4.43967e-154
3.73313e-154
3.0875e-154
2.51461e-154
2.01299e-154
1.5796e-154
1.21217e-154
9.0885e-155
6.63544e-155
4.70237e-155
3.22415e-155
2.13252e-155
1.35803e-155
8.32252e-156
4.92927e-156
2.82665e-156
1.5633e-156
8.28494e-157
4.16936e-157
1.96947e-157
8.64854e-158
3.516e-158
1.32998e-158
4.69804e-159
1.53918e-159
4.60388e-160
1.23997e-160
2.99174e-161
6.45729e-162
1.24172e-162
2.11398e-163
3.16795e-164
4.16219e-165
4.78322e-166
4.80341e-167
4.21578e-168
3.23745e-169
2.1797e-170
1.29015e-171
6.79247e-173
3.45801e-174
1.70252e-175
8.10765e-177
3.73499e-178
1.66461e-179
7.17743e-181
2.9938e-182
1.20783e-183
4.71206e-185
1.77707e-186
6.47613e-188
2.27953e-189
7.74566e-191
2.53915e-192
8.02475e-194
2.44313e-195
7.15896e-197
2.01707e-198
5.45867e-200
1.4172e-201
3.52523e-203
8.38927e-205
1.90702e-206
4.13357e-208
8.52713e-210
1.6706e-211
3.10116e-213
5.44052e-215
8.99453e-217
1.39686e-218
2.03053e-220
2.75166e-222
3.46031e-224
4.01684e-226
4.27819e-228
4.15091e-230
3.63796e-232
2.85078e-234
1.97237e-236
1.18583e-238
6.06798e-241
2.56901e-243
8.63853e-246
2.16324e-248
3.58867e-251
2.96916e-254
3.33491e-254
4.11902e-251
2.50665e-248
1.00655e-245
3.00416e-243
7.11319e-241
1.39244e-238
2.31871e-236
3.3539e-234
4.28193e-232
4.88668e-230
5.03651e-228
4.72804e-226
4.07168e-224
3.2364e-222
2.38691e-220
1.64095e-218
1.05584e-216
6.38116e-215
3.63404e-213
1.95575e-211
9.97215e-210
4.82868e-208
2.2251e-206
9.77647e-205
4.10283e-203
1.64719e-201
6.33559e-200
2.33768e-198
8.28429e-197
2.82272e-195
9.25645e-194
2.92394e-192
8.90389e-191
2.61567e-189
7.41728e-188
2.03141e-186
5.37581e-185
1.37515e-183
3.40132e-182
8.13658e-181
1.88277e-179
4.21442e-178
9.12554e-177
1.91125e-175
3.87128e-174
7.5823e-173
1.43582e-171
2.41842e-170
3.57681e-169
4.6327e-168
5.24472e-167
5.18496e-166
4.47654e-165
3.37959e-164
2.23698e-163
1.30385e-162
6.7329e-162
3.0999e-161
1.2773e-160
4.71631e-160
1.5693e-159
4.77328e-159
1.34776e-158
3.55444e-158
8.72142e-158
1.98144e-157
4.18718e-157
8.30918e-157
1.56625e-156
2.82951e-156
4.93075e-156
8.32007e-156
1.3569e-155
2.12963e-155
3.21849e-155
4.69278e-155
6.62072e-155
9.06736e-155
1.20928e-154
1.57581e-154
2.00827e-154
2.50895e-154
3.08088e-154
3.7257e-154
4.43173e-154
5.19046e-154
5.99123e-154
6.82107e-154
7.66501e-154
8.50626e-154
9.32699e-154
1.01094e-153
1.08364e-153
1.14842e-153
1.19513e-153
1.17148e-153
8.46652e-154
1.05777e-154
5.34769e-162
5.1482e-160
4.50222e-153
3.13186e-152
4.23698e-152
4.31198e-152
4.155e-152
3.93812e-152
3.69415e-152
3.43016e-152
3.15128e-152
2.86309e-152
2.57136e-152
2.28161e-152
1.99891e-152
1.72778e-152
1.47209e-152
1.23515e-152
1.02222e-152
8.32806e-153
6.65993e-153
5.21556e-153
3.99767e-153
2.98793e-153
2.17044e-153
1.52698e-153
1.03726e-153
6.78991e-154
4.282e-154
2.61501e-154
1.55055e-154
8.89519e-155
4.90709e-155
2.57896e-155
1.27506e-155
5.86553e-156
2.49891e-156
9.9249e-157
3.69544e-157
1.28176e-157
4.0701e-158
1.16493e-158
2.99036e-159
6.88136e-160
1.41367e-160
2.57407e-161
4.12718e-162
5.80067e-163
7.12661e-164
7.64257e-165
7.15173e-166
5.84394e-167
4.17665e-168
2.61708e-169
1.4494e-170
7.74743e-172
3.99819e-173
1.99269e-174
9.5938e-176
4.4625e-177
2.0055e-178
8.70787e-180
3.65258e-181
1.47984e-182
5.78963e-184
2.18663e-185
7.96928e-187
2.80144e-188
9.49333e-190
3.09922e-191
9.7401e-193
2.94434e-194
8.55299e-196
2.38507e-197
6.37721e-199
1.63287e-200
3.99804e-202
9.34633e-204
2.08251e-205
4.41431e-207
8.88304e-209
1.6931e-210
3.04868e-212
5.1715e-214
8.23792e-216
1.22791e-217
1.70574e-219
2.19822e-221
2.61432e-223
2.85192e-225
2.83344e-227
2.54222e-229
2.03892e-231
1.44347e-233
8.8782e-236
4.64659e-238
2.01165e-240
6.91564e-243
1.77016e-245
3.001e-248
2.53681e-251
2.89919e-251
3.50374e-248
2.08601e-245
8.19341e-243
2.39153e-240
5.53674e-238
1.05953e-235
1.72439e-233
2.43723e-231
3.0398e-229
3.38823e-227
3.40986e-225
3.12481e-223
2.62625e-221
2.03669e-219
1.46513e-217
9.82159e-216
6.1602e-214
3.62799e-212
2.01269e-210
1.05479e-208
5.23538e-207
2.46674e-205
1.1056e-203
4.72281e-202
1.92607e-200
7.51095e-199
2.80466e-197
1.00413e-195
3.45082e-194
1.13956e-192
3.6194e-191
1.10659e-189
3.25913e-188
9.25267e-187
2.53349e-185
6.69361e-184
1.7071e-182
4.20387e-181
9.99848e-180
2.29712e-178
5.0985e-177
1.09324e-175
2.26454e-174
4.53061e-173
8.75263e-172
1.63225e-170
2.93741e-169
4.67119e-168
6.50413e-167
7.91106e-166
8.39318e-165
7.76348e-164
6.26449e-163
4.41757e-162
2.73094e-161
1.48734e-160
7.18587e-160
3.10216e-159
1.2011e-158
4.1721e-158
1.30739e-157
3.75604e-157
1.00617e-156
2.52722e-156
5.91677e-156
1.28309e-155
2.59046e-155
4.92239e-155
8.91382e-155
1.55245e-154
2.61639e-154
4.28174e-154
6.78581e-154
1.03609e-153
1.52463e-153
2.16648e-153
2.98194e-153
3.9892e-153
5.20412e-153
6.64518e-153
8.30995e-153
1.02007e-152
1.23264e-152
1.46928e-152
1.72476e-152
1.99581e-152
2.27859e-152
2.5686e-152
2.86082e-152
3.14971e-152
3.4295e-152
3.69455e-152
3.93965e-152
4.15733e-152
4.31341e-152
4.23188e-152
3.11174e-152
4.39118e-153
4.76395e-160
3.76103e-158
1.49265e-151
9.16998e-151
1.22044e-150
1.24136e-150
1.19991e-150
1.14217e-150
1.07702e-150
1.00619e-150
9.30909e-151
8.52554e-151
7.7258e-151
6.92412e-151
6.13374e-151
5.36682e-151
4.63411e-151
3.94538e-151
3.31893e-151
2.75275e-151
2.24427e-151
1.79436e-151
1.40694e-151
1.07736e-151
8.02946e-152
5.80277e-152
4.05313e-152
2.73045e-152
1.77387e-152
1.11804e-152
6.86072e-153
4.08623e-153
2.3489e-153
1.29089e-153
6.69081e-154
3.23003e-154
1.4445e-154
6.0335e-155
2.3721e-155
8.72853e-156
2.94917e-156
8.99039e-157
2.46095e-157
6.05354e-158
1.33249e-158
2.6031e-159
4.48021e-160
6.75925e-161
8.91022e-162
1.0243e-162
1.02603e-163
8.95747e-165
6.82376e-166
4.54527e-167
2.65878e-168
1.49812e-169
8.13521e-171
4.25904e-172
2.15023e-173
1.04705e-174
4.91828e-176
2.22874e-177
9.74352e-179
4.10921e-180
1.6716e-181
6.55759e-183
2.48006e-184
9.03885e-186
3.1731e-187
1.07231e-188
3.48592e-190
1.08928e-191
3.26881e-193
9.41094e-195
2.59645e-196
6.85624e-198
1.73041e-199
4.16776e-201
9.56338e-203
2.08672e-204
4.32077e-206
8.47053e-208
1.56823e-209
2.73419e-211
4.47504e-213
6.85129e-215
9.77264e-217
1.2928e-218
1.57783e-220
1.76587e-222
1.79944e-224
1.6555e-226
1.36114e-228
9.87621e-231
6.22427e-233
3.33718e-235
1.47973e-237
5.20901e-240
1.365e-242
2.36859e-245
2.04883e-248
2.38725e-248
2.81845e-245
1.63904e-242
6.28717e-240
1.79183e-237
4.04963e-235
7.5635e-233
1.20114e-230
1.65617e-228
2.01465e-226
2.18961e-224
2.14813e-222
1.91849e-220
1.57097e-218
1.18666e-216
8.31216e-215
5.42404e-213
3.31053e-211
1.89663e-209
1.02318e-207
5.21244e-206
2.5139e-204
1.15046e-202
5.0062e-201
2.07526e-199
8.20916e-198
3.10352e-196
1.1229e-194
3.89318e-193
1.29489e-191
4.13582e-190
1.26965e-188
3.74922e-187
1.06569e-185
2.91747e-184
7.69629e-183
1.95716e-181
4.79924e-180
1.13504e-178
2.58937e-177
5.69831e-176
1.20964e-174
2.47683e-173
4.89107e-172
9.31309e-171
1.70938e-169
3.02317e-168
5.14914e-167
7.69823e-166
1.00487e-164
1.14301e-163
1.13182e-162
9.75696e-162
7.33096e-161
4.81185e-160
2.76904e-159
1.40469e-158
6.33068e-158
2.55589e-157
9.27763e-157
3.02479e-156
8.90614e-156
2.41179e-155
6.11895e-155
1.46138e-154
3.25911e-154
6.73413e-154
1.29684e-153
2.35661e-153
4.09558e-153
6.87056e-153
1.11887e-152
1.77415e-152
2.7294e-152
4.04938e-152
5.79505e-152
8.01646e-152
1.07542e-151
1.40424e-151
1.79076e-151
2.23969e-151
2.74721e-151
3.3124e-151
3.93781e-151
4.62559e-151
5.35766e-151
6.12422e-151
6.9146e-151
7.71673e-151
8.51736e-151
9.30222e-151
1.00567e-150
1.0767e-150
1.14205e-150
1.1999e-150
1.24108e-150
1.2186e-150
9.11605e-151
1.45995e-151
3.50253e-158
2.28044e-156
3.94963e-150
2.12977e-149
2.78814e-149
2.83466e-149
2.749e-149
2.62841e-149
2.49184e-149
2.34267e-149
2.1831e-149
2.01575e-149
1.84347e-149
1.66911e-149
1.49535e-149
1.32472e-149
1.15952e-149
1.00195e-149
8.56983e-150
7.23888e-150
6.01914e-150
4.91571e-150
3.94584e-150
3.09847e-150
2.37213e-150
1.76348e-150
1.26859e-150
8.80936e-151
5.90465e-151
3.84598e-151
2.44525e-151
1.51367e-151
9.07749e-152
5.22447e-152
2.84424e-152
1.44413e-152
6.79399e-153
2.99038e-153
1.24397e-153
4.86762e-154
1.75465e-154
5.71201e-155
1.67166e-155
4.40859e-156
1.04323e-156
2.19416e-157
4.06823e-158
6.61324e-159
9.39094e-160
1.16206e-160
1.25137e-161
1.17235e-162
9.56222e-164
6.8014e-165
4.22879e-166
2.5223e-167
1.44671e-168
7.98238e-170
4.23858e-171