/*--------------------------------*- C++ -*----------------------------------*\
| =========                 |                                                 |
| \\      /  F ield         | OpenFOAM: The Open Source CFD Toolbox           |
|  \\    /   O peration     | Version:  2412                                  |
|   \\  /    A nd           | Website:  www.openfoam.com                      |
|    \\/     M anipulation  |                                                 |
\*---------------------------------------------------------------------------*/
FoamFile
{
    version     2.0;
    format      ascii;
    arch        "LSB;label=32;scalar=64";
    class       surfaceScalarField;
    location    "1.3";
    object      alphaPhi0.water;
}
// * * * * * * * * * * * * * * * * * * * * * * * * * * * * * * * * * * * * * //

dimensions      [0 3 -1 0 0 0 0];

oriented        oriented;

internalField   nonuniform List<scalar> 
79600
(
1.05485e-193
-4.19742e-190
3.29647e-183
-4.00534e-180
1.34598e-181
-9.0318e-179
3.38731e-181
-1.52183e-178
4.84286e-181
-1.61159e-178
5.85296e-181
-1.54015e-178
6.52423e-181
-1.41931e-178
6.88468e-181
-1.2776e-178
6.95615e-181
-1.12662e-178
6.7718e-181
-9.73948e-179
6.37503e-181
-8.25383e-179
5.81612e-181
-6.8541e-179
5.14843e-181
-5.5735e-179
4.42407e-181
-4.43394e-179
3.69057e-181
-3.4472e-179
2.98771e-181
-2.61593e-179
2.3457e-181
-1.93498e-179
1.78567e-181
-1.3942e-179
1.31663e-181
-9.76983e-180
9.38763e-182
-6.64459e-180
6.46167e-182
-4.3768e-180
4.28689e-182
-2.78697e-180
2.73636e-182
-1.71184e-180
1.67715e-182
-1.01192e-180
9.84607e-183
-5.74118e-181
5.52065e-183
-3.11686e-181
2.94765e-183
-1.61442e-181
1.49413e-183
-7.95489e-182
7.17946e-184
-3.72466e-182
3.26091e-184
-1.65294e-182
1.39265e-184
-6.91599e-183
5.55621e-185
-2.7099e-183
2.05825e-185
-9.8776e-184
7.04415e-186
-3.32974e-184
2.21943e-186
-1.03371e-184
6.4137e-187
-2.94409e-185
1.69304e-187
-7.66587e-186
4.0573e-188
-1.81491e-186
8.75106e-189
-3.8736e-187
1.68402e-189
-7.38353e-188
2.87217e-190
-1.24738e-188
4.32151e-191
-1.85769e-189
5.7124e-192
-2.42741e-190
6.60345e-193
-2.76854e-191
6.64286e-194
-2.74014e-192
5.78631e-195
-2.33858e-193
4.34119e-196
-1.70837e-194
2.78697e-197
-1.05763e-195
1.51612e-198
-5.46034e-197
6.87024e-200
-2.27917e-198
2.50406e-201
-7.13878e-200
6.71453e-203
-1.26534e-201
1.19136e-204
3.70923e-208
2.10048e-206
2.82972e-209
3.6736e-208
8.79342e-211
6.36517e-210
2.19591e-212
1.09102e-211
4.92754e-214
1.8462e-213
1.0332e-215
3.07629e-215
2.05897e-217
5.03363e-217
3.93098e-219
8.06713e-219
7.219e-221
1.26354e-220
1.27794e-222
1.93078e-222
2.18344e-224
2.87437e-224
3.60335e-226
4.16408e-226
5.7465e-228
5.86441e-228
8.85795e-230
8.02127e-230
1.3198e-231
1.06452e-231
1.90046e-233
1.36935e-233
2.64387e-235
1.70551e-235
3.55161e-237
2.05428e-237
4.60375e-239
2.38989e-239
5.75343e-241
2.68173e-241
6.92526e-243
2.89816e-243
8.0195e-245
3.01165e-245
8.92289e-247
3.00402e-247
9.5256e-249
2.87078e-249
9.74124e-251
2.62302e-251
9.52585e-253
2.28634e-253
8.89028e-255
1.89649e-255
7.90171e-257
1.49303e-257
6.67267e-259
1.11225e-259
5.33974e-261
7.81502e-262
4.03762e-263
5.16005e-264
2.87549e-265
3.18848e-266
1.92178e-267
1.83524e-268
1.20041e-269
9.78723e-271
6.97562e-272
4.80631e-273
3.7511e-274
2.15786e-275
1.85522e-276
8.78188e-278
8.37859e-279
3.2066e-280
3.42605e-281
1.03731e-282
1.25548e-283
2.92586e-285
4.07144e-286
7.0479e-288
1.14997e-288
1.40947e-290
2.77083e-291
2.24668e-293
5.53656e-294
2.67715e-296
8.80784e-297
2.12308e-299
1.04626e-299
8.46453e-303
8.26096e-303
7.69559e-308
3.27364e-306
-8.44237e-303
3.29647e-306
-2.2036e-299
8.63605e-303
-2.82753e-296
1.11177e-299
-2.39742e-293
9.44955e-297
-1.51438e-290
5.97801e-294
-7.60954e-288
3.0054e-291
-3.17042e-285
1.25152e-288
-1.12707e-282
4.44209e-286
-3.49134e-280
1.37237e-283
-9.57693e-278
3.75033e-281
-2.35607e-275
9.18152e-279
-5.25258e-273
2.03465e-276
-1.0703e-270
4.1163e-274
-2.00787e-268
7.65767e-272
-3.48935e-266
1.31806e-269
-5.64758e-264
2.11026e-267
-8.55317e-262
3.15737e-265
-1.21713e-259
4.43276e-263
-1.63339e-257
5.86078e-261
-2.07405e-255
7.32109e-259
-2.49929e-253
8.66562e-257
-2.86583e-251
9.74469e-255
-3.13463e-249
1.04353e-252
-3.2779e-247
1.06644e-250
-3.28376e-245
1.04207e-248
-3.15744e-243
9.75355e-247
-2.91904e-241
8.7585e-245
-2.59887e-239
7.55655e-243
-2.2316e-237
6.27182e-241
-1.85067e-235
5.01335e-239
-1.48412e-233
3.86337e-237
-1.15226e-231
2.87266e-235
-8.67048e-230
2.06243e-233
-6.32975e-228
1.43045e-231
-4.4875e-226
9.58756e-230
-3.09254e-224
6.21082e-228
-2.07379e-222
3.88873e-226
-1.35477e-220
2.35295e-224
-8.63456e-219
1.37515e-222
-5.37852e-217
7.75634e-221
-3.28165e-215
4.21746e-219
-1.96622e-213
2.20635e-217
-1.15996e-211
1.10606e-215
-6.75422e-210
5.2707e-214
-3.88917e-208
2.34757e-212
-2.21764e-206
9.40212e-211
-1.2539e-204
3.03661e-209
-7.04384e-203
4.17299e-208
-2.63694e-201
-1.30488e-201
-7.23503e-200
-7.48388e-200
-1.59395e-198
-2.39463e-198
-2.92222e-197
-5.73179e-197
-4.53665e-196
-1.10776e-195
-6.0239e-195
-1.78378e-194
-6.88745e-194
-2.43295e-193
-6.81789e-193
-2.8395e-192
-5.87347e-192
-2.85709e-191
-4.42557e-191
-2.49479e-190
-2.92999e-190
-1.90169e-189
-1.71161e-189
-1.27201e-188
-8.86473e-189
-7.50205e-188
-4.09813e-188
-3.92291e-187
-1.70585e-187
-1.83278e-186
-6.44809e-187
-7.72258e-186
-2.22687e-186
-2.95957e-185
-7.05529e-186
-1.03708e-184
-2.0585e-185
-3.33459e-184
-5.55009e-185
-9.87754e-184
-1.38972e-184
-2.7067e-183
-3.25131e-184
-6.90116e-183
-7.15325e-184
-1.64799e-182
-1.48775e-183
-3.71079e-182
-2.93335e-183
-7.92027e-182
-5.49068e-183
-1.60641e-181
-9.78769e-183
-3.09949e-181
-1.66656e-182
-5.7063e-181
-2.71845e-182
-1.00538e-180
-4.2584e-182
-1.70037e-180
-6.41872e-182
-2.76792e-180
-9.32604e-182
-4.34651e-180
-1.30816e-181
-6.59872e-180
-1.77446e-181
-9.70298e-180
-2.33132e-181
-1.3847e-179
-2.96992e-181
-1.92187e-179
-3.66943e-181
-2.59839e-179
-4.40021e-181
-3.42447e-179
-5.12306e-181
-4.40545e-179
-5.79122e-181
-5.53903e-179
-6.35339e-181
-6.81401e-179
-6.75744e-181
-8.20925e-179
-6.95508e-181
-9.69398e-179
-6.90693e-181
-1.12283e-178
-6.58598e-181
-1.27646e-178
-5.97428e-181
-1.42495e-178
-5.02816e-181
-1.56042e-178
-3.57603e-181
-1.65615e-178
-1.41207e-181
-1.58479e-178
-3.2154e-183
-9.32598e-179
-8.49085e-194
-3.86349e-180
-3.42545e-190
1.49338e-189
-1.8735e-186
1.32755e-179
-6.19788e-177
4.1877e-178
-1.16854e-175
9.69826e-178
-1.88522e-175
1.33767e-177
-1.97033e-175
1.58895e-177
-1.87754e-175
1.75816e-177
-1.73388e-175
1.85231e-177
-1.56833e-175
1.87509e-177
-1.39195e-175
1.83318e-177
-1.21255e-175
1.73626e-177
-1.03651e-175
1.59616e-177
-8.69026e-176
1.42578e-177
-7.14146e-176
1.23806e-177
-5.74717e-176
1.04507e-177
-4.52473e-176
8.57271e-178
-3.48093e-176
6.82931e-178
-2.61332e-176
5.28302e-178
-1.91368e-176
3.96428e-178
-1.3647e-176
2.88075e-178
-9.45748e-177
2.02374e-178
-6.35562e-177
1.37224e-178
-4.13406e-177
8.96457e-179
-2.59693e-177
5.63072e-179
-1.57171e-177
3.3921e-179
-9.13965e-178
1.95451e-179
-5.09164e-178
1.07422e-179
-2.70997e-178
5.61656e-180
-1.37449e-178
2.79111e-180
-6.64001e-179
1.31521e-180
-3.04889e-179
5.84706e-181
-1.32383e-179
2.43662e-181
-5.39859e-180
9.45736e-182
-2.05322e-180
3.4e-182
-7.23596e-181
1.12779e-182
-2.35196e-181
3.43972e-183
-7.02457e-182
9.61692e-184
-1.92285e-182
2.4525e-184
-4.80216e-183
5.65964e-185
-1.08517e-183
1.17169e-185
-2.19728e-184
2.16164e-186
-3.9548e-185
3.53874e-187
-6.29354e-186
5.12395e-188
-8.81697e-187
6.54082e-189
-1.08231e-187
7.33731e-190
-1.15806e-188
7.2138e-191
-1.07432e-189
6.20437e-192
-8.5923e-191
4.66221e-193
-5.88395e-192
3.05768e-194
-3.41452e-193
1.74755e-195
-1.64789e-194
8.67697e-197
-6.34543e-196
3.71827e-198
-1.72552e-197
1.35562e-199
-1.40315e-199
4.66706e-201
5.44398e-204
1.57258e-202
4.23195e-205
5.18046e-204
2.19097e-206
1.6668e-205
9.64157e-208
5.23329e-207
3.85222e-209
1.6021e-208
1.43598e-210
4.77858e-210
5.06296e-212
1.38767e-211
1.70144e-213
3.92045e-213
5.4752e-215
1.0768e-214
1.69203e-216
2.87312e-216
5.03073e-218
7.44143e-218
1.44061e-219
1.86932e-219
3.97575e-221
4.55041e-221
1.05769e-222
1.07239e-222
2.71238e-224
2.44428e-224
6.70314e-226
5.3824e-226
1.59566e-227
1.14373e-227
3.65647e-229
2.34232e-229
8.05924e-231
4.61698e-231
1.70698e-232
8.74635e-233
3.47048e-234
1.58989e-234
6.76462e-236
2.76842e-236
1.26236e-237
4.60912e-238
2.25183e-239
7.32227e-240
3.83312e-241
1.10753e-241
6.21452e-243
1.59109e-243
9.57604e-245
2.16525e-245
1.39919e-246
2.78302e-247
1.93358e-248
3.36745e-249
2.51994e-250
3.82187e-251
3.08721e-252
4.05188e-253
3.54267e-254
3.99413e-255
3.79244e-256
3.64136e-257
3.76987e-258
3.05148e-259
3.46147e-260
2.33369e-261
2.91787e-262
1.61497e-263
2.24199e-264
1.00096e-265
1.55696e-266
5.48669e-268
9.67277e-269
2.61774e-270
5.30856e-271
1.06471e-272
2.53299e-273
3.58864e-275
1.02919e-275
9.62238e-278
3.46153e-278
1.92462e-280
9.25143e-281
2.55484e-283
1.84234e-283
1.69582e-286
2.43207e-286
1.64971e-291
1.60321e-289
-1.7466e-286
1.65914e-289
-2.7013e-283
2.58115e-286
-2.05897e-280
1.97739e-283
-1.03667e-277
9.99682e-281
-3.88464e-275
3.7575e-278
-1.15646e-272
1.12085e-275
-2.85056e-270
2.76531e-273
-5.98618e-268
5.80612e-271
-1.09369e-265
1.05942e-268
-1.76656e-263
1.70708e-266
-2.55492e-261
2.46013e-264
-3.34287e-259
3.20366e-262
-3.99087e-257
3.80209e-260
-4.37879e-255
4.14196e-258
-4.4428e-253
4.16737e-256
-4.19078e-251
3.89307e-254
-3.69227e-249
3.39239e-252
-3.05101e-247
2.76865e-250
-2.37319e-245
2.12395e-248
-1.74335e-243
1.5365e-246
-1.21306e-241
1.05119e-244
-8.01644e-240
6.81898e-243
-5.04356e-238
4.20394e-241
-3.02768e-236
2.46835e-239
-1.73771e-234
1.38293e-237
-9.55322e-233
7.40606e-236
-5.03929e-231
3.79702e-234
-2.55459e-229
1.86625e-232
-1.24636e-227
8.80454e-231
-5.86026e-226
3.9914e-229
-2.65883e-224
1.74036e-227
-1.16538e-222
7.30461e-226
-4.93988e-221
2.95305e-224
-2.02711e-219
1.15043e-222
-8.06035e-218
4.31996e-221
-3.10834e-216
1.56371e-219
-1.16348e-214
5.45481e-218
-4.23041e-213
1.83268e-216
-1.49528e-211
5.92376e-215
-5.14155e-210
1.8387e-213
-1.72109e-208
5.46493e-212
-5.61265e-207
1.54822e-210
-1.78447e-205
4.14888e-209
-5.53574e-204
1.03744e-207
-1.67707e-202
2.3564e-206
-4.96662e-201
4.55659e-205
-1.43945e-199
5.916e-204
-3.94837e-198
-1.39652e-199
-9.20397e-197
-1.81917e-197
-1.85007e-195
-6.71682e-196
-3.22833e-194
-1.74367e-194
-4.90614e-193
-3.6054e-193
-6.50414e-192
-6.19411e-192
-7.53079e-191
-9.01188e-191
-7.62609e-190
-1.12205e-189
-6.76802e-189
-1.20409e-188
-5.27878e-188
-1.1202e-187
-3.63031e-187
-9.08479e-187
-2.20862e-186
-6.45675e-186
-1.19259e-185
-4.04056e-185
-5.7407e-185
-2.23615e-184
-2.4803e-184
-1.10053e-183
-9.70166e-184
-4.85585e-183
-3.46237e-183
-1.93954e-182
-1.13292e-182
-7.07001e-182
-3.40928e-182
-2.36234e-181
-9.46913e-182
-7.25453e-181
-2.43663e-181
-2.05537e-180
-5.84106e-181
-5.39752e-180
-1.31272e-180
-1.32223e-179
-2.78382e-180
-3.04258e-179
-5.59843e-180
-6.62145e-179
-1.07015e-179
-1.3698e-178
-1.94607e-179
-2.69923e-178
-3.37595e-179
-5.06867e-178
-5.60205e-179
-9.09427e-178
-8.91712e-179
-1.56337e-177
-1.36486e-178
-2.58257e-177
-2.01283e-178
-4.11073e-177
-2.86543e-178
-6.31952e-177
-3.9437e-178
-9.40403e-177
-5.25653e-178
-1.35709e-176
-6.79648e-178
-1.90323e-176
-8.53367e-178
-2.59939e-176
-1.04066e-177
-3.46298e-176
-1.23337e-177
-4.50245e-176
-1.4212e-177
-5.72076e-176
-1.59226e-177
-7.11179e-176
-1.73379e-177
-8.65925e-176
-1.83314e-177
-1.03365e-175
-1.87882e-177
-1.21059e-175
-1.86169e-177
-1.39204e-175
-1.77572e-177
-1.57257e-175
-1.617e-177
-1.74621e-175
-1.37451e-177
-1.90426e-175
-1.00188e-177
-2.01685e-175
-4.2534e-178
-1.9401e-175
-1.25501e-179
-1.18477e-175
-1.20588e-189
-5.89628e-177
-1.55071e-186
1.91236e-186
-1.85201e-183
7.738e-177
-2.80348e-174
2.11889e-175
-4.64156e-173
4.73298e-175
-7.28604e-173
6.43912e-175
-7.55684e-173
7.60641e-175
-7.19178e-173
8.40934e-175
-6.65575e-173
8.87942e-175
-6.04649e-173
9.0275e-175
-5.39789e-173
8.87757e-175
-4.73507e-173
8.46849e-175
-4.08004e-173
7.85016e-175
-3.45155e-173
7.07878e-175
-2.86474e-173
6.21207e-175
-2.33081e-173
5.30545e-175
-1.85716e-173
4.40833e-175
-1.44752e-173
3.56141e-175
-1.10225e-173
2.79766e-175
-8.19758e-174
2.13458e-175
-5.94483e-174
1.57919e-175
-4.19464e-174
1.13081e-175
-2.87345e-174
7.82544e-176
-1.90755e-174
5.2233e-176
-1.22431e-174
3.35567e-176
-7.57829e-175
2.06983e-176
-4.51142e-175
1.22248e-176
-2.57553e-175
6.896e-177
-1.40642e-175
3.70673e-177
-7.32987e-176
1.89801e-177
-3.64657e-176
9.24074e-178
-1.72898e-176
4.25686e-178
-7.77382e-177
1.84328e-178
-3.29166e-177
7.4521e-179
-1.30291e-177
2.79558e-179
-4.78658e-178
9.68889e-180
-1.62353e-178
3.09187e-180
-5.06544e-179
9.06493e-181
-1.45135e-179
2.43184e-181
-3.80503e-180
5.92351e-182
-9.05352e-181
1.29819e-182
-1.93465e-181
2.54151e-183
-3.68077e-182
4.42541e-184
-6.20049e-183
6.83285e-185
-9.20926e-184
9.32624e-186
-1.20025e-184
1.12194e-186
-1.36533e-185
1.18687e-187
-1.34825e-186
1.10276e-188
-1.14951e-187
8.99831e-190
-8.40943e-189
6.45357e-191
-5.23257e-190
4.07399e-192
-2.72703e-191
2.26765e-193
-1.15237e-192
1.11478e-194
-3.61586e-194
4.84523e-196
-5.50061e-196
1.95771e-197
2.31117e-200
7.71105e-199
2.68344e-201
2.95911e-200
1.71711e-202
1.10575e-201
9.01674e-204
4.02142e-203
4.23875e-205
1.42267e-204
1.84473e-206
4.89345e-206
7.55495e-208
1.63562e-207
2.93814e-209
5.30964e-209
1.09097e-210
1.67307e-210
3.88094e-212
5.11391e-212
1.32551e-213
1.51527e-213
4.35253e-215
4.34915e-215
1.37521e-216
1.20823e-216
4.18252e-218
3.246e-218
1.22459e-219
8.42544e-220
3.45106e-221
2.11075e-221
9.35756e-223
5.09801e-223
2.43993e-224
1.18565e-224
6.11334e-226
2.65179e-226
1.47055e-227
5.69548e-228
3.39259e-229
1.17289e-229
7.49741e-231
2.31203e-231
1.58501e-232
4.35451e-233
3.20061e-234
7.82036e-235
6.1628e-236
1.33631e-236
1.12942e-237
2.16737e-238
1.96587e-239
3.32781e-240
3.24249e-241
4.82291e-242
5.05487e-243
6.57614e-244
7.42689e-245
8.40552e-246
1.02514e-246
1.00302e-247
1.32458e-248
1.11222e-249
1.59564e-250
1.13999e-251
1.78385e-252
1.07343e-253
1.84101e-254
9.21923e-256
1.74331e-256
7.16091e-258
1.50388e-258
4.97896e-260
1.17189e-260
3.06001e-262
8.16485e-263
1.63605e-264
5.02255e-265
7.45288e-267
2.68469e-267
2.81199e-269
1.22131e-269
8.43555e-272
4.59654e-272
1.88652e-274
1.3739e-274
2.79804e-277
3.05797e-277
2.07263e-280
4.5087e-280
2.013e-285
3.31571e-283
-2.15686e-280
3.46377e-283
-2.98166e-277
4.81941e-280
-2.0319e-274
3.30266e-277
-9.14427e-272
1.4931e-274
-3.06156e-269
5.01645e-272
-8.13985e-267
1.33694e-269
-1.79103e-264
2.9455e-267
-3.35584e-262
5.51993e-265
-5.4677e-260
8.98512e-263
-7.87194e-258
1.2909e-260
-1.01425e-255
1.65784e-258
-1.18161e-253
1.92283e-256
-1.25537e-251
2.03137e-254
-1.2251e-249
1.96878e-252
-1.10496e-247
1.76128e-250
-9.25998e-246
1.4621e-248
-7.24407e-244
1.13149e-246
-5.31189e-242
8.19617e-245
-3.66432e-240
5.57719e-243
-2.3858e-238
3.57648e-241
-1.47043e-236
2.16759e-239
-8.60151e-235
1.24478e-237
-4.7871e-233
6.78911e-236
-2.54033e-231
3.52403e-234
-1.28794e-229
1.74418e-232
-6.25007e-228
8.24532e-231
-2.90797e-226
3.7286e-229
-1.29922e-224
1.61508e-227
-5.58185e-223
6.70919e-226
-2.30912e-221
2.67565e-224
-9.209e-220
1.02532e-222
-3.54452e-218
3.77812e-221
-1.31803e-216
1.33944e-219
-4.73941e-215
4.57048e-218
-1.64943e-213
1.5013e-216
-5.56026e-212
4.74682e-215
-1.8169e-210
1.4441e-213
-5.75881e-209
4.22371e-212
-1.77163e-207
1.18605e-210
-5.29299e-206
3.19068e-209
-1.53659e-204
8.19529e-208
-4.33674e-203
1.99894e-206
-1.19053e-201
4.58859e-205
-3.18054e-200
9.75339e-204
-8.27312e-199
1.85706e-202
-2.09643e-197
2.9075e-201
-5.17831e-196
2.54422e-200
-1.19023e-194
-5.74148e-196
-2.41696e-193
-3.84573e-194
-4.33166e-192
-1.22773e-192
-6.84048e-191
-2.90177e-191
-9.50253e-190
-5.55305e-190
-1.15966e-188
-8.89253e-189
-1.24242e-187
-1.21039e-187
-1.16888e-186
-1.41296e-186
-9.66996e-186
-1.42374e-185
-7.05164e-185
-1.24535e-184
-4.54669e-184
-9.50898e-184
-2.60001e-183
-6.37263e-183
-1.32274e-182
-3.76626e-182
-6.01379e-182
-1.97137e-181
-2.46143e-181
-9.1913e-181
-9.15201e-181
-3.85117e-180
-3.11461e-180
-1.46527e-179
-9.73987e-180
-5.1026e-179
-2.80506e-179
-1.632e-178
-7.46597e-179
-4.80238e-178
-1.84438e-178
-1.30519e-177
-4.25494e-178
-3.29322e-177
-9.22842e-178
-7.76945e-177
-1.89409e-177
-1.72651e-176
-3.69682e-177
-3.63877e-176
-6.87384e-177
-7.30977e-176
-1.21792e-176
-1.40181e-175
-2.06127e-176
-2.56577e-175
-3.34077e-176
-4.49243e-175
-5.19914e-176
-7.54406e-175
-7.78851e-176
-1.21854e-174
-1.12545e-175
-1.89838e-174
-1.57179e-175
-2.85956e-174
-2.12483e-175
-4.17454e-174
-2.78538e-175
-5.91693e-174
-3.54655e-175
-8.16035e-174
-4.39115e-175
-1.09745e-173
-5.28664e-175
-1.44156e-173
-6.19283e-175
-1.8501e-173
-7.0609e-175
-2.32291e-173
-7.83612e-175
-2.85656e-173
-8.46142e-175
-3.44408e-173
-8.88128e-175
-4.07496e-173
-9.04659e-175
-4.73494e-173
-8.91935e-175
-5.40676e-173
-8.47593e-175
-6.07104e-173
-7.70197e-175
-6.70659e-173
-6.55008e-175
-7.28293e-173
-4.81068e-175
-7.69367e-173
-2.11254e-175
-7.42222e-173
-7.25428e-177
-4.65156e-173
-1.58038e-186
-2.65942e-174
-1.56634e-183
9.91648e-184
-8.8838e-181
1.98786e-174
-6.5374e-172
4.87323e-173
-9.65769e-171
1.06591e-172
-1.48515e-170
1.44221e-172
-1.5335e-170
1.70208e-172
-1.45957e-170
1.88478e-172
-1.35412e-170
1.99715e-172
-1.23535e-170
2.04066e-172
-1.10898e-170
2.01935e-172
-9.79326e-171
1.94054e-172
-8.50372e-171
1.81407e-172
-7.25666e-171
1.65138e-172
-6.08165e-171
1.46453e-172
-5.0015e-171
1.26537e-172
-4.03235e-171
1.06483e-172
-3.18359e-171
8.72221e-173
-2.45836e-171
6.95611e-173
-1.85653e-171
5.39519e-173
-1.36891e-171
4.06236e-173
-9.83288e-172
2.96405e-173
-6.8651e-172
2.09256e-173
-4.65067e-172
1.42646e-173
-3.04934e-172
9.36844e-174
-1.93012e-172
5.91292e-174
-1.17604e-172
3.57695e-174
-6.87832e-173
2.06908e-174
-3.85226e-173
1.14217e-174
-2.06211e-173
6.01912e-175
-1.05598e-173
3.02409e-175
-5.16759e-174
1.44156e-175
-2.40485e-174
6.47663e-176
-1.05688e-174
2.72293e-176
-4.35219e-175
1.06391e-176
-1.66602e-175
3.84417e-177
-5.89341e-176
1.28018e-177
-1.91935e-176
3.92422e-178
-5.75125e-177
1.10377e-178
-1.58153e-177
2.82695e-179
-3.95883e-178
6.52827e-180
-8.91875e-179
1.34858e-180
-1.79117e-179
2.48064e-181
-3.18846e-180
4.05081e-182
-5.00989e-181
5.85348e-183
-6.91425e-182
7.46017e-184
-8.33367e-183
8.36407e-185
-8.7213e-184
8.23787e-186
-7.87984e-185
7.12657e-187
-6.10876e-186
5.42045e-188
-4.02948e-187
3.63149e-189
-2.22993e-188
2.14844e-190
-1.00593e-189
1.12577e-191
-3.43317e-191
5.24153e-193
-6.4667e-193
2.24669e-194
2.69017e-197
9.36973e-196
4.13559e-198
3.80055e-197
2.91344e-199
1.49879e-198
1.64276e-200
5.7445e-200
8.21764e-202
2.13902e-201
3.78766e-203
7.7349e-203
1.63789e-204
2.71513e-204
6.7111e-206
9.24739e-206
2.62099e-207
3.05436e-207
9.79285e-209
9.77802e-209
3.50881e-210
3.03209e-210
1.20747e-211
9.10123e-212
3.99454e-213
2.6424e-213
1.27098e-214
7.41443e-215
3.8902e-216
2.00884e-216
1.14529e-217
5.25017e-218
3.24213e-219
1.32217e-219
8.82044e-221
3.20464e-221
2.30458e-222
7.46592e-223
5.77781e-224
1.66953e-224
1.38854e-225
3.57802e-226
3.19501e-227
7.33685e-228
7.02939e-229
1.43681e-229
1.47654e-230
2.68197e-231
2.95614e-232
4.76127e-233
5.63053e-234
8.01989e-235
1.01817e-235
1.27834e-236
1.74395e-237
1.9226e-238
2.82221e-239
2.71949e-240
4.30272e-241
3.60466e-242
6.16051e-243
4.4591e-244
8.25384e-245
5.12416e-246
1.03065e-246
5.44114e-248
1.19394e-248
5.30624e-250
1.27641e-250
4.71848e-252
1.25165e-252
3.79353e-254
1.1178e-254
2.72935e-256
9.01464e-257
1.73528e-258
6.49827e-259
9.59508e-261
4.13462e-261
4.51927e-263
2.28531e-263
1.76252e-265
1.07472e-265
5.46382e-268
4.18025e-268
1.26238e-270
1.29095e-270
1.93378e-273
2.96794e-273
1.4789e-276
4.51869e-276
1.45297e-281
3.43022e-279
-1.55234e-276
3.61374e-279
-2.07765e-273
4.86929e-276
-1.3706e-270
3.23095e-273
-5.96982e-268
1.414e-270
-1.934e-265
4.59769e-268
-4.9742e-263
1.18557e-265
-1.0585e-260
2.52656e-263
-1.9176e-258
4.57871e-261
-3.02005e-256
7.20531e-259
-4.2017e-254
1.0005e-256
-5.22997e-252
1.24147e-254
-5.88452e-250
1.39083e-252
-6.03623e-248
1.41882e-250
-5.68574e-246
1.32741e-248
-4.94817e-244
1.14595e-246
-3.99988e-242
9.17696e-245
-3.01727e-240
6.84866e-243
-2.13266e-238
4.78237e-241
-1.4176e-236
3.13593e-239
-8.8903e-235
1.93715e-237
-5.27576e-233
1.13049e-235
-2.97033e-231
6.2488e-234
-1.59043e-229
3.27903e-232
-8.11643e-228
1.63688e-230
-3.95565e-226
7.7879e-229
-1.84444e-224
3.53744e-227
-8.24195e-223
1.53629e-225
-3.53492e-221
6.38783e-224
-1.45722e-219
2.5459e-222
-5.78124e-218
9.73597e-221
-2.20997e-216
3.57555e-219
-8.14867e-215
1.26193e-217
-2.90105e-213
4.28231e-216
-9.98119e-212
1.39771e-214
-3.32144e-210
4.38829e-213
-1.06983e-208
1.32509e-211
-3.33761e-207
3.8464e-210
-1.00917e-205
1.0723e-208
-2.95895e-204
2.86661e-207
-8.41735e-203
7.33148e-206
-2.32423e-201
1.78721e-204
-6.23202e-200
4.12826e-203
-1.62329e-198
8.94722e-202
-4.10906e-197
1.78718e-200
-1.01117e-195
3.16915e-199
-2.41993e-194
4.50848e-198
-5.63432e-193
3.00235e-197
-1.20849e-191
-6.8463e-193
-2.30153e-190
-3.67737e-191
-3.87931e-189
-1.0782e-189
-5.77007e-188
-2.38574e-188
-7.55486e-187
-4.29734e-187
-8.69229e-186
-6.48795e-186
-8.78115e-185
-8.32869e-185
-7.79148e-184
-9.16952e-184
-6.08179e-183
-8.71397e-183
-4.18776e-182
-7.19041e-182
-2.5523e-181
-5.18275e-181
-1.38126e-180
-3.28217e-180
-6.65811e-180
-1.83518e-179
-2.8723e-179
-9.09769e-179
-1.11798e-178
-4.02256e-178
-3.96455e-178
-1.60193e-177
-1.29041e-177
-5.81062e-177
-3.86662e-177
-1.93477e-176
-1.06806e-176
-5.92791e-176
-2.72925e-176
-1.67247e-175
-6.48328e-176
-4.36206e-175
-1.44152e-175
-1.05791e-174
-3.02131e-175
-2.40469e-174
-6.0092e-175
-5.16275e-174
-1.13959e-174
-1.05424e-173
-2.06331e-174
-2.0575e-173
-3.56518e-174
-3.84162e-173
-5.89111e-174
-6.8559e-173
-9.33115e-174
-1.17174e-172
-1.42053e-173
-1.92251e-172
-2.08366e-173
-3.03679e-172
-2.95135e-173
-4.63113e-172
-4.04511e-173
-6.83609e-172
-5.37288e-173
-9.79174e-172
-6.92849e-173
-1.36334e-171
-8.68941e-173
-1.84928e-171
-1.06111e-172
-2.44925e-171
-1.26138e-172
-3.17265e-171
-1.46053e-172
-4.01987e-171
-1.64775e-172
-4.9882e-171
-1.81128e-172
-6.06881e-171
-1.93916e-172
-7.2464e-171
-2.02002e-172
-8.49923e-171
-2.04404e-172
-9.79912e-171
-2.0039e-172
-1.11128e-170
-1.89539e-172
-1.24037e-170
-1.71618e-172
-1.36324e-170
-1.45685e-172
-1.47425e-170
-1.07346e-172
-1.55325e-170
-4.8245e-173
-1.50162e-170
-1.87307e-174
-9.61756e-171
-8.44346e-184
-6.21894e-172
-7.67703e-181
3.12263e-181
-2.68355e-178
3.1518e-172
-9.72905e-170
6.96359e-171
-1.28784e-168
1.49883e-170
-1.94585e-168
2.02388e-170
-2.0041e-168
2.39176e-170
-1.90978e-168
2.65619e-170
-1.777e-168
2.82645e-170
-1.62815e-168
2.90361e-170
-1.46967e-168
2.89189e-170
-1.30642e-168
2.79987e-170
-1.14305e-168
2.6397e-170
-9.83849e-169
2.4259e-170
-8.32511e-169
2.17418e-170
-6.91986e-169
1.90042e-170
-5.64477e-169
1.61964e-170
-4.51412e-169
1.3451e-170
-3.53477e-169
1.08909e-170
-2.71071e-169
8.58693e-171
-2.03236e-169
6.58067e-171
-1.48624e-169
4.89265e-171
-1.05768e-169
3.52401e-171
-7.31285e-170
2.45354e-171
-4.89924e-170
1.64737e-171
-3.17167e-170
1.06392e-171
-1.97831e-170
6.59181e-172
-1.18554e-170
3.90955e-172
-6.81032e-171
2.21593e-172
-3.74442e-171
1.20162e-172
-1.97371e-171
6.22877e-173
-9.96934e-172
3.07207e-173
-4.80257e-172
1.43194e-173
-2.19113e-172
6.26042e-174
-9.39042e-173
2.54758e-174
-3.74708e-173
9.59508e-175
-1.38284e-173
3.33349e-175
-4.70202e-174
1.06798e-175
-1.47384e-174
3.14861e-176
-4.25274e-175
8.47725e-177
-1.1206e-175
2.06211e-177
-2.66331e-176
4.49222e-178
-5.64936e-177
8.72195e-179
-1.06322e-177
1.50476e-179
-1.76834e-178
2.29895e-180
-2.58591e-179
3.09859e-181
-3.30418e-180
3.673e-182
-3.66583e-181
3.8221e-183
-3.51001e-182
3.48975e-184
-2.88193e-183
2.79771e-185
-2.01218e-184
1.97269e-186
-1.17859e-185
1.22642e-187
-5.63694e-187
6.74337e-189
-2.05717e-188
3.29074e-190
-4.38653e-190
1.46585e-191
1.75049e-194
6.34467e-193
3.42064e-195
2.66765e-194
2.57065e-196
1.08925e-195
1.51824e-197
4.31803e-197
7.90486e-199
1.66139e-198
3.77984e-200
6.20217e-200
1.69209e-201
2.24568e-201
7.16628e-203
7.88335e-203
2.88928e-204
2.68185e-204
1.1133e-205
8.8369e-206
4.11011e-207
2.81876e-207
1.45621e-208
8.69821e-209
4.95635e-210
2.5948e-210
1.62146e-211
7.47714e-212
5.09974e-213
2.07941e-213
1.54192e-214
5.57563e-215
4.48037e-216
1.43991e-216
1.25053e-217
3.5773e-218
3.35044e-219
8.53889e-220
8.60947e-221
1.95554e-221
2.11973e-222
4.29036e-223
4.9947e-224
9.00251e-225
1.12483e-225
1.80339e-226
2.41754e-227
3.44205e-228
4.95043e-229
6.24602e-230
9.64036e-231
1.07502e-231
1.78169e-232
1.75033e-233
3.11795e-234
2.68813e-235
5.15347e-236
3.88154e-237
8.0222e-238
5.25061e-239
1.1724e-239
6.62676e-241
1.60286e-241
7.76729e-243
2.04179e-243
8.41042e-245
2.41229e-245
8.36158e-247
2.62947e-247
7.57833e-249
2.62838e-249
6.20849e-251
2.39216e-251
4.55069e-253
1.96561e-253
2.94692e-255
1.44334e-255
1.65935e-257
9.35265e-258
7.95724e-260
5.26355e-260
3.15898e-262
2.51986e-262
9.96649e-265
9.97565e-265
2.3431e-267
3.13489e-267
3.65157e-270
7.33257e-270
2.84055e-273
1.13559e-272
2.83191e-278
8.76702e-276
-3.01142e-273
9.3287e-276
-3.9621e-270
1.23587e-272
-2.56898e-267
8.0612e-270
-1.09958e-264
3.46737e-267
-3.49993e-262
1.10788e-264
-8.8426e-260
2.80666e-262
-1.84806e-257
5.87517e-260
-3.28748e-255
1.04561e-257
-5.08287e-253
1.61557e-255
-6.9409e-251
2.2021e-253
-8.47792e-249
2.68169e-251
-9.35837e-247
2.94778e-249
-9.41565e-245
2.9498e-247
-8.69679e-243
2.70649e-245
-7.41979e-241
2.29081e-243
-5.87831e-239
1.79816e-241
-4.34466e-237
1.31498e-239
-3.00797e-235
8.99525e-238
-1.95786e-233
5.77647e-236
-1.20194e-231
3.49338e-234
-6.97987e-230
1.99524e-232
-3.84425e-228
1.07899e-230
-2.01284e-226
5.53734e-229
-1.00412e-224
2.70238e-227
-4.78185e-223
1.25648e-225
-2.17785e-221
5.57505e-224
-9.50163e-220
2.36415e-222
-3.97713e-218
9.59418e-221
-1.59935e-216
3.73037e-219
-6.18698e-215
1.39105e-217
-2.30504e-213
4.97911e-216
-8.27958e-212
1.71185e-214
-2.87004e-210
5.65594e-213
-9.60952e-209
1.79637e-211
-3.11024e-207
5.48489e-210
-9.73812e-206
1.60964e-208
-2.95137e-204
4.53774e-207
-8.66336e-203
1.22761e-205
-2.46424e-201
3.18193e-204
-6.79529e-200
7.88204e-203
-1.81733e-198
1.85872e-201
-4.71535e-197
4.14685e-200
-1.18737e-195
8.66237e-199
-2.90255e-194
1.66224e-197
-6.88991e-193
2.81398e-196
-1.58857e-191
3.75334e-195
-3.55863e-190
1.98307e-194
-7.28042e-189
-4.68953e-190
-1.32089e-187
-2.21849e-188
-2.11783e-186
-6.07871e-187
-2.99165e-185
-1.26791e-185
-3.71438e-184
-2.15659e-184
-4.04707e-183
-3.07421e-183
-3.86767e-182
-3.72391e-182
-3.24426e-181
-3.86646e-181
-2.39352e-180
-3.46404e-180
-1.55825e-179
-2.69496e-179
-8.98642e-179
-1.83256e-178
-4.60631e-178
-1.09606e-177
-2.10501e-177
-5.79501e-177
-8.6194e-177
-2.71927e-176
-3.19114e-176
-1.13948e-175
-1.07961e-175
-4.31038e-175
-3.36203e-175
-1.48999e-174
-9.656e-175
-4.74265e-174
-2.55862e-174
-1.39168e-173
-6.27737e-174
-3.7633e-173
-1.43394e-173
-9.41558e-173
-3.07308e-173
-2.19413e-172
-6.22527e-173
-4.80415e-172
-1.20007e-172
-9.96393e-172
-2.21173e-172
-1.97125e-171
-3.90008e-172
-3.73756e-171
-6.57256e-172
-6.79429e-171
-1.0604e-171
-1.18217e-170
-1.64145e-171
-1.97192e-170
-2.44428e-171
-3.16056e-170
-3.51037e-171
-4.88128e-170
-4.87351e-171
-7.28544e-170
-6.55512e-171
-1.05369e-169
-8.55444e-171
-1.48068e-169
-1.08514e-170
-2.02498e-169
-1.34048e-170
-2.70131e-169
-1.61448e-170
-3.52323e-169
-1.89498e-170
-4.50058e-169
-2.1688e-170
-5.62973e-169
-2.42105e-170
-6.90429e-169
-2.63595e-170
-8.31069e-169
-2.79786e-170
-9.82775e-169
-2.89224e-170
-1.1427e-168
-2.90693e-170
-1.30728e-168
-2.83321e-170
-1.47242e-168
-2.6665e-170
-1.63368e-168
-2.40474e-170
-1.7864e-168
-2.03616e-170
-1.92387e-168
-1.50306e-170
-2.02144e-168
-6.88854e-171
-1.95754e-168
-2.99783e-172
-1.27876e-168
-2.73047e-181
-9.30037e-170
-2.36233e-178
6.98319e-179
-5.74725e-176
3.53475e-170
-1.02317e-167
7.03161e-169
-1.21313e-166
1.49059e-168
-1.80288e-166
2.01096e-168
-1.85403e-166
2.38194e-168
-1.77023e-166
2.65466e-168
-1.6527e-166
2.83779e-168
-1.5211e-166
2.93159e-168
-1.38072e-166
2.939e-168
-1.23547e-166
2.86703e-168
-1.08922e-166
2.72617e-168
-9.45613e-167
2.52937e-168
-8.07892e-167
2.291e-168
-6.78725e-167
2.02596e-168
-5.60204e-167
1.74873e-168
-4.53794e-167
1.47257e-168
-3.60357e-167
1.21061e-168
-2.80652e-167
9.7045e-169
-2.13992e-167
7.57074e-169
-1.5935e-167
5.73667e-169
-1.15615e-167
4.21658e-169
-8.16088e-168
2.99922e-169
-5.58828e-168
2.05932e-169
-3.70148e-168
1.36126e-169
-2.36434e-168
8.64026e-170
-1.45225e-168
5.25519e-170
-8.55928e-169
3.05884e-170
-4.83481e-169
1.70702e-170
-2.62382e-169
9.13118e-171
-1.3683e-169
4.66082e-171
-6.82573e-170
2.25479e-171
-3.23457e-170
1.02565e-171
-1.44362e-170
4.34944e-172
-6.00927e-171
1.70848e-172
-2.31528e-171
6.19488e-173
-8.22449e-172
2.07534e-173
-2.69845e-172
6.41745e-174
-8.17727e-173
1.81796e-174
-2.27073e-173
4.66279e-175
-5.70047e-174
1.0722e-175
-1.27868e-174
2.19943e-176
-2.54747e-175
4.01332e-177
-4.4912e-176
6.49056e-178
-6.97022e-177
9.26345e-179
-9.45832e-178
1.16244e-179
-1.11447e-178
1.27954e-180
-1.13287e-179
1.23431e-181
-9.86783e-181
1.04381e-182
-7.30299e-182
7.74903e-184
-4.53101e-183
5.0613e-185
-2.29623e-184
2.91692e-186
-8.91884e-186
1.48839e-187
-2.09004e-187
6.88124e-189
7.97537e-192
3.08735e-190
1.96157e-192
1.34397e-191
1.56006e-193
5.67529e-193
9.61013e-195
2.32431e-194
5.19284e-196
9.23013e-196
2.5701e-197
3.55322e-197
1.18876e-198
1.32559e-198
5.1949e-200
4.79096e-200
2.15878e-201
1.67683e-201
8.56567e-203
5.68079e-203
3.25372e-204
1.86187e-204
1.18523e-205
5.89989e-206
4.14474e-207
1.80632e-207
1.39226e-208
5.339e-209
4.49345e-210
1.52218e-210
1.39334e-211
4.18213e-212
4.14987e-213
1.10611e-213
1.1866e-214
2.81298e-215
3.25525e-216
6.86998e-217
8.56082e-218
1.60905e-218
2.15611e-219
3.60876e-220
5.19468e-221
7.73765e-222
1.19567e-222
1.58324e-223
2.62538e-224
3.08547e-225
5.49022e-226
5.71481e-227
1.09146e-227
1.0036e-228
2.05857e-229
1.66675e-230
3.67513e-231
2.61018e-232
6.19491e-233
3.84208e-234
9.83172e-235
5.29655e-236
1.46449e-236
6.81062e-238
2.04014e-238
8.13101e-240
2.64736e-240
8.96548e-242
3.18535e-242