/*--------------------------------*- C++ -*----------------------------------*\
| =========                 |                                                 |
| \\      /  F ield         | OpenFOAM: The Open Source CFD Toolbox           |
|  \\    /   O peration     | Version:  2412                                  |
|   \\  /    A nd           | Website:  www.openfoam.com                      |
|    \\/     M anipulation  |                                                 |
\*---------------------------------------------------------------------------*/
FoamFile
{
    version     2.0;
    format      ascii;
    arch        "LSB;label=32;scalar=64";
    class       volScalarField;
    location    "1.3";
    object      p;
}
// * * * * * * * * * * * * * * * * * * * * * * * * * * * * * * * * * * * * * //

dimensions      [1 -1 -2 0 0 0 0];

internalField   nonuniform List<scalar> 
40000
(
0
9.3805e-05
0.000180303
0.000262167
0.000335427
0.000396078
0.000444077
0.000481832
0.000510883
0.000531079
0.000541802
0.000542904
0.000534573
0.000516892
0.000489768
0.000453204
0.000407528
0.00035336
0.000291358
0.000221967
0.000145317
6.13192e-05
-3.01099e-05
-0.000128835
-0.000234412
-0.00034616
-0.00046335
-0.000585392
-0.00071193
-0.000842791
-0.000977839
-0.00111681
-0.00125925
-0.00140455
-0.00155212
-0.00170155
-0.00185263
-0.00200531
-0.00215946
-0.00231476
-0.00247057
-0.0026261
-0.00278059
-0.0029335
-0.00308461
-0.00323386
-0.00338119
-0.00352637
-0.00366897
-0.0038085
-0.00394453
-0.00407683
-0.00420526
-0.00432961
-0.00444963
-0.00456489
-0.00467506
-0.00478
-0.00487984
-0.00497478
-0.00506491
-0.00515004
-0.00522981
-0.00530392
-0.00537234
-0.00543527
-0.00549304
-0.00554583
-0.00559367
-0.00563649
-0.00567438
-0.00570757
-0.00573641
-0.00576111
-0.00578171
-0.00579822
-0.00581081
-0.00582
-0.0058265
-0.00583095
-0.00583367
-0.00583466
-0.00583387
-0.00583134
-0.00582731
-0.00582208
-0.00581579
-0.00580861
-0.00580079
-0.00579285
-0.00578541
-0.00577886
-0.00577326
-0.00576836
-0.00576397
-0.0057603
-0.00575772
-0.0057566
-0.00575707
-0.005759
-0.00576234
-0.00576723
-0.00577376
-0.0057818
-0.00579094
-0.00580076
-0.00581117
-0.00582243
-0.00583481
-0.0058483
-0.00586247
-0.00587679
-0.00589094
-0.00590483
-0.00591833
-0.00593103
-0.00594247
-0.0059524
-0.0059608
-0.00596767
-0.00597266
-0.00597508
-0.00597434
-0.00597026
-0.00596292
-0.00595217
-0.00593758
-0.00591877
-0.00589566
-0.00586844
-0.00583718
-0.00580141
-0.00576016
-0.00571301
-0.00566045
-0.00560274
-0.00553943
-0.00547027
-0.00539552
-0.00531528
-0.00522982
-0.00513948
-0.00504362
-0.00494162
-0.00483444
-0.00472285
-0.00460633
-0.0044851
-0.00435988
-0.00423077
-0.00409832
-0.00396269
-0.00382282
-0.00367945
-0.0035342
-0.00338683
-0.00323761
-0.00308708
-0.0029353
-0.00278308
-0.00263046
-0.00247701
-0.00232397
-0.00217237
-0.00202195
-0.00187257
-0.00172562
-0.0015819
-0.00144108
-0.00130371
-0.00117064
-0.00104188
-0.000916957
-0.00079596
-0.000680423
-0.000570368
-0.000465802
-0.000368134
-0.000276649
-0.000192115
-0.000115171
-4.57411e-05
1.55668e-05
6.90816e-05
0.000114627
0.000150833
0.000178412
0.000196751
0.000205309
0.000205032
0.000195783
0.00017717
0.000148074
0.000109825
6.23545e-05
3.76069e-06
-6.57586e-05
-0.000147085
-0.000237732
-0.000335789
-3.92409
-3.924
-3.92391
-3.92383
-3.92376
-3.9237
-3.92365
-3.92361
-3.92358
-3.92356
-3.92355
-3.92355
-3.92356
-3.92357
-3.9236
-3.92363
-3.92368
-3.92373
-3.92379
-3.92386
-3.92394
-3.92402
-3.92411
-3.92421
-3.92431
-3.92442
-3.92454
-3.92466
-3.92478
-3.92491
-3.92504
-3.92518
-3.92532
-3.92546
-3.92561
-3.92576
-3.9259
-3.92605
-3.92621
-3.92636
-3.92651
-3.92667
-3.92682
-3.92697
-3.92711
-3.92726
-3.92741
-3.92755
-3.92769
-3.92782
-3.92796
-3.92809
-3.92821
-3.92833
-3.92845
-3.92856
-3.92867
-3.92877
-3.92886
-3.92896
-3.92904
-3.92912
-3.9292
-3.92927
-3.92934
-3.9294
-3.92945
-3.9295
-3.92954
-3.92958
-3.92962
-3.92965
-3.92967
-3.92969
-3.92971
-3.92972
-3.92973
-3.92974
-3.92974
-3.92974
-3.92974
-3.92974
-3.92974
-3.92973
-3.92973
-3.92972
-3.92971
-3.9297
-3.92969
-3.92968
-3.92967
-3.92967
-3.92966
-3.92965
-3.92965
-3.92964
-3.92964
-3.92964
-3.92964
-3.92964
-3.92964
-3.92965
-3.92966
-3.92967
-3.92968
-3.92969
-3.9297
-3.92971
-3.92972
-3.92974
-3.92975
-3.92977
-3.92979
-3.9298
-3.92982
-3.92983
-3.92985
-3.92986
-3.92987
-3.92988
-3.92989
-3.92989
-3.92989
-3.92989
-3.92989
-3.92988
-3.92987
-3.92985
-3.92983
-3.92981
-3.92978
-3.92975
-3.92971
-3.92967
-3.92962
-3.92957
-3.92951
-3.92944
-3.92937
-3.92929
-3.92921
-3.92912
-3.92903
-3.92893
-3.92883
-3.92872
-3.92861
-3.92849
-3.92837
-3.92824
-3.92811
-3.92798
-3.92784
-3.9277
-3.92756
-3.92742
-3.92727
-3.92712
-3.92697
-3.92682
-3.92667
-3.92652
-3.92637
-3.92622
-3.92608
-3.92593
-3.92578
-3.92564
-3.9255
-3.92537
-3.92524
-3.92511
-3.92499
-3.92487
-3.92475
-3.92465
-3.92454
-3.92445
-3.92436
-3.92427
-3.9242
-3.92413
-3.92407
-3.92402
-3.92397
-3.92394
-3.92391
-3.92389
-3.92389
-3.92389
-3.9239
-3.92392
-3.92395
-3.92398
-3.92403
-3.92409
-3.92416
-3.92423
-3.92432
-3.92442
-7.84818
-7.84808
-7.84799
-7.84792
-7.84785
-7.84779
-7.84774
-7.8477
-7.84767
-7.84765
-7.84764
-7.84763
-7.84764
-7.84766
-7.84768
-7.84772
-7.84776
-7.84781
-7.84787
-7.84794
-7.84801
-7.8481
-7.84819
-7.84828
-7.84838
-7.84849
-7.84861
-7.84872
-7.84885
-7.84897
-7.84911
-7.84924
-7.84938
-7.84952
-7.84966
-7.84981
-7.84996
-7.8501
-7.85025
-7.85041
-7.85056
-7.85071
-7.85086
-7.851
-7.85115
-7.85129
-7.85143
-7.85157
-7.85171
-7.85184
-7.85197
-7.8521
-7.85222
-7.85234
-7.85245
-7.85256
-7.85267
-7.85276
-7.85286
-7.85295
-7.85303
-7.85311
-7.85318
-7.85325
-7.85331
-7.85336
-7.85342
-7.85346
-7.8535
-7.85354
-7.85357
-7.8536
-7.85362
-7.85364
-7.85365
-7.85366
-7.85367
-7.85367
-7.85367
-7.85367
-7.85367
-7.85366
-7.85366
-7.85365
-7.85364
-7.85363
-7.85362
-7.85361
-7.8536
-7.85359
-7.85358
-7.85357
-7.85356
-7.85355
-7.85355
-7.85354
-7.85354
-7.85354
-7.85354
-7.85354
-7.85354
-7.85355
-7.85355
-7.85356
-7.85357
-7.85358
-7.8536
-7.85361
-7.85362
-7.85364
-7.85366
-7.85368
-7.85369
-7.85371
-7.85373
-7.85375
-7.85376
-7.85378
-7.85379
-7.8538
-7.85381
-7.85382
-7.85383
-7.85383
-7.85383
-7.85382
-7.85381
-7.8538
-7.85379
-7.85376
-7.85374
-7.85371
-7.85367
-7.85363
-7.85359
-7.85354
-7.85348
-7.85342
-7.85335
-7.85328
-7.8532
-7.85312
-7.85303
-7.85293
-7.85283
-7.85273
-7.85262
-7.8525
-7.85238
-7.85226
-7.85213
-7.852
-7.85187
-7.85173
-7.85159
-7.85145
-7.85131
-7.85116
-7.85102
-7.85087
-7.85072
-7.85057
-7.85043
-7.85028
-7.85013
-7.84999
-7.84984
-7.8497
-7.84957
-7.84943
-7.8493
-7.84918
-7.84906
-7.84894
-7.84883
-7.84872
-7.84862
-7.84852
-7.84843
-7.84835
-7.84828
-7.84821
-7.84815
-7.8481
-7.84806
-7.84802
-7.848
-7.84798
-7.84797
-7.84797
-7.84798
-7.848
-7.84803
-7.84807
-7.84812
-7.84818
-7.84825
-7.84833
-7.84841
-7.84851
-11.7723
-11.7722
-11.7721
-11.772
-11.7719
-11.7719
-11.7718
-11.7718
-11.7718
-11.7717
-11.7717
-11.7717
-11.7717
-11.7717
-11.7718
-11.7718
-11.7718
-11.7719
-11.772
-11.772
-11.7721
-11.7722
-11.7723
-11.7724
-11.7725
-11.7726
-11.7727
-11.7728
-11.7729
-11.773
-11.7732
-11.7733
-11.7734
-11.7736
-11.7737
-11.7739
-11.774
-11.7742
-11.7743
-11.7745
-11.7746
-11.7748
-11.7749
-11.775
-11.7752
-11.7753
-11.7755
-11.7756
-11.7757
-11.7759
-11.776
-11.7761
-11.7762
-11.7764
-11.7765
-11.7766
-11.7767
-11.7768
-11.7769
-11.7769
-11.777
-11.7771
-11.7772
-11.7772
-11.7773
-11.7773
-11.7774
-11.7774
-11.7775
-11.7775
-11.7775
-11.7776
-11.7776
-11.7776
-11.7776
-11.7776
-11.7776
-11.7776
-11.7776
-11.7776
-11.7776
-11.7776
-11.7776
-11.7776
-11.7776
-11.7776
-11.7775
-11.7775
-11.7775
-11.7775
-11.7775
-11.7775
-11.7775
-11.7775
-11.7775
-11.7775
-11.7774
-11.7774
-11.7774
-11.7774
-11.7775
-11.7775
-11.7775
-11.7775
-11.7775
-11.7775
-11.7775
-11.7775
-11.7775
-11.7776
-11.7776
-11.7776
-11.7776
-11.7776
-11.7777
-11.7777
-11.7777
-11.7777
-11.7777
-11.7777
-11.7778
-11.7778
-11.7778
-11.7778
-11.7778
-11.7778
-11.7778
-11.7778
-11.7777
-11.7777
-11.7777
-11.7777
-11.7776
-11.7776
-11.7776
-11.7775
-11.7775
-11.7774
-11.7773
-11.7773
-11.7772
-11.7771
-11.777
-11.7769
-11.7768
-11.7767
-11.7766
-11.7765
-11.7764
-11.7763
-11.7762
-11.776
-11.7759
-11.7758
-11.7756
-11.7755
-11.7753
-11.7752
-11.7751
-11.7749
-11.7748
-11.7746
-11.7745
-11.7743
-11.7742
-11.774
-11.7739
-11.7738
-11.7736
-11.7735
-11.7734
-11.7732
-11.7731
-11.773
-11.7729
-11.7728
-11.7727
-11.7726
-11.7725
-11.7724
-11.7724
-11.7723
-11.7722
-11.7722
-11.7721
-11.7721
-11.7721
-11.7721
-11.7721
-11.7721
-11.7721
-11.7721
-11.7721
-11.7722
-11.7722
-11.7723
-11.7723
-11.7724
-11.7725
-11.7726
-15.6964
-15.6963
-15.6962
-15.6961
-15.696
-15.696
-15.6959
-15.6959
-15.6958
-15.6958
-15.6958
-15.6958
-15.6958
-15.6958
-15.6958
-15.6959
-15.6959
-15.696
-15.696
-15.6961
-15.6962
-15.6962
-15.6963
-15.6964
-15.6965
-15.6966
-15.6967
-15.6969
-15.697
-15.6971
-15.6972
-15.6974
-15.6975
-15.6976
-15.6978
-15.6979
-15.6981
-15.6982
-15.6984
-15.6985
-15.6987
-15.6988
-15.6989
-15.6991
-15.6992
-15.6994
-15.6995
-15.6996
-15.6998
-15.6999
-15.7
-15.7001
-15.7003
-15.7004
-15.7005
-15.7006
-15.7007
-15.7008
-15.7009
-15.7009
-15.701
-15.7011
-15.7012
-15.7012
-15.7013
-15.7013
-15.7014
-15.7014
-15.7015
-15.7015
-15.7015
-15.7015
-15.7015
-15.7016
-15.7016
-15.7016
-15.7016
-15.7016
-15.7016
-15.7016
-15.7016
-15.7015
-15.7015
-15.7015
-15.7015
-15.7015
-15.7015
-15.7015
-15.7014
-15.7014
-15.7014
-15.7014
-15.7014
-15.7014
-15.7014
-15.7014
-15.7014
-15.7014
-15.7014
-15.7014
-15.7014
-15.7014
-15.7014
-15.7014
-15.7014
-15.7014
-15.7014
-15.7015
-15.7015
-15.7015
-15.7015
-15.7015
-15.7015
-15.7016
-15.7016
-15.7016
-15.7016
-15.7017
-15.7017
-15.7017
-15.7017
-15.7017
-15.7017
-15.7017
-15.7017
-15.7017
-15.7017
-15.7017
-15.7017
-15.7017
-15.7017
-15.7017
-15.7016
-15.7016
-15.7016
-15.7015
-15.7015
-15.7014
-15.7013
-15.7013
-15.7012
-15.7011
-15.701
-15.7009
-15.7009
-15.7008
-15.7007
-15.7005
-15.7004
-15.7003
-15.7002
-15.7001
-15.6999
-15.6998
-15.6997
-15.6995
-15.6994
-15.6993
-15.6991
-15.699
-15.6988
-15.6987
-15.6985
-15.6984
-15.6982
-15.6981
-15.698
-15.6978
-15.6977
-15.6976
-15.6974
-15.6973
-15.6972
-15.6971
-15.697
-15.6969
-15.6968
-15.6967
-15.6966
-15.6965
-15.6964
-15.6964
-15.6963
-15.6963
-15.6962
-15.6962
-15.6962
-15.6961
-15.6961
-15.6961
-15.6962
-15.6962
-15.6962
-15.6962
-15.6963
-15.6964
-15.6964
-15.6965
-15.6966
-15.6967
-19.6204
-19.6203
-19.6203
-19.6202
-19.6201
-19.62
-19.62
-19.6199
-19.6199
-19.6199
-19.6199
-19.6199
-19.6199
-19.6199
-19.6199
-19.62
-19.62
-19.62
-19.6201
-19.6202
-19.6202
-19.6203
-19.6204
-19.6205
-19.6206
-19.6207
-19.6208
-19.6209
-19.621
-19.6212
-19.6213
-19.6214
-19.6216
-19.6217
-19.6218
-19.622
-19.6221
-19.6223
-19.6224
-19.6226
-19.6227
-19.6228
-19.623
-19.6231
-19.6233
-19.6234
-19.6235
-19.6237
-19.6238
-19.6239
-19.6241
-19.6242
-19.6243
-19.6244
-19.6245
-19.6246
-19.6247
-19.6248
-19.6249
-19.625
-19.625
-19.6251
-19.6252
-19.6252
-19.6253
-19.6253
-19.6254
-19.6254
-19.6254
-19.6255
-19.6255
-19.6255
-19.6255
-19.6255
-19.6255
-19.6255
-19.6255
-19.6255
-19.6255
-19.6255
-19.6255
-19.6255
-19.6255
-19.6255
-19.6255
-19.6254
-19.6254
-19.6254
-19.6254
-19.6254
-19.6254
-19.6254
-19.6253
-19.6253
-19.6253
-19.6253
-19.6253
-19.6253
-19.6253
-19.6253
-19.6253
-19.6253
-19.6253
-19.6253
-19.6253
-19.6254
-19.6254
-19.6254
-19.6254
-19.6254
-19.6254
-19.6255
-19.6255
-19.6255
-19.6255
-19.6256
-19.6256
-19.6256
-19.6256
-19.6256
-19.6257
-19.6257
-19.6257
-19.6257
-19.6257
-19.6257
-19.6257
-19.6257
-19.6257
-19.6257
-19.6257
-19.6256
-19.6256
-19.6256
-19.6256
-19.6255
-19.6255
-19.6254
-19.6253
-19.6253
-19.6252
-19.6251
-19.6251
-19.625
-19.6249
-19.6248
-19.6247
-19.6246
-19.6245
-19.6243
-19.6242
-19.6241
-19.624
-19.6238
-19.6237
-19.6236
-19.6234
-19.6233
-19.6232
-19.623
-19.6229
-19.6227
-19.6226
-19.6224
-19.6223
-19.6222
-19.622
-19.6219
-19.6218
-19.6216
-19.6215
-19.6214
-19.6213
-19.6211
-19.621
-19.6209
-19.6208
-19.6207
-19.6207
-19.6206
-19.6205
-19.6204
-19.6204
-19.6203
-19.6203
-19.6203
-19.6202
-19.6202
-19.6202
-19.6202
-19.6202
-19.6203
-19.6203
-19.6203
-19.6204
-19.6204
-19.6205
-19.6206
-19.6207
-19.6208
-23.5445
-23.5444
-23.5443
-23.5443
-23.5442
-23.5441
-23.5441
-23.544
-23.544
-23.544
-23.544
-23.544
-23.544
-23.544
-23.544
-23.544
-23.5441
-23.5441
-23.5442
-23.5442
-23.5443
-23.5444
-23.5445
-23.5446
-23.5447
-23.5448
-23.5449
-23.545
-23.5451
-23.5452
-23.5454
-23.5455
-23.5456
-23.5458
-23.5459
-23.546
-23.5462
-23.5463
-23.5465
-23.5466
-23.5468
-23.5469
-23.547
-23.5472
-23.5473
-23.5475
-23.5476
-23.5477
-23.5478
-23.548
-23.5481
-23.5482
-23.5483
-23.5484
-23.5485
-23.5486
-23.5487
-23.5488
-23.5489
-23.549
-23.549
-23.5491
-23.5492
-23.5492
-23.5493
-23.5493
-23.5494
-23.5494
-23.5494
-23.5495
-23.5495
-23.5495
-23.5495
-23.5495
-23.5495
-23.5495
-23.5495
-23.5495
-23.5495
-23.5495
-23.5495
-23.5495
-23.5495
-23.5494
-23.5494
-23.5494
-23.5494
-23.5494
-23.5493
-23.5493
-23.5493
-23.5493
-23.5493
-23.5493
-23.5493
-23.5493
-23.5493
-23.5493
-23.5493
-23.5493
-23.5493
-23.5493
-23.5493
-23.5493
-23.5493
-23.5493
-23.5493
-23.5493
-23.5494
-23.5494
-23.5494
-23.5494
-23.5495
-23.5495
-23.5495
-23.5495
-23.5495
-23.5496
-23.5496
-23.5496
-23.5496
-23.5496
-23.5497
-23.5497
-23.5497
-23.5497
-23.5497
-23.5497
-23.5497
-23.5497
-23.5497
-23.5496
-23.5496
-23.5496
-23.5496
-23.5495
-23.5495
-23.5494
-23.5494
-23.5493
-23.5492
-23.5492
-23.5491
-23.549
-23.5489
-23.5488
-23.5487
-23.5486
-23.5485
-23.5484
-23.5483
-23.5481
-23.548
-23.5479
-23.5478
-23.5476
-23.5475
-23.5473
-23.5472
-23.5471
-23.5469
-23.5468
-23.5466
-23.5465
-23.5464
-23.5462
-23.5461
-23.546
-23.5458
-23.5457
-23.5456
-23.5455
-23.5453
-23.5452
-23.5451
-23.545
-23.5449
-23.5448
-23.5447
-23.5447
-23.5446
-23.5445
-23.5445
-23.5444
-23.5444
-23.5443
-23.5443
-23.5443
-23.5443
-23.5443
-23.5443
-23.5443
-23.5444
-23.5444
-23.5445
-23.5445
-23.5446
-23.5447
-23.5448
-23.5449
-27.4686
-27.4685
-27.4684
-27.4683
-27.4683
-27.4682
-27.4682
-27.4681
-27.4681
-27.4681
-27.468
-27.468
-27.4681
-27.4681
-27.4681
-27.4681
-27.4682
-27.4682
-27.4683
-27.4683
-27.4684
-27.4685
-27.4686
-27.4686
-27.4687
-27.4689
-27.469
-27.4691
-27.4692
-27.4693
-27.4694
-27.4696
-27.4697
-27.4698
-27.47
-27.4701
-27.4702
-27.4704
-27.4705
-27.4707
-27.4708
-27.471
-27.4711
-27.4712
-27.4714
-27.4715
-27.4716
-27.4718
-27.4719
-27.472
-27.4721
-27.4722
-27.4724
-27.4725
-27.4726
-27.4727
-27.4728
-27.4728
-27.4729
-27.473
-27.4731
-27.4731
-27.4732
-27.4732
-27.4733
-27.4733
-27.4734
-27.4734
-27.4734
-27.4735
-27.4735
-27.4735
-27.4735
-27.4735
-27.4735
-27.4735
-27.4735
-27.4735
-27.4735
-27.4735
-27.4735
-27.4734
-27.4734
-27.4734
-27.4734
-27.4734
-27.4734
-27.4733
-27.4733
-27.4733
-27.4733
-27.4733
-27.4733
-27.4732
-27.4732
-27.4732
-27.4732
-27.4732
-27.4732
-27.4732
-27.4732
-27.4732
-27.4732
-27.4732
-27.4733
-27.4733
-27.4733
-27.4733
-27.4733
-27.4733
-27.4734
-27.4734
-27.4734
-27.4734
-27.4735
-27.4735
-27.4735
-27.4735
-27.4736
-27.4736
-27.4736
-27.4736
-27.4736
-27.4737
-27.4737
-27.4737
-27.4737
-27.4737
-27.4737
-27.4737
-27.4737
-27.4736
-27.4736
-27.4736
-27.4736
-27.4735
-27.4735
-27.4734
-27.4734
-27.4733
-27.4733
-27.4732
-27.4731
-27.473
-27.4729
-27.4728
-27.4727
-27.4726
-27.4725
-27.4724
-27.4723
-27.4722
-27.4721
-27.4719
-27.4718
-27.4717
-27.4715
-27.4714
-27.4713
-27.4711
-27.471
-27.4708
-27.4707
-27.4706
-27.4704
-27.4703
-27.4702
-27.47
-27.4699
-27.4698
-27.4696
-27.4695
-27.4694
-27.4693
-27.4692
-27.4691
-27.469
-27.4689
-27.4688
-27.4687
-27.4687
-27.4686
-27.4685
-27.4685
-27.4685
-27.4684
-27.4684
-27.4684
-27.4684
-27.4684
-27.4684
-27.4684
-27.4685
-27.4685
-27.4686
-27.4686
-27.4687
-27.4688
-27.4689
-27.469
-31.3927
-31.3926
-31.3925
-31.3924
-31.3924
-31.3923
-31.3922
-31.3922
-31.3922
-31.3921
-31.3921
-31.3921
-31.3921
-31.3921
-31.3922
-31.3922
-31.3922
-31.3923
-31.3923
-31.3924
-31.3925
-31.3926
-31.3926
-31.3927
-31.3928
-31.3929
-31.393
-31.3931
-31.3933
-31.3934
-31.3935
-31.3936
-31.3938
-31.3939
-31.394
-31.3942
-31.3943
-31.3944
-31.3946
-31.3947
-31.3949
-31.395
-31.3951
-31.3953
-31.3954
-31.3956
-31.3957
-31.3958
-31.3959
-31.3961
-31.3962
-31.3963
-31.3964
-31.3965
-31.3966
-31.3967
-31.3968
-31.3969
-31.3969
-31.397
-31.3971
-31.3972
-31.3972
-31.3973
-31.3973
-31.3974
-31.3974
-31.3974
-31.3974
-31.3975
-31.3975
-31.3975
-31.3975
-31.3975
-31.3975
-31.3975
-31.3975
-31.3975
-31.3975
-31.3975
-31.3975
-31.3974
-31.3974
-31.3974
-31.3974
-31.3974
-31.3973
-31.3973
-31.3973
-31.3973
-31.3973
-31.3972
-31.3972
-31.3972
-31.3972
-31.3972
-31.3972
-31.3972
-31.3972
-31.3972
-31.3972
-31.3972
-31.3972
-31.3972
-31.3972
-31.3972
-31.3973
-31.3973
-31.3973
-31.3973
-31.3974
-31.3974
-31.3974
-31.3974
-31.3975
-31.3975
-31.3975
-31.3975
-31.3976
-31.3976
-31.3976
-31.3976
-31.3976
-31.3977
-31.3977
-31.3977
-31.3977
-31.3977
-31.3977
-31.3977
-31.3977
-31.3977
-31.3976
-31.3976
-31.3976
-31.3975
-31.3975
-31.3975
-31.3974
-31.3973
-31.3973
-31.3972
-31.3971
-31.3971
-31.397
-31.3969
-31.3968
-31.3967
-31.3966
-31.3965
-31.3964
-31.3962
-31.3961
-31.396
-31.3959
-31.3957
-31.3956
-31.3955
-31.3953
-31.3952
-31.3951
-31.3949
-31.3948
-31.3946
-31.3945
-31.3944
-31.3942
-31.3941
-31.394
-31.3938
-31.3937
-31.3936
-31.3935
-31.3934
-31.3933
-31.3932
-31.3931
-31.393
-31.3929
-31.3928
-31.3927
-31.3927
-31.3926
-31.3926
-31.3925
-31.3925
-31.3925
-31.3925
-31.3925
-31.3925
-31.3925
-31.3925
-31.3926
-31.3926
-31.3926
-31.3927
-31.3928
-31.3929
-31.393
-31.3931
-35.3168
-35.3167
-35.3166
-35.3165
-35.3165
-35.3164
-35.3163
-35.3163
-35.3163
-35.3162
-35.3162
-35.3162
-35.3162
-35.3162
-35.3163
-35.3163
-35.3163
-35.3164
-35.3164
-35.3165
-35.3166
-35.3166
-35.3167
-35.3168
-35.3169
-35.317
-35.3171
-35.3172
-35.3173
-35.3175
-35.3176
-35.3177
-35.3178
-35.318
-35.3181
-35.3182
-35.3184
-35.3185
-35.3187
-35.3188
-35.3189
-35.3191
-35.3192
-35.3193
-35.3195
-35.3196
-35.3197
-35.3199
-35.32
-35.3201
-35.3202
-35.3203
-35.3204
-35.3205
-35.3206
-35.3207
-35.3208
-35.3209
-35.321
-35.3211
-35.3211
-35.3212
-35.3212
-35.3213
-35.3213
-35.3214
-35.3214
-35.3214
-35.3215
-35.3215
-35.3215
-35.3215
-35.3215
-35.3215
-35.3215
-35.3215
-35.3215
-35.3215
-35.3215
-35.3215
-35.3215
-35.3214
-35.3214
-35.3214
-35.3214
-35.3214
-35.3213
-35.3213
-35.3213
-35.3213
-35.3213
-35.3212
-35.3212
-35.3212
-35.3212
-35.3212
-35.3212
-35.3212
-35.3212
-35.3212
-35.3212
-35.3212
-35.3212
-35.3212
-35.3212
-35.3212
-35.3213
-35.3213
-35.3213
-35.3213
-35.3213
-35.3214
-35.3214
-35.3214
-35.3215
-35.3215
-35.3215
-35.3215
-35.3216
-35.3216
-35.3216
-35.3216
-35.3217
-35.3217
-35.3217
-35.3217
-35.3217
-35.3217
-35.3217
-35.3217
-35.3217
-35.3217
-35.3217
-35.3216
-35.3216
-35.3216
-35.3215
-35.3215
-35.3214
-35.3214
-35.3213
-35.3212
-35.3212
-35.3211
-35.321
-35.3209
-35.3208
-35.3207
-35.3206
-35.3205
-35.3204
-35.3203
-35.3202
-35.32
-35.3199
-35.3198
-35.3197
-35.3195
-35.3194
-35.3193
-35.3191
-35.319
-35.3188
-35.3187
-35.3186
-35.3184
-35.3183
-35.3182
-35.318
-35.3179
-35.3178
-35.3177
-35.3176
-35.3174
-35.3173
-35.3172
-35.3171
-35.3171
-35.317
-35.3169
-35.3168
-35.3168
-35.3167
-35.3167
-35.3166
-35.3166
-35.3166
-35.3166
-35.3166
-35.3166
-35.3166
-35.3166
-35.3166
-35.3167
-35.3167
-35.3168
-35.3169
-35.317
-35.317
-35.3171
-39.2409
-39.2408
-39.2407
-39.2406
-39.2405
-39.2405
-39.2404
-39.2404
-39.2403
-39.2403
-39.2403
-39.2403
-39.2403
-39.2403
-39.2403
-39.2404
-39.2404
-39.2405
-39.2405
-39.2406
-39.2406
-39.2407
-39.2408
-39.2409
-39.241
-39.2411
-39.2412
-39.2413
-39.2414
-39.2415
-39.2417
-39.2418
-39.2419
-39.242
-39.2422
-39.2423
-39.2424
-39.2426
-39.2427
-39.2429
-39.243
-39.2431
-39.2433
-39.2434
-39.2435
-39.2437
-39.2438
-39.2439
-39.244
-39.2442
-39.2443
-39.2444
-39.2445
-39.2446
-39.2447
-39.2448
-39.2449
-39.245
-39.245
-39.2451
-39.2452
-39.2452
-39.2453
-39.2453
-39.2454
-39.2454
-39.2454
-39.2455
-39.2455
-39.2455
-39.2455
-39.2455
-39.2455
-39.2455
-39.2455
-39.2455
-39.2455
-39.2455
-39.2455
-39.2455
-39.2455
-39.2454
-39.2454
-39.2454
-39.2454
-39.2454
-39.2453
-39.2453
-39.2453
-39.2453
-39.2453
-39.2452
-39.2452
-39.2452
-39.2452
-39.2452
-39.2452
-39.2452
-39.2452
-39.2452
-39.2452
-39.2452
-39.2452
-39.2452
-39.2452
-39.2452
-39.2453
-39.2453
-39.2453
-39.2453
-39.2453
-39.2454
-39.2454
-39.2454
-39.2455
-39.2455
-39.2455
-39.2455
-39.2456
-39.2456
-39.2456
-39.2456
-39.2457
-39.2457
-39.2457
-39.2457
-39.2457
-39.2457
-39.2457
-39.2457
-39.2457
-39.2457
-39.2457
-39.2457
-39.2456
-39.2456
-39.2456
-39.2455
-39.2455
-39.2454
-39.2454
-39.2453
-39.2452
-39.2451
-39.2451
-39.245
-39.2449
-39.2448
-39.2447
-39.2446
-39.2445
-39.2443
-39.2442
-39.2441
-39.244
-39.2438
-39.2437
-39.2436
-39.2435
-39.2433
-39.2432
-39.243
-39.2429
-39.2428
-39.2426
-39.2425
-39.2424
-39.2422
-39.2421
-39.242
-39.2419
-39.2417
-39.2416
-39.2415
-39.2414
-39.2413
-39.2412
-39.2411
-39.2411
-39.241
-39.2409
-39.2408
-39.2408
-39.2407
-39.2407
-39.2407
-39.2407
-39.2406
-39.2406
-39.2407
-39.2407
-39.2407
-39.2407
-39.2408
-39.2408
-39.2409
-39.241
-39.241
-39.2411
-39.2412
-43.165
-43.1649
-43.1648
-43.1647
-43.1646
-43.1646
-43.1645
-43.1645
-43.1644
-43.1644
-43.1644
-43.1644
-43.1644
-43.1644
-43.1644
-43.1645
-43.1645
-43.1645
-43.1646
-43.1647
-43.1647
-43.1648
-43.1649
-43.165
-43.1651
-43.1652
-43.1653
-43.1654
-43.1655
-43.1656
-43.1657
-43.1659
-43.166
-43.1661
-43.1662
-43.1664
-43.1665
-43.1667
-43.1668
-43.1669
-43.1671
-43.1672
-43.1673
-43.1675
-43.1676
-43.1677
-43.1679
-43.168
-43.1681
-43.1682
-43.1683
-43.1684
-43.1686
-43.1687
-43.1687
-43.1688
-43.1689
-43.169
-43.1691
-43.1691
-43.1692
-43.1693
-43.1693
-43.1694
-43.1694
-43.1695
-43.1695
-43.1695
-43.1695
-43.1695
-43.1696
-43.1696
-43.1696
-43.1696
-43.1696
-43.1696
-43.1696
-43.1695
-43.1695
-43.1695
-43.1695
-43.1695
-43.1694
-43.1694
-43.1694
-43.1694
-43.1694
-43.1693
-43.1693
-43.1693
-43.1693
-43.1693
-43.1692
-43.1692
-43.1692
-43.1692
-43.1692
-43.1692
-43.1692
-43.1692
-43.1692
-43.1692
-43.1692
-43.1692
-43.1692
-43.1693
-43.1693
-43.1693
-43.1693
-43.1693
-43.1694
-43.1694
-43.1694
-43.1695
-43.1695
-43.1695
-43.1695
-43.1696
-43.1696
-43.1696
-43.1696
-43.1697
-43.1697
-43.1697
-43.1697
-43.1697
-43.1698
-43.1698
-43.1698
-43.1698
-43.1698
-43.1697
-43.1697
-43.1697
-43.1697
-43.1696
-43.1696
-43.1696
-43.1695
-43.1695
-43.1694
-43.1693
-43.1693
-43.1692
-43.1691
-43.169
-43.1689
-43.1688
-43.1687
-43.1686
-43.1685
-43.1684
-43.1683
-43.1682
-43.168
-43.1679
-43.1678
-43.1677
-43.1675
-43.1674
-43.1673
-43.1671
-43.167
-43.1668
-43.1667
-43.1666
-43.1664
-43.1663
-43.1662
-43.1661
-43.1659
-43.1658
-43.1657
-43.1656
-43.1655
-43.1654
-43.1653
-43.1652
-43.1651
-43.1651
-43.165
-43.1649
-43.1649
-43.1648
-43.1648
-43.1648
-43.1647
-43.1647
-43.1647
-43.1647
-43.1648
-43.1648
-43.1648
-43.1649
-43.1649
-43.165
-43.1651
-43.1651
-43.1652
-43.1653
-47.0891
-47.089
-47.0889
-47.0888
-47.0887
-47.0887
-47.0886
-47.0886
-47.0885
-47.0885
-47.0885
-47.0885
-47.0885
-47.0885
-47.0885
-47.0885
-47.0886
-47.0886
-47.0887
-47.0887
-47.0888
-47.0889
-47.089
-47.089
-47.0891
-47.0892
-47.0893
-47.0895
-47.0896
-47.0897
-47.0898
-47.0899
-47.0901
-47.0902
-47.0903
-47.0905
-47.0906
-47.0907
-47.0909
-47.091
-47.0911
-47.0913
-47.0914
-47.0915
-47.0917
-47.0918
-47.0919
-47.0921
-47.0922
-47.0923
-47.0924
-47.0925
-47.0926
-47.0927
-47.0928
-47.0929
-47.093
-47.0931
-47.0931
-47.0932
-47.0933
-47.0933
-47.0934
-47.0934
-47.0935
-47.0935
-47.0935
-47.0936
-47.0936
-47.0936
-47.0936
-47.0936
-47.0936
-47.0936
-47.0936
-47.0936
-47.0936
-47.0936
-47.0936
-47.0935
-47.0935
-47.0935
-47.0935
-47.0935
-47.0934
-47.0934
-47.0934
-47.0934
-47.0933
-47.0933
-47.0933
-47.0933
-47.0933
-47.0933
-47.0932
-47.0932
-47.0932
-47.0932
-47.0932
-47.0932
-47.0932
-47.0932
-47.0932
-47.0933
-47.0933
-47.0933
-47.0933
-47.0933
-47.0933
-47.0934
-47.0934
-47.0934
-47.0935
-47.0935
-47.0935
-47.0935
-47.0936
-47.0936
-47.0936
-47.0937
-47.0937
-47.0937
-47.0937
-47.0938
-47.0938
-47.0938
-47.0938
-47.0938
-47.0938
-47.0938
-47.0938
-47.0938
-47.0938
-47.0938
-47.0937
-47.0937
-47.0937
-47.0936
-47.0936
-47.0935
-47.0935
-47.0934
-47.0933
-47.0933
-47.0932
-47.0931
-47.093
-47.0929
-47.0928
-47.0927
-47.0926
-47.0925
-47.0924
-47.0922
-47.0921
-47.092
-47.0919
-47.0917
-47.0916
-47.0915
-47.0913
-47.0912
-47.0911
-47.0909
-47.0908
-47.0907
-47.0905
-47.0904
-47.0903
-47.0901
-47.09
-47.0899
-47.0898
-47.0897
-47.0896
-47.0895
-47.0894
-47.0893
-47.0892
-47.0891
-47.0891
-47.089
-47.089
-47.0889
-47.0889
-47.0889
-47.0888
-47.0888
-47.0888
-47.0888
-47.0888
-47.0889
-47.0889
-47.089
-47.089
-47.0891
-47.0892
-47.0892
-47.0893
-47.0894
-51.0132
-51.0131
-51.013
-51.0129
-51.0128
-51.0128
-51.0127
-51.0127
-51.0126
-51.0126
-51.0126
-51.0126
-51.0126
-51.0126
-51.0126
-51.0126
-51.0127
-51.0127
-51.0128
-51.0128
-51.0129
-51.013
-51.013
-51.0131
-51.0132
-51.0133
-51.0134
-51.0135
-51.0137
-51.0138
-51.0139
-51.014
-51.0141
-51.0143
-51.0144
-51.0145
-51.0147
-51.0148
-51.0149
-51.0151
-51.0152
-51.0154
-51.0155
-51.0156
-51.0157
-51.0159
-51.016
-51.0161
-51.0162
-51.0164
-51.0165
-51.0166
-51.0167
-51.0168
-51.0169
-51.017
-51.017
-51.0171
-51.0172
-51.0173
-51.0173
-51.0174
-51.0174
-51.0175
-51.0175
-51.0176
-51.0176
-51.0176
-51.0176
-51.0177
-51.0177
-51.0177
-51.0177
-51.0177
-51.0177
-51.0177
-51.0176
-51.0176
-51.0176
-51.0176
-51.0176
-51.0176
-51.0175
-51.0175
-51.0175
-51.0175
-51.0174
-51.0174
-51.0174
-51.0174
-51.0173
-51.0173
-51.0173
-51.0173
-51.0173
-51.0173
-51.0173
-51.0173
-51.0173
-51.0173
-51.0173
-51.0173
-51.0173
-51.0173
-51.0173
-51.0173
-51.0173
-51.0174
-51.0174
-51.0174
-51.0174
-51.0175
-51.0175
-51.0175
-51.0176
-51.0176
-51.0176
-51.0177
-51.0177
-51.0177
-51.0177
-51.0178
-51.0178
-51.0178
-51.0178
-51.0178
-51.0179
-51.0179
-51.0179
-51.0179
-51.0179
-51.0178
-51.0178
-51.0178
-51.0178
-51.0178
-51.0177
-51.0177
-51.0176
-51.0176
-51.0175
-51.0175
-51.0174
-51.0173
-51.0172
-51.0172
-51.0171
-51.017
-51.0169
-51.0168
-51.0167
-51.0165
-51.0164
-51.0163
-51.0162
-51.0161
-51.0159
-51.0158
-51.0157
-51.0155
-51.0154
-51.0153
-51.0151
-51.015
-51.0149
-51.0147
-51.0146
-51.0145
-51.0144
-51.0142
-51.0141
-51.014
-51.0139
-51.0138
-51.0137
-51.0136
-51.0135
-51.0134
-51.0133
-51.0132
-51.0132
-51.0131
-51.0131
-51.013
-51.013
-51.0129
-51.0129
-51.0129
-51.0129
-51.0129
-51.0129
-51.013
-51.013
-51.013
-51.0131
-51.0132
-51.0132
-51.0133
-51.0134
-51.0135
-54.9373
-54.9372
-54.9371
-54.937
-54.9369
-54.9369
-54.9368
-54.9368
-54.9367
-54.9367
-54.9367
-54.9367
-54.9367
-54.9367
-54.9367
-54.9367
-54.9368
-54.9368
-54.9368
-54.9369
-54.937
-54.937
-54.9371
-54.9372
-54.9373
-54.9374
-54.9375
-54.9376
-54.9377
-54.9379
-54.938
-54.9381
-54.9382
-54.9384
-54.9385
-54.9386
-54.9388
-54.9389
-54.939
-54.9392
-54.9393
-54.9394
-54.9396
-54.9397
-54.9398
-54.94
-54.9401
-54.9402
-54.9403
-54.9404
-54.9406
-54.9407
-54.9408
-54.9409
-54.941
-54.941
-54.9411
-54.9412
-54.9413
-54.9413
-54.9414
-54.9415
-54.9415
-54.9416
-54.9416
-54.9416
-54.9417
-54.9417
-54.9417
-54.9417
-54.9417
-54.9417
-54.9417
-54.9417
-54.9417
-54.9417
-54.9417
-54.9417
-54.9417
-54.9417
-54.9416
-54.9416
-54.9416
-54.9416
-54.9415
-54.9415
-54.9415
-54.9415
-54.9414
-54.9414
-54.9414
-54.9414
-54.9414
-54.9414
-54.9413
-54.9413
-54.9413
-54.9413
-54.9413
-54.9413
-54.9413
-54.9413
-54.9413
-54.9414
-54.9414
-54.9414
-54.9414
-54.9414
-54.9415
-54.9415
-54.9415
-54.9415
-54.9416
-54.9416
-54.9416
-54.9417
-54.9417
-54.9417
-54.9417
-54.9418
-54.9418
-54.9418
-54.9419
-54.9419
-54.9419
-54.9419
-54.9419
-54.9419
-54.9419
-54.9419
-54.9419
-54.9419
-54.9419
-54.9419
-54.9419
-54.9418
-54.9418
-54.9418
-54.9417
-54.9417
-54.9416
-54.9415
-54.9415
-54.9414
-54.9413
-54.9412
-54.9411
-54.941
-54.9409
-54.9408
-54.9407
-54.9406
-54.9405
-54.9404
-54.9403
-54.9401
-54.94
-54.9399
-54.9398
-54.9396
-54.9395
-54.9394
-54.9392
-54.9391
-54.939
-54.9388
-54.9387
-54.9386
-54.9384
-54.9383
-54.9382
-54.9381
-54.938
-54.9379
-54.9377
-54.9377
-54.9376
-54.9375
-54.9374
-54.9373
-54.9373
-54.9372
-54.9371
-54.9371
-54.9371
-54.937
-54.937
-54.937
-54.937
-54.937
-54.937
-54.9371
-54.9371
-54.9371
-54.9372
-54.9373
-54.9373
-54.9374
-54.9375
-54.9376
-58.8614
-58.8613
-58.8612
-58.8611
-58.861
-58.861
-58.8609
-58.8608
-58.8608
-58.8608
-58.8608
-58.8608
-58.8607
-58.8608
-58.8608
-58.8608
-58.8608
-58.8609
-58.8609
-58.861
-58.8611
-58.8611
-58.8612
-58.8613
-58.8614
-58.8615
-58.8616
-58.8617
-58.8618
-58.8619
-58.8621
-58.8622
-58.8623
-58.8624
-58.8626
-58.8627
-58.8628
-58.863
-58.8631
-58.8632
-58.8634
-58.8635
-58.8637
-58.8638
-58.8639
-58.864
-58.8642
-58.8643
-58.8644
-58.8645
-58.8646
-58.8647
-58.8648
-58.8649
-58.865
-58.8651
-58.8652
-58.8653
-58.8654
-58.8654
-58.8655
-58.8655
-58.8656
-58.8656
-58.8657
-58.8657
-58.8657
-58.8658
-58.8658
-58.8658
-58.8658
-58.8658
-58.8658
-58.8658
-58.8658
-58.8658
-58.8658
-58.8658
-58.8658
-58.8657
-58.8657
-58.8657
-58.8657
-58.8656
-58.8656
-58.8656
-58.8656
-58.8655
-58.8655
-58.8655
-58.8655
-58.8655
-58.8654
-58.8654
-58.8654
-58.8654
-58.8654
-58.8654
-58.8654
-58.8654
-58.8654
-58.8654
-58.8654
-58.8654
-58.8654
-58.8655
-58.8655
-58.8655
-58.8655
-58.8656
-58.8656
-58.8656
-58.8656
-58.8657
-58.8657
-58.8657
-58.8658
-58.8658
-58.8658
-58.8659
-58.8659
-58.8659
-58.8659
-58.8659
-58.866
-58.866
-58.866
-58.866
-58.866
-58.866
-58.866
-58.866
-58.866
-58.866
-58.8659
-58.8659
-58.8659
-58.8658
-58.8658
-58.8657
-58.8657
-58.8656
-58.8656
-58.8655
-58.8654
-58.8653
-58.8652
-58.8651
-58.865
-58.8649
-58.8648
-58.8647
-58.8646
-58.8645
-58.8644
-58.8642
-58.8641
-58.864
-58.8638
-58.8637
-58.8636
-58.8634
-58.8633
-58.8632
-58.863
-58.8629
-58.8628
-58.8627
-58.8625
-58.8624
-58.8623
-58.8622
-58.8621
-58.8619
-58.8618
-58.8617
-58.8616
-58.8616
-58.8615
-58.8614
-58.8613
-58.8613
-58.8612
-58.8612
-58.8612
-58.8611
-58.8611
-58.8611
-58.8611
-58.8611
-58.8611
-58.8612
-58.8612