/*--------------------------------*- C++ -*----------------------------------*\
| =========                 |                                                 |
| \\      /  F ield         | OpenFOAM: The Open Source CFD Toolbox           |
|  \\    /   O peration     | Version:  2412                                  |
|   \\  /    A nd           | Website:  www.openfoam.com                      |
|    \\/     M anipulation  |                                                 |
\*---------------------------------------------------------------------------*/
FoamFile
{
    version     2.0;
    format      ascii;
    arch        "LSB;label=32;scalar=64";
    class       surfaceScalarField;
    location    "1.3";
    object      phi;
}
// * * * * * * * * * * * * * * * * * * * * * * * * * * * * * * * * * * * * * //

dimensions      [0 3 -1 0 0 0 0];

oriented        oriented;

internalField   nonuniform List<scalar> 
79600
(
5.82636e-12
-5.83655e-12
2.68103e-11
-2.09844e-11
5.46308e-11
-2.78243e-11
8.46747e-11
-3.00474e-11
1.15362e-10
-3.06838e-11
1.46197e-10
-3.08284e-11
1.76982e-10
-3.07837e-11
2.07628e-10
-3.06476e-11
2.38087e-10
-3.04608e-11
2.68329e-10
-3.02425e-11
2.9833e-10
-2.99999e-11
3.28065e-10
-2.97344e-11
3.5751e-10
-2.94455e-11
3.86641e-10
-2.91323e-11
4.15436e-10
-2.87946e-11
4.43868e-10
-2.84325e-11
4.71914e-10
-2.8046e-11
4.99549e-10
-2.7635e-11
5.26748e-10
-2.71992e-11
5.53487e-10
-2.67385e-11
5.7974e-10
-2.6253e-11
6.05484e-10
-2.57427e-11
6.30694e-10
-2.5208e-11
6.55344e-10
-2.4649e-11
6.79411e-10
-2.40662e-11
7.02871e-10
-2.34598e-11
7.257e-10
-2.28298e-11
7.47875e-10
-2.21766e-11
7.69374e-10
-2.15003e-11
7.90175e-10
-2.08012e-11
8.10254e-10
-2.00798e-11
8.2959e-10
-1.93366e-11
8.48161e-10
-1.85719e-11
8.65947e-10
-1.77864e-11
8.82926e-10
-1.69802e-11
8.9908e-10
-1.61538e-11
9.14388e-10
-1.53078e-11
9.28831e-10
-1.44426e-11
9.42391e-10
-1.3559e-11
9.5505e-10
-1.26578e-11
9.6679e-10
-1.17398e-11
9.77595e-10
-1.08056e-11
9.87451e-10
-9.85579e-12
9.96342e-10
-8.89106e-12
1.00425e-09
-7.91216e-12
1.01117e-09
-6.92004e-12
1.01709e-09
-5.91571e-12
1.02199e-09
-4.90016e-12
1.02587e-09
-3.87432e-12
1.0287e-09
-2.83893e-12
1.0305e-09
-1.79462e-12
1.03124e-09
-7.42022e-13
1.03092e-09
3.23615e-13
1.02953e-09
1.39e-12
1.02706e-09
2.4619e-12
1.02353e-09
3.5346e-12
1.01892e-09
4.60535e-12
1.01325e-09
5.67392e-12
1.00651e-09
6.74024e-12
9.98709e-10
7.80349e-12
9.89847e-10
8.86248e-12
9.79932e-10
9.91588e-12
9.68969e-10
1.09625e-11
9.56969e-10
1.20011e-11
9.43939e-10
1.30305e-11
9.29891e-10
1.40494e-11
9.14835e-10
1.50562e-11
8.98787e-10
1.60495e-11
8.81759e-10
1.7028e-11
8.63769e-10
1.79906e-11
8.44834e-10
1.89361e-11
8.24971e-10
1.98634e-11
8.04201e-10
2.0771e-11
7.82544e-10
2.16575e-11
7.60022e-10
2.25216e-11
7.36659e-10
2.33623e-11
7.12481e-10
2.41787e-11
6.87512e-10
2.497e-11
6.61779e-10
2.57351e-11
6.35308e-10
2.64725e-11
6.08128e-10
2.71812e-11
5.80269e-10
2.78602e-11
5.51761e-10
2.85085e-11
5.22636e-10
2.91256e-11
4.92926e-10
2.97106e-11
4.62663e-10
3.02627e-11
4.31881e-10
3.07812e-11
4.00615e-10
3.12655e-11
3.689e-10
3.17151e-11
3.36771e-10
3.21296e-11
3.04263e-10
3.25083e-11
2.71413e-10
3.28503e-11
2.38258e-10
3.3155e-11
2.04834e-10
3.34222e-11
1.71182e-10
3.36517e-11
1.37338e-10
3.38435e-11
1.03341e-10
3.39974e-11
6.92283e-11
3.41131e-11
3.50385e-11
3.41901e-11
8.10509e-13
3.42281e-11
-3.34177e-11
3.42285e-11
-6.76087e-11
3.41913e-11
-1.01724e-10
3.4115e-11
-1.35724e-10
3.39999e-11
-1.69571e-10
3.38461e-11
-2.03227e-10
3.36542e-11
-2.36652e-10
3.34247e-11
-2.6981e-10
3.3158e-11
-3.02663e-10
3.2854e-11
-3.35176e-10
3.2513e-11
-3.67313e-10
3.21353e-11
-3.99035e-10
3.17216e-11
-4.30308e-10
3.12726e-11
-4.61097e-10
3.07889e-11
-4.91368e-10
3.02709e-11
-5.21088e-10
2.97191e-11
-5.50221e-10
2.91344e-11
-5.78738e-10
2.85178e-11
-6.06606e-10
2.78702e-11
-6.33796e-10
2.7192e-11
-6.60279e-10
2.6484e-11
-6.86026e-10
2.57471e-11
-7.11008e-10
2.49827e-11
-7.352e-10
2.41921e-11
-7.58576e-10
2.33761e-11
-7.81112e-10
2.25356e-11
-8.02784e-10
2.16715e-11
-8.2357e-10
2.07853e-11
-8.43448e-10
1.98787e-11
-8.624e-10
1.89527e-11
-8.80407e-10
1.80078e-11
-8.97453e-10
1.70453e-11
-9.1352e-10
1.60669e-11
-9.28594e-10
1.50741e-11
-9.42661e-10
1.40682e-11
-9.55712e-10
1.30505e-11
-9.67734e-10
1.20219e-11
-9.78718e-10
1.09835e-11
-9.88656e-10
9.93745e-12
-9.9754e-10
8.88528e-12
-1.00537e-09
7.827e-12
-1.01213e-09
6.76327e-12
-1.01783e-09
5.69641e-12
-1.02246e-09
4.62761e-12
-1.02601e-09
3.55637e-12
-1.0285e-09
2.48327e-12
-1.02991e-09
1.41137e-12
-1.03026e-09
3.45323e-13
-1.02954e-09
-7.19335e-13
-1.02777e-09
-1.77027e-12
-1.02495e-09
-2.81403e-12
-1.0211e-09
-3.84928e-12
-1.01623e-09
-4.8742e-12
-1.01034e-09
-5.88875e-12
-1.00345e-09
-6.89226e-12
-9.95564e-10
-7.88372e-12
-9.86702e-10
-8.86256e-12
-9.76875e-10
-9.82726e-12
-9.66098e-10
-1.07771e-11
-9.54387e-10
-1.1712e-11
-9.41757e-10
-1.26302e-11
-9.28226e-10
-1.35306e-11
-9.13812e-10
-1.44139e-11
-8.98533e-10
-1.5279e-11
-8.82411e-10
-1.61243e-11
-8.6546e-10
-1.69499e-11
-8.47704e-10
-1.77561e-11
-8.29162e-10
-1.85416e-11
-8.09856e-10
-1.93054e-11
-7.89806e-10
-2.00481e-11
-7.69036e-10
-2.07698e-11
-7.47567e-10
-2.14694e-11
-7.25422e-10
-2.21451e-11
-7.02625e-10
-2.27971e-11
-6.79199e-10
-2.34258e-11
-6.55169e-10
-2.40301e-11
-6.30557e-10
-2.46107e-11
-6.0539e-10
-2.51678e-11
-5.79688e-10
-2.57012e-11
-5.53476e-10
-2.62107e-11
-5.2678e-10
-2.66948e-11
-4.99625e-10
-2.71541e-11
-4.72036e-10
-2.75889e-11
-4.4404e-10
-2.7997e-11
-4.15659e-10
-2.83787e-11
-3.86923e-10
-2.87355e-11
-3.57855e-10
-2.90668e-11
-3.28481e-10
-2.93726e-11
-2.98826e-10
-2.96537e-11
-2.68916e-10
-2.99098e-11
-2.38776e-10
-3.01392e-11
-2.08432e-10
-3.03426e-11
-1.77912e-10
-3.05209e-11
-1.47242e-10
-3.06694e-11
-1.16461e-10
-3.0777e-11
-8.56766e-11
-3.07812e-11
-5.53145e-11
-3.03625e-11
-2.70416e-11
-2.82826e-11
-5.77954e-12
-2.12843e-11
-5.79991e-12
2.09793e-11
-2.68164e-11
6.96751e-11
-6.96766e-11
1.29111e-10
-8.72557e-11
1.91655e-10
-9.25962e-11
2.54977e-10
-9.4011e-11
3.18429e-10
-9.42803e-11
3.81777e-10
-9.41263e-11
4.44889e-10
-9.37562e-11
5.07678e-10
-9.32504e-11
5.70078e-10
-9.26451e-11
6.32033e-10
-9.19566e-11
6.9349e-10
-9.11916e-11
7.54398e-10
-9.03527e-11
8.14706e-10
-8.94402e-11
8.74365e-10
-8.84542e-11
9.33326e-10
-8.73944e-11
9.9154e-10
-8.62607e-11
1.04896e-09
-8.50531e-11
1.10553e-09
-8.37715e-11
1.16121e-09
-8.2416e-11
1.21595e-09
-8.09866e-11
1.26969e-09
-7.94836e-11
1.32239e-09
-7.79073e-11
1.374e-09
-7.62582e-11
1.42447e-09
-7.45366e-11
1.47375e-09
-7.27427e-11
1.5218e-09
-7.0877e-11
1.56856e-09
-6.894e-11
1.61399e-09
-6.69324e-11
1.65804e-09
-6.48549e-11
1.70067e-09
-6.27084e-11
1.74182e-09
-6.04939e-11
1.78146e-09
-5.82123e-11
1.81954e-09
-5.58644e-11
1.85601e-09
-5.34513e-11
1.89083e-09
-5.09741e-11
1.92396e-09
-4.84342e-11
1.95535e-09
-4.58331e-11
1.98497e-09
-4.31725e-11
2.01276e-09
-4.0454e-11
2.0387e-09
-3.76793e-11
2.06275e-09
-3.485e-11
2.08486e-09
-3.19681e-11
2.105e-09
-2.90354e-11
2.12315e-09
-2.60541e-11
2.13925e-09
-2.30268e-11
2.1533e-09
-1.9956e-11
2.16524e-09
-1.68443e-11
2.17506e-09
-1.36943e-11
2.18273e-09
-1.05082e-11
2.18822e-09
-7.28848e-12
2.19152e-09
-4.03645e-12
2.19259e-09
-7.50986e-13
2.19142e-09
2.56116e-12
2.18799e-09
5.89154e-12
2.18229e-09
9.23133e-12
2.17432e-09
1.25773e-11
2.16407e-09
1.5928e-11
2.15153e-09
1.92813e-11
2.1367e-09
2.26339e-11
2.11958e-09
2.59821e-11
2.10018e-09
2.93219e-11
2.07849e-09
3.26493e-11
2.05453e-09
3.59602e-11
2.02831e-09
3.92503e-11
1.99985e-09
4.25149e-11
1.96916e-09
4.57496e-11
1.93626e-09
4.89499e-11
1.90118e-09
5.21114e-11
1.86394e-09
5.523e-11
1.82457e-09
5.83011e-11
1.78312e-09
6.13203e-11
1.73961e-09
6.4283e-11
1.69408e-09
6.71848e-11
1.64658e-09
7.00212e-11
1.59715e-09
7.27885e-11
1.54585e-09
7.54824e-11
1.49273e-09
7.8099e-11
1.43783e-09
8.06338e-11
1.38122e-09
8.30827e-11
1.32296e-09
8.54416e-11
1.26312e-09
8.7707e-11
1.20175e-09
8.98754e-11
1.13893e-09
9.19434e-11
1.07474e-09
9.39079e-11
1.00923e-09
9.57656e-11
9.425e-10
9.75135e-11
8.74617e-10
9.9149e-11
8.05664e-10
1.0067e-10
7.35722e-10
1.02072e-10
6.64876e-10
1.03355e-10
5.93211e-10
1.04515e-10
5.20814e-10
1.0555e-10
4.47775e-10
1.0646e-10
3.74183e-10
1.07242e-10
3.0013e-10
1.07897e-10
2.25706e-10
1.08422e-10
1.51004e-10
1.08816e-10
7.61152e-11
1.09079e-10
1.1337e-12
1.0921e-10
-7.38481e-11
1.09211e-10
-1.48738e-10
1.09081e-10
-2.23444e-10
1.0882e-10
-2.97872e-10
1.08426e-10
-3.7193e-10
1.07902e-10
-4.45526e-10
1.07249e-10
-5.18568e-10
1.06468e-10
-5.90969e-10
1.05559e-10
-6.6264e-10
1.04525e-10
-7.33494e-10
1.03366e-10
-8.03445e-10
1.02085e-10
-8.72409e-10
1.00684e-10
-9.40302e-10
9.91662e-11
-1.00705e-09
9.75328e-11
-1.07256e-09
9.57865e-11
-1.13677e-09
9.39301e-11
-1.1996e-09
9.1967e-11
-1.26098e-09
8.99002e-11
-1.32084e-09
8.77328e-11
-1.37911e-09
8.54681e-11
-1.43574e-09
8.31096e-11
-1.49065e-09
8.06617e-11
-1.5438e-09
7.81284e-11
-1.59512e-09
7.55138e-11
-1.64457e-09
7.28213e-11
-1.69209e-09
7.00551e-11
-1.73764e-09
6.72196e-11
-1.78117e-09
6.43193e-11
-1.82265e-09
6.13585e-11
-1.86204e-09
5.83412e-11
-1.8993e-09
5.52713e-11
-1.93441e-09
5.21533e-11
-1.96733e-09
4.89926e-11
-1.99805e-09
4.5794e-11
-2.02654e-09
4.25611e-11
-2.05279e-09
3.9298e-11
-2.07678e-09
3.60098e-11
-2.0985e-09
3.27008e-11
-2.11793e-09
2.93747e-11
-2.13509e-09
2.60358e-11
-2.14995e-09
2.26879e-11
-2.16252e-09
1.93345e-11
-2.17281e-09
1.59805e-11
-2.18081e-09
1.26299e-11
-2.18654e-09
9.28396e-12
-2.19e-09
5.94383e-12
-2.19121e-09
2.61399e-12
-2.19016e-09
-6.96814e-13
-2.1869e-09
-3.98067e-12
-2.18144e-09
-7.23083e-12
-2.17381e-09
-1.04491e-11
-2.16402e-09
-1.3634e-11
-2.15211e-09
-1.67821e-11
-2.13811e-09
-1.98916e-11
-2.12204e-09
-2.29611e-11
-2.10394e-09
-2.59876e-11
-2.08384e-09
-2.8968e-11
-2.06176e-09
-3.19003e-11
-2.03776e-09
-3.47822e-11
-2.01186e-09
-3.76121e-11
-1.9841e-09
-4.03877e-11
-1.95453e-09
-4.31059e-11
-1.92318e-09
-4.57657e-11
-1.89009e-09
-4.83664e-11
-1.85531e-09
-5.09053e-11
-1.81888e-09
-5.33803e-11
-1.78084e-09
-5.57915e-11
-1.74124e-09
-5.81387e-11
-1.70013e-09
-6.04198e-11
-1.65754e-09
-6.26338e-11
-1.61353e-09
-6.47801e-11
-1.56814e-09
-6.68577e-11
-1.52142e-09
-6.88639e-11
-1.47342e-09
-7.07979e-11
-1.42419e-09
-7.26601e-11
-1.37377e-09
-7.44501e-11
-1.32221e-09
-7.61676e-11
-1.26956e-09
-7.7814e-11
-1.21588e-09
-7.93878e-11
-1.1612e-09
-8.08884e-11
-1.10557e-09
-8.23161e-11
-1.04906e-09
-8.36691e-11
-9.91701e-10
-8.49462e-11
-9.3355e-10
-8.6147e-11
-8.74654e-10
-8.72721e-11
-8.15066e-10
-8.83224e-11
-7.54832e-10
-8.92976e-11
-6.94004e-10
-9.01986e-11
-6.32631e-10
-9.10262e-11
-5.70761e-10
-9.17778e-11
-5.08445e-10
-9.24539e-11
-4.45732e-10
-9.30552e-11
-3.8267e-10
-9.35809e-11
-3.19313e-10
-9.40268e-11
-2.55727e-10
-9.43639e-11
-1.92082e-10
-9.4425e-11
-1.29043e-10
-9.3387e-11
-6.91946e-11
-8.80937e-11
-2.05676e-11
-6.9863e-11
-2.63806e-11
2.74877e-11
-5.43079e-11
8.70908e-11
-1.29283e-10
1.58292e-10
-1.5845e-10
2.32563e-10
-1.66863e-10
3.07412e-10
-1.68861e-10
3.82249e-10
-1.69119e-10
4.56912e-10
-1.6879e-10
5.31308e-10
-1.6815e-10
6.05352e-10
-1.67294e-10
6.7897e-10
-1.66264e-10
7.52094e-10
-1.65082e-10
8.24659e-10
-1.63758e-10
8.96604e-10
-1.62298e-10
9.67868e-10
-1.60704e-10
1.03839e-09
-1.58978e-10
1.10812e-09
-1.5712e-10
1.17698e-09
-1.5513e-10
1.24494e-09
-1.53009e-10
1.31192e-09
-1.50755e-10
1.37788e-09
-1.4837e-10
1.44275e-09
-1.45854e-10
1.50647e-09
-1.43207e-10
1.56899e-09
-1.4043e-10
1.63026e-09
-1.37523e-10
1.69021e-09
-1.34486e-10
1.74878e-09
-1.3132e-10
1.80593e-09
-1.28025e-10
1.86159e-09
-1.24603e-10
1.91571e-09
-1.21053e-10
1.96823e-09
-1.17378e-10
2.0191e-09
-1.13579e-10
2.06827e-09
-1.09657e-10
2.11567e-09
-1.05613e-10
2.16125e-09
-1.01449e-10
2.20497e-09
-9.71655e-11
2.24676e-09
-9.27656e-11
2.28658e-09
-8.82511e-11
2.32437e-09
-8.36243e-11
2.36009e-09
-7.88879e-11
2.39368e-09
-7.40443e-11
2.4251e-09
-6.90963e-11
2.45429e-09
-6.40465e-11
2.48122e-09
-5.88982e-11
2.50584e-09
-5.36547e-11
2.52811e-09
-4.83197e-11
2.54798e-09
-4.28974e-11
2.56541e-09
-3.73919e-11
2.58038e-09
-3.18077e-11
2.59283e-09
-2.61491e-11
2.60274e-09
-2.04207e-11
2.61008e-09
-1.46273e-11
2.61482e-09
-8.7737e-12
2.61694e-09
-2.86513e-12
2.6164e-09
3.09291e-12
2.6132e-09
9.09375e-12
2.60731e-09
1.51249e-11
2.5987e-09
2.11816e-11
2.58738e-09
2.72583e-11
2.57331e-09
3.33489e-11
2.5565e-09
3.94468e-11
2.53693e-09
4.55446e-11
2.51462e-09
5.16351e-11
2.48956e-09
5.77107e-11
2.46176e-09
6.37638e-11
2.43122e-09
6.97862e-11
2.39797e-09
7.57698e-11
2.36201e-09
8.17061e-11
2.32338e-09
8.75869e-11
2.28208e-09
9.3404e-11
2.23817e-09
9.91491e-11
2.19166e-09
1.04814e-10
2.14259e-09
1.10389e-10
2.091e-09
1.15868e-10
2.03695e-09
1.2124e-10
1.98047e-09
1.26498e-10
1.92163e-09
1.31633e-10
1.86047e-09
1.36638e-10
1.79707e-09
1.41505e-10
1.73148e-09
1.46224e-10
1.66377e-09
1.50789e-10
1.59403e-09
1.5519e-10
1.52231e-09
1.59422e-10
1.44871e-09
1.63477e-10
1.37331e-09
1.67348e-10
1.29619e-09
1.71029e-10
1.21744e-09
1.74512e-10
1.13716e-09
1.77792e-10
1.05545e-09
1.80863e-10
9.72402e-10
1.8372e-10
8.88118e-10
1.86357e-10
8.02703e-10
1.8877e-10
7.16262e-10
1.90954e-10
6.28905e-10
1.92905e-10
5.40743e-10
1.9462e-10
4.51889e-10
1.96096e-10
3.62456e-10
1.97331e-10
2.72557e-10
1.98321e-10
1.82308e-10
1.99066e-10
9.18247e-11
1.99563e-10
1.22365e-12
1.99811e-10
-8.93779e-11
1.99813e-10
-1.79863e-10
1.99566e-10
-2.70115e-10
1.99071e-10
-3.60019e-10
1.98328e-10
-4.49457e-10
1.9734e-10
-5.38316e-10
1.96108e-10
-6.26481e-10
1.94634e-10
-7.13843e-10
1.92921e-10
-8.0029e-10
1.90971e-10
-8.85713e-10
1.88789e-10
-9.70007e-10
1.86379e-10
-1.05307e-09
1.83744e-10
-1.13479e-09
1.80891e-10
-1.21508e-09
1.77822e-10
-1.29384e-09
1.74545e-10
-1.37097e-09
1.71064e-10
-1.44639e-09
1.67386e-10
-1.52e-09
1.63517e-10
-1.59173e-09
1.59463e-10
-1.6615e-09
1.55233e-10
-1.72922e-09
1.50832e-10
-1.79483e-09
1.46269e-10
-1.85825e-09
1.41553e-10
-1.91943e-09
1.36689e-10
-1.97829e-09
1.31686e-10
-2.03479e-09
1.26553e-10
-2.08887e-09
1.21297e-10
-2.14047e-09
1.15927e-10
-2.18956e-09
1.10451e-10
-2.2361e-09
1.04878e-10
-2.28005e-09
9.92148e-11
-2.32136e-09
9.34714e-11
-2.36003e-09
8.76562e-11
-2.39601e-09
8.17779e-11
-2.42929e-09
7.58441e-11
-2.45985e-09
6.98626e-11
-2.48769e-09
6.38424e-11
-2.51278e-09
5.77918e-11
-2.53512e-09
5.17179e-11
-2.55472e-09
4.56278e-11
-2.57156e-09
3.95299e-11
-2.58566e-09
3.34321e-11
-2.59702e-09
2.73415e-11
-2.60566e-09
2.12653e-11
-2.61158e-09
1.52092e-11
-2.61482e-09
9.17815e-12
-2.61538e-09
3.17809e-12
-2.6133e-09
-2.77832e-12
-2.6086e-09
-8.68529e-12
-2.60129e-09
-1.45375e-11
-2.59142e-09
-2.03288e-11
-2.579e-09
-2.60548e-11
-2.56407e-09
-3.17109e-11
-2.54667e-09
-3.72926e-11
-2.52683e-09
-4.27963e-11
-2.5046e-09
-4.82173e-11
-2.48002e-09
-5.3551e-11
-2.45313e-09
-5.87941e-11
-2.42397e-09
-6.39427e-11
-2.39259e-09
-6.89929e-11
-2.35903e-09
-7.39419e-11
-2.32336e-09
-7.87861e-11
-2.2856e-09
-8.35219e-11
-2.24582e-09
-8.81474e-11
-2.20407e-09
-9.26602e-11
-2.16039e-09
-9.70576e-11
-2.11484e-09
-1.01338e-10
-2.06748e-09
-1.05501e-10
-2.01835e-09
-1.09545e-10
-1.96752e-09
-1.13467e-10
-1.91503e-09
-1.17266e-10
-1.86095e-09
-1.20939e-10
-1.80533e-09
-1.24487e-10
-1.74822e-09
-1.27906e-10
-1.68968e-09
-1.31197e-10
-1.62977e-09
-1.34359e-10
-1.56855e-09
-1.37392e-10
-1.50607e-09
-1.40296e-10
-1.44238e-09
-1.43071e-10
-1.37756e-09
-1.45715e-10
-1.31164e-09
-1.4823e-10
-1.2447e-09
-1.50611e-10
-1.17679e-09
-1.52859e-10
-1.10796e-09
-1.54975e-10
-1.03827e-09
-1.56958e-10
-9.67783e-10
-1.58808e-10
-8.96553e-10
-1.60526e-10
-8.24638e-10
-1.62113e-10
-7.52095e-10
-1.63568e-10
-6.78981e-10
-1.64891e-10
-6.05354e-10
-1.66082e-10
-5.3127e-10
-1.6714e-10
-4.56785e-10
-1.68064e-10
-3.81959e-10
-1.6885e-10
-3.06873e-10
-1.69454e-10
-2.31718e-10
-1.69594e-10
-1.5721e-10
-1.67916e-10
-8.6084e-11
-1.59233e-10
-2.69873e-11
-1.28941e-10
-5.33709e-11
2.91586e-11
-8.34661e-11
9.17383e-11
-1.91872e-10
1.66399e-10
-2.3311e-10
2.44157e-10
-2.44615e-10
3.22363e-10
-2.47064e-10
4.0043e-10
-2.47186e-10
4.78241e-10
-2.46602e-10
5.5574e-10
-2.4565e-10
6.32867e-10
-2.4442e-10
7.09555e-10
-2.42952e-10
7.85737e-10
-2.41264e-10
8.61348e-10
-2.3937e-10
9.36324e-10
-2.37275e-10
1.0106e-09
-2.34985e-10
1.08412e-09
-2.32499e-10
1.15682e-09
-2.29821e-10
1.22864e-09
-2.26951e-10
1.29952e-09
-2.23889e-10
1.3694e-09
-2.20635e-10
1.43822e-09
-2.1719e-10
1.50592e-09
-2.13554e-10
1.57244e-09
-2.09728e-10
1.63772e-09
-2.05712e-10
1.7017e-09
-2.01507e-10
1.76433e-09
-1.97112e-10
1.82554e-09
-1.9253e-10
1.88527e-09
-1.87759e-10
1.94347e-09
-1.82803e-10
2.00008e-09
-1.77661e-10
2.05504e-09
-1.72335e-10
2.10829e-09
-1.66827e-10
2.15977e-09
-1.61138e-10
2.20943e-09
-1.5527e-10
2.2572e-09
-1.49226e-10
2.30305e-09
-1.43006e-10
2.3469e-09
-1.36615e-10
2.3887e-09
-1.30054e-10
2.42841e-09
-1.23328e-10
2.46596e-09
-1.16439e-10
2.5013e-09
-1.0939e-10
2.53439e-09
-1.02186e-10
2.56518e-09
-9.48302e-11
2.5936e-09
-8.73273e-11
2.61963e-09
-7.96819e-11
2.64321e-09
-7.18995e-11
2.6643e-09
-6.39855e-11
2.68285e-09
-5.59459e-11
2.69883e-09
-4.77869e-11
2.7122e-09
-3.95148e-11
2.72292e-09
-3.11366e-11
2.73095e-09
-2.26596e-11
2.73627e-09
-1.40918e-11
2.73884e-09
-5.44225e-12
2.73866e-09
3.28068e-12
2.73568e-09
1.20695e-11
2.72989e-09
2.09149e-11
2.72126e-09
2.98079e-11
2.70979e-09
3.87389e-11
2.69544e-09
4.76975e-11
2.67821e-09
5.66734e-11
2.6581e-09
6.56557e-11
2.6351e-09
7.46335e-11
2.60922e-09
8.35958e-11
2.58045e-09
9.25309e-11
2.54881e-09
1.01427e-10
2.51431e-09
1.10272e-10
2.47696e-09
1.19053e-10
2.43679e-09
1.27758e-10
2.39382e-09
1.36375e-10
2.34808e-09
1.4489e-10
2.2996e-09
1.53293e-10
2.24843e-09
1.61569e-10
2.19459e-09
1.69705e-10
2.13814e-09
1.7769e-10
2.07912e-09
1.8551e-10
2.0176e-09
1.93153e-10
1.95363e-09
2.00607e-10
1.88728e-09
2.07858e-10
1.81861e-09
2.14894e-10
1.7477e-09
2.21703e-10
1.67462e-09
2.28274e-10
1.59944e-09
2.34595e-10
1.52227e-09
2.40655e-10
1.44317e-09
2.46444e-10
1.36225e-09
2.51949e-10
1.27961e-09
2.57163e-10
1.19533e-09
2.62074e-10
1.10952e-09
2.66673e-10
1.02229e-09
2.70954e-10
9.33739e-10
2.74906e-10
8.43983e-10
2.78524e-10
7.53135e-10
2.81799e-10
6.61311e-10
2.84727e-10
5.68627e-10
2.87302e-10
4.75204e-10
2.89519e-10
3.81162e-10
2.91373e-10
2.86623e-10
2.92861e-10
1.9171e-10
2.93979e-10
9.6548e-11
2.94725e-10
1.26046e-12
2.95099e-10
-9.40277e-11
2.95101e-10
-1.89192e-10
2.94729e-10
-2.84108e-10
2.93985e-10
-3.78651e-10
2.9287e-10
-4.72698e-10
2.91386e-10
-5.66126e-10
2.89536e-10
-6.58814e-10
2.87323e-10
-7.50644e-10
2.84751e-10
-8.41498e-10
2.81825e-10
-9.31261e-10
2.78552e-10
-1.01982e-09
2.74937e-10
-1.10706e-09
2.70988e-10
-1.19288e-09
2.66711e-10
-1.27717e-09
2.62114e-10
-1.35983e-09
2.57206e-10
-1.44076e-09
2.51996e-10
-1.51987e-09
2.46493e-10
-1.59706e-09
2.40708e-10
-1.67225e-09
2.34651e-10
-1.74535e-09
2.28332e-10
-1.81628e-09
2.21764e-10
-1.88497e-09
2.14957e-10
-1.95134e-09
2.07925e-10
-2.01533e-09
2.00677e-10
-2.07687e-09
1.93227e-10
-2.1359e-09
1.85586e-10
-2.19238e-09
1.77769e-10
-2.24624e-09
1.69787e-10
-2.29744e-09
1.61653e-10
-2.34594e-09
1.5338e-10
-2.39171e-09
1.44981e-10
-2.4347e-09
1.36468e-10
-2.4749e-09
1.27854e-10
-2.51227e-09
1.19151e-10
-2.5468e-09
1.10373e-10
-2.57846e-09
1.0153e-10
-2.60726e-09
9.26368e-11
-2.63317e-09
8.37042e-11
-2.6562e-09
7.47438e-11
-2.67634e-09
6.57666e-11
-2.6936e-09
5.67847e-11
-2.70798e-09
4.78099e-11
-2.71949e-09
3.88526e-11
-2.72815e-09
2.99225e-11
-2.73397e-09
2.10302e-11
-2.73697e-09
1.21853e-11
-2.73719e-09
3.3972e-12
-2.73465e-09
-5.3245e-12
-2.72937e-09
-1.39727e-11
-2.72137e-09
-2.2539e-11
-2.71068e-09
-3.10134e-11
-2.69735e-09
-3.93881e-11
-2.6814e-09
-4.76574e-11
-2.66288e-09
-5.58142e-11
-2.64183e-09
-6.38519e-11
-2.61828e-09
-7.17643e-11
-2.59229e-09
-7.95457e-11
-2.56389e-09
-8.71908e-11
-2.53314e-09
-9.46942e-11
-2.50009e-09
-1.0205e-10
-2.46478e-09
-1.09255e-10
-2.42726e-09
-1.16304e-10
-2.38759e-09
-1.23193e-10
-2.34582e-09
-1.29918e-10
-2.302e-09
-1.36476e-10
-2.2562e-09
-1.42865e-10
-2.20845e-09
-1.49083e-10
-2.15883e-09
-1.55126e-10
-2.10738e-09
-1.60993e-10
-2.05416e-09
-1.66682e-10
-1.99924e-09
-1.72189e-10
-1.94266e-09
-1.77514e-10
-1.88449e-09
-1.82654e-10
-1.82479e-09
-1.87609e-10
-1.76361e-09
-1.92375e-10
-1.70102e-09
-1.96955e-10
-1.63707e-09
-2.01346e-10
-1.57181e-09
-2.05549e-10
-1.50532e-09
-2.09563e-10
-1.43765e-09
-2.13387e-10
-1.36886e-09
-2.17021e-10
-1.299e-09
-2.20464e-10
-1.22815e-09
-2.23714e-10
-1.15635e-09
-2.26774e-10
-1.08366e-09
-2.29641e-10
-1.01015e-09
-2.32316e-10
-9.3588e-10
-2.34801e-10
-8.60899e-10
-2.37094e-10
-7.85268e-10
-2.39196e-10
-7.09051e-10
-2.41109e-10
-6.32306e-10
-2.42829e-10
-5.55089e-10
-2.44357e-10
-4.77461e-10
-2.45692e-10
-3.99483e-10
-2.46825e-10
-3.21234e-10
-2.47695e-10
-2.42903e-10
-2.47917e-10
-1.65206e-10
-2.45612e-10
-9.09032e-11
-2.3355e-10
-2.88475e-11
-1.90992e-10
-8.22175e-11
2.93984e-11
-1.12859e-10
9.25419e-11
-2.5502e-10
1.68081e-10
-3.08654e-10
2.46861e-10
-3.23395e-10
3.26093e-10
-3.26293e-10
4.05134e-10
-3.26225e-10
4.83864e-10
-3.25331e-10
5.62242e-10
-3.24028e-10
6.40221e-10
-3.22401e-10
7.17747e-10
-3.20478e-10
7.94757e-10
-3.18275e-10
8.7119e-10
-3.15804e-10
9.46984e-10
-3.1307e-10
1.02208e-09
-3.10079e-10
1.09641e-09
-3.06831e-10
1.16991e-09
-3.03329e-10
1.24253e-09
-2.99574e-10
1.31421e-09
-2.95566e-10
1.38488e-09
-2.91307e-10
1.45449e-09
-2.86796e-10
1.52297e-09
-2.82035e-10
1.59026e-09
-2.77023e-10
1.65631e-09
-2.71761e-10
1.72105e-09
-2.6625e-10
1.78443e-09
-2.60489e-10
1.84638e-09
-2.54481e-10
1.90685e-09
-2.48226e-10
1.96577e-09
-2.41725e-10
2.02309e-09
-2.34979e-10
2.07875e-09
-2.27991e-10
2.13268e-09
-2.20762e-10
2.18484e-09
-2.13294e-10
2.23516e-09
-2.05589e-10
2.28358e-09
-1.9765e-10
2.33006e-09
-1.89479e-10
2.37452e-09
-1.81081e-10
2.41693e-09
-1.72458e-10
2.45722e-09
-1.63614e-10
2.49533e-09
-1.54553e-10
2.53122e-09
-1.4528e-10
2.56483e-09
-1.358e-10
2.59612e-09
-1.26117e-10
2.62503e-09
-1.16237e-10
2.65151e-09
-1.06167e-10
2.67552e-09
-9.59125e-11
2.69702e-09
-8.54818e-11
2.71596e-09
-7.4882e-11
2.73229e-09
-6.41211e-11
2.74598e-09
-5.32075e-11
2.757e-09
-4.21503e-11
2.7653e-09
-3.0959e-11
2.77085e-09
-1.96443e-11
2.77363e-09
-8.21765e-12
2.7736e-09
3.30982e-12
2.77074e-09
1.4928e-11
2.76503e-09
2.6627e-11
2.75644e-09
3.83946e-11
2.74496e-09
5.02178e-11
2.73058e-09
6.20828e-11
2.71328e-09
7.39756e-11
2.69305e-09
8.58821e-11
2.66989e-09
9.77878e-11
2.64381e-09
1.09678e-10
2.61481e-09
1.21537e-10
2.58289e-09
1.33348e-10
2.54806e-09
1.45097e-10
2.51035e-09
1.56765e-10
2.46977e-09
1.68338e-10
2.42634e-09
1.79798e-10
2.38011e-09
1.91129e-10
2.33109e-09
2.02313e-10
2.27932e-09
2.13333e-10
2.22486e-09
2.24172e-10
2.16773e-09
2.34813e-10
2.108e-09
2.45239e-10
2.04573e-09
2.55432e-10
1.98096e-09
2.65376e-10
1.91376e-09
2.75053e-10
1.84421e-09
2.84447e-10
1.77237e-09
2.93542e-10
1.69832e-09
3.02321e-10
1.62215e-09
3.1077e-10
1.54394e-09
3.18872e-10
1.46377e-09
3.26613e-10
1.38174e-09
3.33978e-10
1.29795e-09
3.40954e-10
1.2125e-09
3.47526e-10
1.12549e-09
3.53684e-10
1.03703e-09
3.59415e-10
9.47227e-10
3.64709e-10
8.56194e-10
3.69555e-10
7.64047e-10
3.73945e-10
6.70903e-10
3.7787e-10
5.76884e-10
3.81322e-10
4.8211e-10
3.84294e-10
3.86705e-10
3.86779e-10
2.90792e-10
3.88773e-10
1.94499e-10
3.90272e-10
9.79509e-11
3.91273e-10
1.2755e-12
3.91775e-10
-9.54006e-11
3.91777e-10
-1.91951e-10
3.91278e-10
-2.88247e-10
3.90281e-10
-3.84163e-10
3.88785e-10
-4.79573e-10
3.86795e-10
-5.74352e-10
3.84314e-10
-6.68376e-10
3.81347e-10
-7.61525e-10
3.779e-10
-8.53679e-10
3.73979e-10
-9.4472e-10
3.69593e-10
-1.03453e-09
3.6475e-10
-1.123e-09
3.5946e-10
-1.21002e-09
3.53732e-10
-1.29549e-09
3.47577e-10
-1.37929e-09
3.41008e-10
-1.46133e-09
3.34036e-10
-1.54151e-09
3.26674e-10
-1.61974e-09
3.18938e-10
-1.69593e-09
3.1084e-10
-1.76999e-09
3.02395e-10
-1.84185e-09
2.9362e-10
-1.91142e-09
2.84529e-10
-1.97863e-09
2.75139e-10
-2.04342e-09
2.65465e-10
-2.10572e-09
2.55525e-10
-2.16547e-09
2.45335e-10
-2.22261e-09
2.34913e-10
-2.2771e-09
2.24276e-10
-2.32889e-09
2.1344e-10
-2.37793e-09
2.02424e-10
-2.4242e-09
1.91243e-10
-2.46764e-09
1.79917e-10
-2.50825e-09
1.6846e-10
-2.54599e-09
1.5689e-10
-2.58084e-09
1.45224e-10
-2.61279e-09
1.33478e-10
-2.64182e-09
1.21669e-10
-2.66793e-09
1.09813e-10
-2.69111e-09
9.79248e-11
-2.71137e-09
8.60207e-11
-2.7287e-09
7.41158e-11
-2.74312e-09
6.22249e-11
-2.75462e-09
5.03618e-11
-2.76324e-09
3.85397e-11
-2.76899e-09
2.67726e-11
-2.77188e-09
1.50744e-11
-2.77194e-09
3.45709e-12
-2.76919e-09
-8.06948e-12
-2.76367e-09
-1.94946e-11
-2.75541e-09
-3.08069e-11
-2.74443e-09
-4.1995e-11
-2.73076e-09
-5.30487e-11
-2.71446e-09
-6.39595e-11
-2.69556e-09
-7.47188e-11
-2.67409e-09
-8.5317e-11
-2.65011e-09
-9.57464e-11
-2.62366e-09
-1.06e-10
-2.59478e-09
-1.1607e-10
-2.56353e-09
-1.25949e-10
-2.52995e-09
-1.35632e-10
-2.49409e-09
-1.45113e-10
-2.45601e-09
-1.54386e-10
-2.41576e-09
-1.63446e-10
-2.37339e-09
-1.72289e-10
-2.32895e-09
-1.8091e-10
-2.28251e-09
-1.89307e-10
-2.23412e-09
-1.97477e-10
-2.18383e-09
-2.05415e-10
-2.1317e-09
-2.13119e-10
-2.0778e-09
-2.20587e-10
-2.02217e-09
-2.27815e-10
-1.96488e-09
-2.34802e-10
-1.90599e-09
-2.41546e-10
-1.84555e-09
-2.48046e-10
-1.78363e-09
-2.54299e-10
-1.72028e-09
-2.60305e-10
-1.65556e-09
-2.66063e-10
-1.58954e-09
-2.71572e-10
-1.52227e-09
-2.76833e-10
-1.45381e-09
-2.81845e-10
-1.38422e-09
-2.86606e-10
-1.31357e-09
-2.91116e-10
-1.24191e-09
-2.95375e-10
-1.1693e-09
-2.99383e-10
-1.0958e-09
-3.0314e-10
-1.02147e-09
-3.06645e-10
-9.46374e-10
-3.099e-10
-8.70565e-10
-3.12903e-10
-7.94104e-10
-3.15656e-10
-7.17053e-10
-3.1816e-10
-6.39469e-10
-3.20413e-10
-5.61411e-10
-3.22414e-10
-4.82941e-10
-3.24164e-10
-4.04121e-10
-3.2565e-10
-3.25027e-10
-3.2679e-10
-2.45844e-10
-3.27094e-10
-1.6728e-10
-3.24168e-10
-9.21139e-11
-3.08723e-10
-2.92991e-11
-2.53806e-10
-1.11516e-10
2.94144e-11
-1.42271e-10
9.26712e-11
-3.18274e-10
1.68492e-10
-3.84476e-10
2.47681e-10
-4.02585e-10
3.27378e-10
-4.05989e-10
4.06887e-10
-4.05733e-10
4.86065e-10
-4.04509e-10
5.64867e-10
-4.02831e-10
6.43251e-10
-4.00786e-10
7.21167e-10
-3.98395e-10
7.98559e-10
-3.95668e-10
8.75367e-10
-3.92613e-10
9.51533e-10
-3.89236e-10
1.02699e-09
-3.8554e-10
1.10169e-09
-3.81528e-10
1.17556e-09
-3.77201e-10
1.24855e-09
-3.7256e-10
1.32059e-09
-3.67606e-10
1.39162e-09
-3.62341e-10
1.46159e-09
-3.56763e-10
1.53043e-09
-3.50875e-10
1.59808e-09
-3.44676e-10
1.66448e-09
-3.38166e-10
1.72958e-09
-3.31347e-10
1.79331e-09
-3.24219e-10
1.85561e-09
-3.16783e-10
1.91643e-09
-3.09041e-10
1.9757e-09
-3.00993e-10
2.03336e-09
-2.92641e-10
2.08935e-09
-2.83988e-10
2.14363e-09
-2.75034e-10
2.19611e-09
-2.65783e-10
2.24676e-09
-2.56236e-10
2.29551e-09
-2.46398e-10
2.3423e-09
-2.36271e-10
2.38708e-09
-2.2586e-10
2.42979e-09
-2.15168e-10
2.47038e-09
-2.042e-10
2.50878e-09
-1.92961e-10
2.54496e-09
-1.81456e-10
2.57885e-09
-1.69691e-10
2.6104e-09
-1.57672e-10
2.63957e-09
-1.45406e-10
2.66631e-09
-1.32901e-10
2.69056e-09
-1.20165e-10
2.71229e-09
-1.07207e-10
2.73144e-09
-9.40358e-11
2.74798e-09
-8.06609e-11
2.76186e-09
-6.7093e-11
2.77306e-09
-5.33431e-11
2.78152e-09
-3.94231e-11
2.78722e-09
-2.53458e-11
2.79013e-09
-1.11245e-11
2.79021e-09
3.22711e-12
2.78744e-09
1.76955e-11
2.7818e-09
3.22681e-11
2.77327e-09
4.69298e-11
2.76182e-09
6.16644e-11
2.74745e-09
7.64551e-11
2.73014e-09
9.12846e-11
2.70989e-09
1.06135e-10
2.68668e-09
1.20989e-10
2.66053e-09
1.35828e-10
2.63144e-09
1.50632e-10
2.59941e-09
1.6538e-10
2.56445e-09
1.80054e-10
2.52658e-09
1.94633e-10
2.48582e-09
2.09096e-10
2.4422e-09
2.23422e-10
2.39574e-09
2.3759e-10
2.34648e-09
2.51578e-10
2.29444e-09
2.65366e-10
2.23968e-09
2.7893e-10
2.18225e-09
2.9225e-10
2.12218e-09
3.05304e-10
2.05954e-09
3.1807e-10
1.99439e-09
3.30526e-10
1.92679e-09
3.42652e-10
1.85682e-09
3.54426e-10
1.78453e-09
3.65827e-10
1.71002e-09
3.76835e-10
1.63336e-09
3.87431e-10
1.55464e-09
3.97595e-10
1.47394e-09
4.07306e-10
1.39137e-09
4.16548e-10
1.30703e-09
4.25303e-10
1.221e-09
4.33554e-10
1.1334e-09
4.41285e-10
1.04433e-09
4.48482e-10
9.53908e-10
4.55132e-10
8.62244e-10
4.6122e-10
7.69455e-10
4.66735e-10
6.75659e-10
4.71666e-10
5.80979e-10
4.76003e-10
4.85535e-10
4.79738e-10
3.89454e-10
4.82861e-10
2.9286e-10
4.85367e-10
1.95881e-10
4.87251e-10
9.86456e-11
4.88509e-10
1.28147e-12
4.89139e-10
-9.60835e-11
4.89141e-10
-1.93321e-10
4.88515e-10
-2.90302e-10
4.87261e-10
-3.869e-10
4.85382e-10
-4.82985e-10
4.8288e-10
-5.78433e-10
4.79762e-10
-6.7312e-10
4.76034e-10
-7.66922e-10
4.71702e-10
-8.59718e-10
4.66776e-10
-9.51389e-10
4.61266e-10
-1.04182e-09
4.55183e-10
-1.1309e-09
4.48538e-10
-1.21851e-09
4.41345e-10
-1.30455e-09
4.33616e-10
-1.38891e-09
4.25369e-10
-1.47149e-09
4.16618e-10
-1.5522e-09
4.07381e-10
-1.63093e-09
3.97674e-10
-1.70761e-09
3.87516e-10
-1.78214e-09
3.76926e-10
-1.85444e-09
3.65922e-10
-1.92444e-09
3.54526e-10
-1.99205e-09
3.42757e-10
-2.05723e-09
3.30635e-10
-2.11988e-09
3.18182e-10
-2.17997e-09
3.0542e-10
-2.23743e-09
2.92371e-10
-2.29221e-09
2.79056e-10
-2.34426e-09
2.65496e-10
-2.39355e-09
2.51713e-10
-2.44004e-09
2.37729e-10
-2.48369e-09
2.23565e-10
-2.52447e-09
2.09243e-10
-2.56236e-09
1.94783e-10
-2.59735e-09
1.80206e-10
-2.62941e-09
1.65535e-10
-2.65853e-09
1.5079e-10
-2.68471e-09
1.35989e-10
-2.70794e-09
1.21154e-10
-2.72822e-09
1.06302e-10
-2.74556e-09
9.14542e-11
-2.75996e-09
7.66271e-11
-2.77144e-09
6.18382e-11
-2.78e-09
4.71049e-11
-2.78568e-09
3.24441e-11
-2.78848e-09
1.78725e-11
-2.78843e-09
3.40557e-12
-2.78555e-09
-1.09448e-11
-2.77988e-09
-2.5164e-11
-2.77145e-09
-3.92381e-11
-2.76029e-09
-5.31547e-11
-2.74644e-09
-6.69019e-11
-2.72993e-09
-8.04678e-11
-2.71081e-09
-9.38413e-11
-2.68911e-09
-1.07012e-10
-2.66489e-09
-1.19969e-10
-2.63819e-09
-1.32704e-10
-2.60905e-09
-1.45208e-10
-2.57753e-09
-1.57473e-10
-2.54367e-09
-1.69491e-10
-2.50753e-09
-1.81256e-10
-2.46915e-09
-1.9276e-10
-2.4286e-09
-2.03998e-10
-2.38592e-09
-2.14966e-10
-2.34118e-09
-2.25657e-10
-2.29442e-09
-2.36068e-10
-2.2457e-09
-2.46195e-10
-2.19508e-09
-2.56032e-10
-2.14262e-09
-2.65578e-10
-2.08838e-09
-2.74828e-10
-2.03241e-09
-2.83781e-10
-1.97478e-09
-2.92434e-10
-1.91554e-09
-3.00785e-10
-1.85475e-09
-3.08832e-10
-1.79248e-09
-3.16574e-10
-1.72878e-09
-3.24008e-10
-1.6637e-09
-3.31135e-10