/*--------------------------------*- C++ -*----------------------------------*\
| =========                 |                                                 |
| \\      /  F ield         | OpenFOAM: The Open Source CFD Toolbox           |
|  \\    /   O peration     | Version:  2412                                  |
|   \\  /    A nd           | Website:  www.openfoam.com                      |
|    \\/     M anipulation  |                                                 |
\*---------------------------------------------------------------------------*/
FoamFile
{
    version     2.0;
    format      ascii;
    arch        "LSB;label=32;scalar=64";
    class       volVectorField;
    location    "1.3";
    object      U;
}
// * * * * * * * * * * * * * * * * * * * * * * * * * * * * * * * * * * * * * //

dimensions      [0 1 -1 0 0 0 0];

internalField   nonuniform List<vector> 
40000
(
(-8.83138e-07 8.5537e-07 0)
(1.36726e-05 -2.75223e-06 0)
(3.99633e-05 -4.5925e-06 0)
(6.94226e-05 -5.25368e-06 0)
(9.9949e-05 -5.44539e-06 0)
(0.00013077 -5.49045e-06 0)
(0.000161606 -5.47988e-06 0)
(0.000192336 -5.4453e-06 0)
(0.000222897 -5.40008e-06 0)
(0.000253254 -5.3499e-06 0)
(0.00028338 -5.29652e-06 0)
(0.000313253 -5.23959e-06 0)
(0.000342848 -5.1784e-06 0)
(0.000372142 -5.11247e-06 0)
(0.00040111 -5.04163e-06 0)
(0.000429728 -4.9659e-06 0)
(0.000457973 -4.8853e-06 0)
(0.000485818 -4.79983e-06 0)
(0.00051324 -4.70944e-06 0)
(0.000540214 -4.61406e-06 0)
(0.000566716 -4.51373e-06 0)
(0.00059272 -4.40851e-06 0)
(0.000618202 -4.29856e-06 0)
(0.000643137 -4.18405e-06 0)
(0.000667501 -4.06512e-06 0)
(0.000691269 -3.94189e-06 0)
(0.000714419 -3.81443e-06 0)
(0.000736926 -3.6828e-06 0)
(0.000758769 -3.54705e-06 0)
(0.000779924 -3.40732e-06 0)
(0.000800369 -3.26377e-06 0)
(0.000820081 -3.11662e-06 0)
(0.00083904 -2.96607e-06 0)
(0.000857223 -2.81226e-06 0)
(0.00087461 -2.65531e-06 0)
(0.000891182 -2.49533e-06 0)
(0.000906917 -2.33246e-06 0)
(0.000921797 -2.1669e-06 0)
(0.000935803 -1.9989e-06 0)
(0.000948917 -1.82874e-06 0)
(0.00096112 -1.65666e-06 0)
(0.000972397 -1.48284e-06 0)
(0.000982732 -1.30744e-06 0)
(0.000992109 -1.13058e-06 0)
(0.00100051 -9.5246e-07 0)
(0.00100793 -7.73334e-07 0)
(0.00101436 -5.93486e-07 0)
(0.00101977 -4.13177e-07 0)
(0.00102416 -2.32596e-07 0)
(0.00102752 -5.18388e-08 0)
(0.00102984 1.29133e-07 0)
(0.00103111 3.10374e-07 0)
(0.00103132 4.90279e-07 0)
(0.00103046 6.7131e-07 0)
(0.00102854 8.50929e-07 0)
(0.00102554 1.02877e-06 0)
(0.00102147 1.20357e-06 0)
(0.00101633 1.37556e-06 0)
(0.00101013 1.54509e-06 0)
(0.00100285 1.71217e-06 0)
(0.000994522 1.87656e-06 0)
(0.000985133 2.03804e-06 0)
(0.000974693 2.19648e-06 0)
(0.00096321 2.35175e-06 0)
(0.000950693 2.50375e-06 0)
(0.000937152 2.6523e-06 0)
(0.000922598 2.79718e-06 0)
(0.000907044 2.93816e-06 0)
(0.000890503 3.0751e-06 0)
(0.000872991 3.20798e-06 0)
(0.000854525 3.33678e-06 0)
(0.000835122 3.46143e-06 0)
(0.000814801 3.58177e-06 0)
(0.000793583 3.69762e-06 0)
(0.000771488 3.80887e-06 0)
(0.000748541 3.91555e-06 0)
(0.000724765 4.01776e-06 0)
(0.000700186 4.11558e-06 0)
(0.000674828 4.20896e-06 0)
(0.00064872 4.29776e-06 0)
(0.000621888 4.38187e-06 0)
(0.000594362 4.46132e-06 0)
(0.000566171 4.53619e-06 0)
(0.000537347 4.6066e-06 0)
(0.000507921 4.6726e-06 0)
(0.000477927 4.73418e-06 0)
(0.000447396 4.79135e-06 0)
(0.000416364 4.84422e-06 0)
(0.000384865 4.89297e-06 0)
(0.000352934 4.93766e-06 0)
(0.000320606 4.97827e-06 0)
(0.000287918 5.01468e-06 0)
(0.000254907 5.04683e-06 0)
(0.000221608 5.07483e-06 0)
(0.000188061 5.09886e-06 0)
(0.000154303 5.11906e-06 0)
(0.000120373 5.13546e-06 0)
(8.63085e-05 5.14799e-06 0)
(5.21476e-05 5.15658e-06 0)
(1.79292e-05 5.16104e-06 0)
(-1.63082e-05 5.1612e-06 0)
(-5.05273e-05 5.15704e-06 0)
(-8.46899e-05 5.14871e-06 0)
(-0.000118757 5.13634e-06 0)
(-0.000152691 5.11996e-06 0)
(-0.000186452 5.09969e-06 0)
(-0.000220001 5.07565e-06 0)
(-0.000253302 5.0478e-06 0)
(-0.000286317 5.01594e-06 0)
(-0.000319009 4.97989e-06 0)
(-0.000351343 4.93961e-06 0)
(-0.000383281 4.8952e-06 0)
(-0.000414787 4.84672e-06 0)
(-0.000445827 4.79405e-06 0)
(-0.000476365 4.73702e-06 0)
(-0.000506368 4.67553e-06 0)
(-0.000535803 4.60962e-06 0)
(-0.000564635 4.53939e-06 0)
(-0.000592835 4.4648e-06 0)
(-0.000620371 4.38561e-06 0)
(-0.000647214 4.30169e-06 0)
(-0.000673335 4.21307e-06 0)
(-0.000698706 4.11994e-06 0)
(-0.000723299 4.02239e-06 0)
(-0.000747088 3.92035e-06 0)
(-0.000770049 3.81365e-06 0)
(-0.000792158 3.70226e-06 0)
(-0.000813392 3.58646e-06 0)
(-0.000833728 3.46654e-06 0)
(-0.000853147 3.34243e-06 0)
(-0.00087163 3.21385e-06 0)
(-0.00088916 3.08085e-06 0)
(-0.000905719 2.94383e-06 0)
(-0.000921292 2.80301e-06 0)
(-0.000935865 2.65851e-06 0)
(-0.000949426 2.51039e-06 0)
(-0.000961964 2.35864e-06 0)
(-0.000973469 2.20338e-06 0)
(-0.00098393 2.04516e-06 0)
(-0.000993342 1.88427e-06 0)
(-0.0010017 1.72024e-06 0)
(-0.00100899 1.55297e-06 0)
(-0.00101522 1.38323e-06 0)
(-0.00102039 1.21122e-06 0)
(-0.00102448 1.03627e-06 0)
(-0.0010275 8.58265e-07 0)
(-0.00102945 6.78598e-07 0)
(-0.00103032 4.97626e-07 0)
(-0.00103013 3.18242e-07 0)
(-0.00102889 1.37612e-07 0)
(-0.00102659 -4.33259e-08 0)
(-0.00102326 -2.2425e-07 0)
(-0.00101889 -4.04576e-07 0)
(-0.00101351 -5.84553e-07 0)
(-0.00100711 -7.64138e-07 0)
(-0.000999722 -9.43045e-07 0)
(-0.000991346 -1.12116e-06 0)
(-0.000981997 -1.29799e-06 0)
(-0.000971692 -1.4734e-06 0)
(-0.000960443 -1.64748e-06 0)
(-0.000948269 -1.81958e-06 0)
(-0.000935184 -1.98942e-06 0)
(-0.000921207 -2.15731e-06 0)
(-0.000906356 -2.32294e-06 0)
(-0.000890651 -2.48562e-06 0)
(-0.000874109 -2.6454e-06 0)
(-0.000856751 -2.8025e-06 0)
(-0.000838597 -2.95634e-06 0)
(-0.000819668 -3.10656e-06 0)
(-0.000799985 -3.2535e-06 0)
(-0.00077957 -3.3973e-06 0)
(-0.000758445 -3.53742e-06 0)
(-0.000736633 -3.67311e-06 0)
(-0.000714157 -3.80456e-06 0)
(-0.00069104 -3.93187e-06 0)
(-0.000667307 -4.0545e-06 0)
(-0.000642981 -4.17279e-06 0)
(-0.000618086 -4.28684e-06 0)
(-0.000592646 -4.39644e-06 0)
(-0.000566684 -4.50157e-06 0)
(-0.000540225 -4.60163e-06 0)
(-0.000513294 -4.69682e-06 0)
(-0.000485917 -4.78737e-06 0)
(-0.000458119 -4.87222e-06 0)
(-0.000429925 -4.95148e-06 0)
(-0.000401361 -5.02572e-06 0)
(-0.000372454 -5.09471e-06 0)
(-0.000343228 -5.15846e-06 0)
(-0.000313708 -5.21716e-06 0)
(-0.000283921 -5.27077e-06 0)
(-0.00025389 -5.31859e-06 0)
(-0.000223643 -5.36085e-06 0)
(-0.000193205 -5.39795e-06 0)
(-0.000162604 -5.42785e-06 0)
(-0.000131867 -5.44695e-06 0)
(-0.000101044 -5.4386e-06 0)
(-7.03057e-05 -5.31841e-06 0)
(-4.03918e-05 -4.74333e-06 0)
(-1.36561e-05 -2.91239e-06 0)
(9.45886e-07 8.29275e-07 0)
(2.71109e-06 -1.36449e-05 0)
(4.13238e-05 -4.11898e-05 0)
(9.81699e-05 -5.32664e-05 0)
(0.000160055 -5.71396e-05 0)
(0.000223239 -5.82507e-05 0)
(0.000286701 -5.84982e-05 0)
(0.000350135 -5.8411e-05 0)
(0.000413389 -5.81609e-05 0)
(0.000476357 -5.78185e-05 0)
(0.000538967 -5.74155e-05 0)
(0.000601157 -5.69642e-05 0)
(0.000662875 -5.64683e-05 0)
(0.000724068 -5.5928e-05 0)
(0.000784688 -5.53429e-05 0)
(0.000844682 -5.47124e-05 0)
(0.000904004 -5.40362e-05 0)
(0.000962602 -5.33141e-05 0)
(0.00102043 -5.25458e-05 0)
(0.00107744 -5.17314e-05 0)
(0.00113357 -5.08705e-05 0)
(0.00118879 -4.99634e-05 0)
(0.00124304 -4.90101e-05 0)
(0.00129628 -4.8011e-05 0)
(0.00134844 -4.69664e-05 0)
(0.00139949 -4.58767e-05 0)
(0.00144938 -4.47422e-05 0)
(0.00149805 -4.35632e-05 0)
(0.00154547 -4.234e-05 0)
(0.00159158 -4.10733e-05 0)
(0.00163633 -3.97634e-05 0)
(0.00167968 -3.84111e-05 0)
(0.00172158 -3.70171e-05 0)
(0.00176199 -3.55821e-05 0)
(0.00180086 -3.41068e-05 0)
(0.00183815 -3.25919e-05 0)
(0.0018738 -3.10382e-05 0)
(0.00190779 -2.94466e-05 0)
(0.00194006 -2.78181e-05 0)
(0.00197057 -2.6154e-05 0)
(0.00199929 -2.44553e-05 0)
(0.00202617 -2.27234e-05 0)
(0.00205117 -2.09594e-05 0)
(0.00207426 -1.91644e-05 0)
(0.00209539 -1.73398e-05 0)
(0.00211454 -1.5487e-05 0)
(0.00213168 -1.36075e-05 0)
(0.00214676 -1.17033e-05 0)
(0.00215976 -9.77592e-06 0)
(0.00217065 -7.82709e-06 0)
(0.0021794 -5.85824e-06 0)
(0.00218599 -3.87057e-06 0)
(0.00219039 -1.86472e-06 0)
(0.00219258 1.58984e-07 0)
(0.00219254 2.19962e-06 0)
(0.00219024 4.24887e-06 0)
(0.00218568 6.30057e-06 0)
(0.00217885 8.35128e-06 0)
(0.00216974 1.04004e-05 0)
(0.00215834 1.24475e-05 0)
(0.00214466 1.44909e-05 0)
(0.00212869 1.65285e-05 0)
(0.00211043 1.85578e-05 0)
(0.00208988 2.05766e-05 0)
(0.00206705 2.25824e-05 0)
(0.00204196 2.45727e-05 0)
(0.00201462 2.65448e-05 0)
(0.00198504 2.84959e-05 0)
(0.00195324 3.04233e-05 0)
(0.00191924 3.23244e-05 0)
(0.00188307 3.4197e-05 0)
(0.00184477 3.60384e-05 0)
(0.00180435 3.78461e-05 0)
(0.00176186 3.96176e-05 0)
(0.00171733 4.13501e-05 0)
(0.0016708 4.30412e-05 0)
(0.00162233 4.46888e-05 0)
(0.00157195 4.62907e-05 0)
(0.00151973 4.78447e-05 0)
(0.0014657 4.93484e-05 0)
(0.00140994 5.07995e-05 0)
(0.00135249 5.21955e-05 0)
(0.00129342 5.35345e-05 0)
(0.0012328 5.48148e-05 0)
(0.00117069 5.60346e-05 0)
(0.00110716 5.71923e-05 0)
(0.0010423 5.8286e-05 0)
(0.000976158 5.93143e-05 0)
(0.000908831 6.02757e-05 0)
(0.000840393 6.1169e-05 0)
(0.000770925 6.19929e-05 0)
(0.000700511 6.27459e-05 0)
(0.000629234 6.34267e-05 0)
(0.000557181 6.40342e-05 0)
(0.000484441 6.45678e-05 0)
(0.000411103 6.5027e-05 0)
(0.000337259 6.54113e-05 0)
(0.000262998 6.57201e-05 0)
(0.000188412 6.59526e-05 0)
(0.000113593 6.61083e-05 0)
(3.86358e-05 6.61866e-05 0)
(-3.63685e-05 6.61871e-05 0)
(-0.000111327 6.611e-05 0)
(-0.000186147 6.59552e-05 0)
(-0.000260737 6.57234e-05 0)
(-0.000335003 6.54153e-05 0)
(-0.000408852 6.50316e-05 0)
(-0.000482193 6.4573e-05 0)
(-0.000554937 6.40402e-05 0)
(-0.000626994 6.34336e-05 0)
(-0.000698278 6.27539e-05 0)
(-0.000768702 6.20021e-05 0)
(-0.00083818 6.11796e-05 0)
(-0.000906628 6.02879e-05 0)
(-0.000973966 5.93278e-05 0)
(-0.00104011 5.83006e-05 0)
(-0.001105 5.72077e-05 0)
(-0.00116853 5.60508e-05 0)
(-0.00123066 5.48318e-05 0)
(-0.00129129 5.35524e-05 0)
(-0.00135037 5.2214e-05 0)
(-0.00140784 5.08185e-05 0)
(-0.00146362 4.93682e-05 0)
(-0.00151767 4.78656e-05 0)
(-0.00156991 4.6313e-05 0)
(-0.00162031 4.47122e-05 0)
(-0.0016688 4.30652e-05 0)
(-0.00171535 4.13746e-05 0)
(-0.0017599 3.96429e-05 0)
(-0.00180241 3.78729e-05 0)
(-0.00184285 3.60667e-05 0)
(-0.00188119 3.42262e-05 0)
(-0.00191738 3.2354e-05 0)
(-0.0019514 3.04534e-05 0)
(-0.00198323 2.85272e-05 0)
(-0.00201284 2.65776e-05 0)
(-0.00204021 2.4607e-05 0)
(-0.00206533 2.26181e-05 0)
(-0.00208819 2.06134e-05 0)
(-0.00210876 1.85956e-05 0)
(-0.00212706 1.65674e-05 0)
(-0.00214306 1.45302e-05 0)
(-0.00215678 1.24862e-05 0)
(-0.00216821 1.04383e-05 0)
(-0.00217735 8.38894e-06 0)
(-0.00218421 6.33789e-06 0)
(-0.0021888 4.28569e-06 0)
(-0.00219114 2.23655e-06 0)
(-0.00219121 1.96699e-07 0)
(-0.00218905 -1.82553e-06 0)
(-0.00218468 -3.82954e-06 0)
(-0.00217813 -5.81605e-06 0)
(-0.00216941 -7.78408e-06 0)
(-0.00215856 -9.73122e-06 0)
(-0.0021456 -1.16567e-05 0)
(-0.00213055 -1.35597e-05 0)
(-0.00211346 -1.54383e-05 0)
(-0.00209435 -1.72907e-05 0)
(-0.00207325 -1.91151e-05 0)
(-0.0020502 -2.09101e-05 0)
(-0.00202524 -2.26749e-05 0)
(-0.0019984 -2.44074e-05 0)
(-0.00196973 -2.61055e-05 0)
(-0.00193925 -2.77691e-05 0)
(-0.00190702 -2.93973e-05 0)
(-0.00187308 -3.09879e-05 0)
(-0.00183746 -3.25401e-05 0)
(-0.00180022 -3.40539e-05 0)
(-0.00176139 -3.55286e-05 0)
(-0.00172102 -3.69628e-05 0)
(-0.00167916 -3.83562e-05 0)
(-0.00163585 -3.97087e-05 0)
(-0.00159114 -4.10188e-05 0)
(-0.00154508 -4.22844e-05 0)
(-0.00149771 -4.35051e-05 0)
(-0.00144908 -4.46813e-05 0)
(-0.00139924 -4.58121e-05 0)
(-0.00134824 -4.68979e-05 0)
(-0.00129612 -4.79398e-05 0)
(-0.00124294 -4.89366e-05 0)
(-0.00118875 -4.9888e-05 0)
(-0.00113359 -5.07934e-05 0)
(-0.00107751 -5.16517e-05 0)
(-0.00102056 -5.24626e-05 0)
(-0.000962794 -5.32247e-05 0)
(-0.00090426 -5.39385e-05 0)
(-0.000845007 -5.46052e-05 0)
(-0.000785084 -5.52244e-05 0)
(-0.000724543 -5.57969e-05 0)
(-0.000663431 -5.6323e-05 0)
(-0.000601799 -5.68014e-05 0)
(-0.000539695 -5.72314e-05 0)
(-0.000477169 -5.76135e-05 0)
(-0.000414271 -5.79475e-05 0)
(-0.00035105 -5.82284e-05 0)
(-0.000287562 -5.84356e-05 0)
(-0.000223885 -5.84534e-05 0)
(-0.000160257 -5.77117e-05 0)
(-9.7799e-05 -5.40368e-05 0)
(-4.07017e-05 -4.16166e-05 0)
(-2.5079e-06 -1.35161e-05 0)
(4.30511e-06 -3.97936e-05 0)
(5.30133e-05 -9.81225e-05 0)
(0.000121374 -0.000121325 0)
(0.000195144 -0.000128198 0)
(0.000269966 -0.000129954 0)
(0.000344859 -0.000130261 0)
(0.000419628 -0.000130045 0)
(0.000494176 -0.000129553 0)
(0.000568413 -0.00012888 0)
(0.000642261 -0.000128068 0)
(0.000715648 -0.000127139 0)
(0.000788507 -0.000126101 0)
(0.000860776 -0.000124959 0)
(0.000932394 -0.000123715 0)
(0.0010033 -0.00012237 0)
(0.00107344 -0.000120922 0)
(0.00114275 -0.000119373 0)
(0.00121117 -0.000117722 0)
(0.00127866 -0.000115969 0)
(0.00134514 -0.000114115 0)
(0.00141056 -0.000112159 0)
(0.00147487 -0.000110102 0)
(0.00153801 -0.000107945 0)
(0.00159992 -0.000105686 0)
(0.00166054 -0.000103328 0)
(0.00171981 -0.00010087 0)
(0.00177769 -9.83135e-05 0)
(0.0018341 -9.56581e-05 0)
(0.00188901 -9.29052e-05 0)
(0.00194235 -9.00556e-05 0)
(0.00199406 -8.71104e-05 0)
(0.00204409 -8.40708e-05 0)
(0.00209238 -8.09379e-05 0)
(0.00213889 -7.77128e-05 0)
(0.00218355 -7.43969e-05 0)
(0.00222632 -7.09917e-05 0)
(0.00226714 -6.7499e-05 0)
(0.00230595 -6.39207e-05 0)
(0.00234272 -6.02588e-05 0)
(0.00237739 -5.65157e-05 0)
(0.0024099 -5.26933e-05 0)
(0.00244022 -4.87939e-05 0)
(0.00246829 -4.48199e-05 0)
(0.00249408 -4.07741e-05 0)
(0.00251753 -3.66594e-05 0)
(0.00253861 -3.24791e-05 0)
(0.00255728 -2.82365e-05 0)
(0.00257349 -2.39351e-05 0)
(0.0025872 -1.95784e-05 0)
(0.0025984 -1.51699e-05 0)
(0.00260703 -1.07128e-05 0)
(0.00261308 -6.21019e-06 0)
(0.00261651 -1.66351e-06 0)
(0.00261731 2.92088e-06 0)
(0.00261544 7.53394e-06 0)
(0.0026109 1.21663e-05 0)
(0.00260366 1.68131e-05 0)
(0.0025937 2.14713e-05 0)
(0.002581 2.6137e-05 0)
(0.00256557 3.08053e-05 0)
(0.00254738 3.54707e-05 0)
(0.00252644 4.01278e-05 0)
(0.00250276 4.47709e-05 0)
(0.00247632 4.93941e-05 0)
(0.00244715 5.39912e-05 0)
(0.00241525 5.85561e-05 0)
(0.00238065 6.30822e-05 0)
(0.00234334 6.75634e-05 0)
(0.00230337 7.19935e-05 0)
(0.00226076 7.63662e-05 0)
(0.00221554 8.06754e-05 0)
(0.00216774 8.49145e-05 0)
(0.00211741 8.9077e-05 0)
(0.00206457 9.31568e-05 0)
(0.0020093 9.71475e-05 0)
(0.00195162 0.000101043 0)
(0.00189161 0.000104838 0)
(0.00182931 0.000108527 0)
(0.0017648 0.000112102 0)
(0.00169814 0.000115558 0)
(0.00162939 0.000118889 0)
(0.00155864 0.00012209 0)
(0.00148597 0.000125156 0)
(0.00141144 0.000128081 0)
(0.00133516 0.000130862 0)
(0.0012572 0.000133492 0)
(0.00117767 0.000135969 0)
(0.00109665 0.000138287 0)
(0.00101424 0.000140442 0)
(0.000930552 0.000142432 0)
(0.000845676 0.000144251 0)
(0.000759722 0.000145898 0)
(0.000672796 0.000147368 0)
(0.000585009 0.000148661 0)
(0.000496473 0.000149774 0)
(0.000407301 0.000150704 0)
(0.000317606 0.000151451 0)
(0.000227504 0.000152012 0)
(0.000137109 0.000152387 0)
(4.65388e-05 0.000152575 0)
(-4.40916e-05 0.000152576 0)
(-0.000134663 0.000152389 0)
(-0.00022506 0.000152016 0)
(-0.000315167 0.000151456 0)
(-0.000404867 0.000150711 0)
(-0.000494043 0.000149782 0)
(-0.000582583 0.000148672 0)
(-0.000670374 0.000147381 0)
(-0.000757305 0.000145911 0)
(-0.000843267 0.000144266 0)
(-0.000928152 0.000142448 0)
(-0.00101185 0.000140461 0)
(-0.00109427 0.000138309 0)
(-0.0011753 0.000135993 0)
(-0.00125485 0.000133519 0)
(-0.00133282 0.00013089 0)
(-0.00140911 0.000128112 0)
(-0.00148365 0.000125188 0)
(-0.00155634 0.000122123 0)
(-0.00162711 0.000118923 0)
(-0.00169587 0.000115593 0)
(-0.00176255 0.000112138 0)
(-0.00182708 0.000108565 0)
(-0.0018894 0.00010488 0)
(-0.00194943 0.000101086 0)
(-0.00200713 9.71921e-05 0)
(-0.00206243 9.32027e-05 0)
(-0.00211528 8.91248e-05 0)
(-0.00216564 8.49644e-05 0)
(-0.00221346 8.07274e-05 0)
(-0.00225871 7.64198e-05 0)
(-0.00230135 7.20482e-05 0)
(-0.00234134 6.76196e-05 0)
(-0.00237867 6.31405e-05 0)
(-0.00241331 5.86165e-05 0)
(-0.00244523 5.40536e-05 0)
(-0.00247443 4.94585e-05 0)
(-0.0025009 4.48376e-05 0)
(-0.00252461 4.01961e-05 0)
(-0.00254558 3.55397e-05 0)
(-0.0025638 3.08743e-05 0)
(-0.00257927 2.62056e-05 0)
(-0.002592 2.15395e-05 0)
(-0.00260199 1.68815e-05 0)
(-0.00260927 1.22348e-05 0)
(-0.00261384 7.60231e-06 0)
(-0.00261573 2.98983e-06 0)
(-0.00261497 -1.59302e-06 0)
(-0.00261157 -6.13807e-06 0)
(-0.00260556 -1.06389e-05 0)
(-0.00259696 -1.50941e-05 0)
(-0.0025858 -1.95007e-05 0)
(-0.00257212 -2.3855e-05 0)
(-0.00255595 -2.81539e-05 0)
(-0.00253732 -3.23948e-05 0)
(-0.00251628 -3.6574e-05 0)
(-0.00249286 -4.06876e-05 0)
(-0.00246711 -4.4733e-05 0)
(-0.00243907 -4.8707e-05 0)
(-0.00240879 -5.26069e-05 0)
(-0.00237631 -5.64303e-05 0)
(-0.00234168 -6.01736e-05 0)
(-0.00230496 -6.38347e-05 0)
(-0.00226618 -6.74121e-05 0)
(-0.0022254 -7.09034e-05 0)
(-0.00218267 -7.43062e-05 0)
(-0.00213804 -7.76199e-05 0)
(-0.00209157 -8.08437e-05 0)
(-0.00204332 -8.39761e-05 0)
(-0.00199332 -8.70154e-05 0)
(-0.00194165 -8.99601e-05 0)
(-0.00188835 -9.28092e-05 0)
(-0.00183349 -9.55605e-05 0)
(-0.00177711 -9.82125e-05 0)
(-0.00171927 -0.000100765 0)
(-0.00166003 -0.000103219 0)
(-0.00159945 -0.000105572 0)
(-0.00153759 -0.000107827 0)
(-0.00147449 -0.000109982 0)
(-0.00141022 -0.000112037 0)
(-0.00134484 -0.00011399 0)
(-0.0012784 -0.000115841 0)
(-0.00121096 -0.000117589 0)
(-0.00114257 -0.000119232 0)
(-0.0010733 -0.000120772 0)
(-0.0010032 -0.000122209 0)
(-0.000932327 -0.000123544 0)
(-0.000860742 -0.000124778 0)
(-0.0007885 -0.000125909 0)
(-0.000715659 -0.000126938 0)
(-0.000642275 -0.000127863 0)
(-0.000568407 -0.000128686 0)
(-0.00049411 -0.000129405 0)
(-0.000419441 -0.000130016 0)
(-0.000344468 -0.000130483 0)
(-0.000269281 -0.000130583 0)
(-0.00019413 -0.00012923 0)
(-0.000120202 -0.000122268 0)
(-5.21603e-05 -9.81345e-05 0)
(-4.14198e-06 -3.91323e-05 0)
(4.69444e-06 -6.87453e-05 0)
(5.60417e-05 -0.000160297 0)
(0.000127685 -0.000195393 0)
(0.000205011 -0.000205309 0)
(0.000283277 -0.000207537 0)
(0.000361454 -0.000207747 0)
(0.000439399 -0.000207308 0)
(0.000517065 -0.000206526 0)
(0.000594393 -0.000205492 0)
(0.000671315 -0.000204249 0)
(0.000747765 -0.000202818 0)
(0.000823676 -0.000201212 0)
(0.000898984 -0.000199438 0)
(0.000973626 -0.000197499 0)
(0.00104754 -0.000195396 0)
(0.00112066 -0.000193131 0)
(0.00119294 -0.000190704 0)
(0.0012643 -0.000188116 0)
(0.00133469 -0.000185365 0)
(0.00140406 -0.000182454 0)
(0.00147233 -0.000179382 0)
(0.00153945 -0.00017615 0)
(0.00160537 -0.000172758 0)
(0.00167002 -0.000169206 0)
(0.00173333 -0.000165496 0)
(0.00179527 -0.000161626 0)
(0.00185575 -0.000157599 0)
(0.00191473 -0.000153415 0)
(0.00197215 -0.000149075 0)
(0.00202795 -0.000144581 0)
(0.00208206 -0.000139934 0)
(0.00213444 -0.000135135 0)
(0.00218503 -0.000130186 0)
(0.00223376 -0.000125088 0)
(0.00228058 -0.000119845 0)
(0.00232544 -0.000114457 0)
(0.00236828 -0.000108927 0)
(0.00240905 -0.000103259 0)
(0.00244769 -9.74543e-05 0)
(0.00248415 -9.15172e-05 0)
(0.00251838 -8.54502e-05 0)
(0.00255033 -7.9257e-05 0)
(0.00257995 -7.29411e-05 0)
(0.00260719 -6.65068e-05 0)
(0.00263201 -5.99585e-05 0)
(0.00265435 -5.3301e-05 0)
(0.00267418 -4.65396e-05 0)
(0.00269146 -3.96793e-05 0)
(0.00270614 -3.27257e-05 0)
(0.00271819 -2.56845e-05 0)
(0.00272758 -1.85617e-05 0)
(0.00273426 -1.13637e-05 0)
(0.00273821 -4.09742e-06 0)
(0.00273941 3.22972e-06 0)
(0.00273784 1.06092e-05 0)
(0.00273346 1.80326e-05 0)
(0.00272626 2.54925e-05 0)
(0.00271621 3.29816e-05 0)
(0.0027033 4.04913e-05 0)
(0.00268752 4.8013e-05 0)
(0.00266885 5.55377e-05 0)
(0.0026473 6.30562e-05 0)
(0.00262286 7.05594e-05 0)
(0.00259553 7.80375e-05 0)
(0.00256533 8.54806e-05 0)
(0.00253225 9.28784e-05 0)
(0.00249633 0.000100221 0)
(0.00245756 0.000107497 0)
(0.00241599 0.000114697 0)
(0.00237163 0.000121811 0)
(0.00232451 0.000128828 0)
(0.00227467 0.000135737 0)
(0.00222215 0.000142528 0)
(0.002167 0.000149189 0)
(0.00210925 0.000155712 0)
(0.00204897 0.000162085 0)
(0.00198621 0.000168298 0)
(0.00192104 0.000174341 0)
(0.00185351 0.000180203 0)
(0.0017837 0.000185875 0)
(0.00171168 0.000191346 0)
(0.00163753 0.000196608 0)
(0.00156134 0.000201651 0)
(0.00148318 0.000206467 0)
(0.00140315 0.000211047 0)
(0.00132135 0.000215383 0)
(0.00123786 0.000219467 0)
(0.00115279 0.000223291 0)
(0.00106624 0.000226848 0)
(0.000978325 0.000230133 0)
(0.000889145 0.000233139 0)
(0.000798815 0.00023586 0)
(0.00070745 0.000238291 0)
(0.000615166 0.000240429 0)
(0.000522083 0.00024227 0)
(0.000428321 0.000243809 0)
(0.000334 0.000245043 0)
(0.000239243 0.000245971 0)
(0.000144175 0.00024659 0)
(4.892e-05 0.0002469 0)
(-4.63993e-05 0.000246901 0)
(-0.000141656 0.000246593 0)
(-0.000236727 0.000245976 0)
(-0.000331487 0.000245051 0)
(-0.000425812 0.000243819 0)
(-0.000519579 0.000242284 0)
(-0.000612667 0.000240446 0)
(-0.000704956 0.000238311 0)
(-0.000796327 0.000235881 0)
(-0.000886664 0.000233162 0)
(-0.000975852 0.000230159 0)
(-0.00106378 0.000226877 0)
(-0.00115034 0.000223323 0)
(-0.00123542 0.000219502 0)
(-0.00131892 0.000215421 0)
(-0.00140074 0.000211088 0)
(-0.00148078 0.000206511 0)
(-0.00155895 0.000201698 0)
(-0.00163516 0.000196656 0)
(-0.00170933 0.000191396 0)
(-0.00178136 0.000185927 0)
(-0.00185119 0.000180258 0)
(-0.00191873 0.000174398 0)
(-0.00198393 0.000168359 0)
(-0.00204671 0.000162148 0)
(-0.00210701 0.000155777 0)
(-0.00216477 0.000149257 0)
(-0.00221995 0.000142598 0)
(-0.00227249 0.00013581 0)
(-0.00232235 0.000128903 0)
(-0.0023695 0.000121889 0)
(-0.00241388 0.000114777 0)
(-0.00245549 0.00010758 0)
(-0.00249427 0.000100306 0)
(-0.00253023 9.29661e-05 0)
(-0.00256333 8.55706e-05 0)
(-0.00259356 7.81298e-05 0)
(-0.00262092 7.06543e-05 0)
(-0.00264539 6.31529e-05 0)
(-0.00266697 5.56349e-05 0)
(-0.00268567 4.81104e-05 0)
(-0.00270148 4.05892e-05 0)
(-0.00271442 3.30802e-05 0)
(-0.0027245 2.55918e-05 0)
(-0.00273174 1.81324e-05 0)
(-0.00273614 1.07094e-05 0)
(-0.00273775 3.33064e-06 0)
(-0.00273658 -3.99503e-06 0)
(-0.00273266 -1.12598e-05 0)
(-0.00272601 -1.84563e-05 0)
(-0.00271666 -2.55767e-05 0)
(-0.00270464 -3.26149e-05 0)
(-0.00268999 -3.95658e-05 0)
(-0.00267275 -4.64236e-05 0)
(-0.00265295 -5.31832e-05 0)
(-0.00263064 -5.98391e-05 0)
(-0.00260586 -6.63862e-05 0)
(-0.00257865 -7.28202e-05 0)
(-0.00254907 -7.91364e-05 0)
(-0.00251715 -8.533e-05 0)
(-0.00248296 -9.13977e-05 0)
(-0.00244653 -9.73356e-05 0)
(-0.00240792 -0.000103139 0)
(-0.00236719 -0.000108806 0)
(-0.00232438 -0.000114334 0)
(-0.00227956 -0.00011972 0)
(-0.00223277 -0.000124961 0)
(-0.00218407 -0.000130057 0)
(-0.00213352 -0.000135005 0)
(-0.00208117 -0.000139804 0)
(-0.00202709 -0.000144451 0)
(-0.00197132 -0.000148944 0)
(-0.00191394 -0.000153282 0)
(-0.00185499 -0.000157463 0)
(-0.00179453 -0.000161486 0)
(-0.00173263 -0.000165352 0)
(-0.00166935 -0.000169059 0)
(-0.00160473 -0.000172608 0)
(-0.00153884 -0.000175998 0)
(-0.00147175 -0.000179228 0)
(-0.0014035 -0.000182298 0)
(-0.00133416 -0.000185206 0)
(-0.0012638 -0.000187951 0)
(-0.00119245 -0.000190535 0)
(-0.0011202 -0.000192956 0)
(-0.00104709 -0.000195215 0)
(-0.000973182 -0.000197314 0)
(-0.000898541 -0.000199251 0)
(-0.000823222 -0.000201028 0)
(-0.000747285 -0.000202643 0)
(-0.000670791 -0.000204096 0)
(-0.000593796 -0.000205387 0)
(-0.00051636 -0.000206514 0)
(-0.000438543 -0.000207472 0)
(-0.000360412 -0.000208208 0)
(-0.000282056 -0.000208387 0)
(-0.000203714 -0.000206396 0)
(-0.00012658 -0.000196031 0)
(-5.54726e-05 -0.000159642 0)
(-4.63e-06 -6.76016e-05 0)
(4.74085e-06 -9.81597e-05 0)
(5.64911e-05 -0.000223422 0)
(0.000128862 -0.000270802 0)
(0.000207188 -0.000283885 0)
(0.000286503 -0.000286543 0)
(0.000365686 -0.000286571 0)
(0.000444576 -0.000285839 0)
(0.000523137 -0.00028472 0)
(0.000601326 -0.000283298 0)
(0.000679092 -0.000281607 0)
(0.000756374 -0.000279665 0)
(0.00083311 -0.000277484 0)
(0.000909237 -0.000275071 0)
(0.000984695 -0.000272431 0)
(0.00105942 -0.000269565 0)
(0.00113335 -0.000266476 0)
(0.00120643 -0.000263163 0)
(0.00127859 -0.000259629 0)
(0.00134978 -0.000255873 0)
(0.00141993 -0.000251895 0)
(0.00148899 -0.000247697 0)
(0.00155689 -0.000243279 0)
(0.00162358 -0.00023864 0)
(0.00168899 -0.000233782 0)
(0.00175306 -0.000228706 0)
(0.00181574 -0.000223411 0)
(0.00187696 -0.000217899 0)
(0.00193667 -0.000212171 0)
(0.00199481 -0.000206228 0)
(0.00205131 -0.000200072 0)
(0.00210612 -0.000193704 0)
(0.00215918 -0.000187127 0)
(0.00221043 -0.000180342 0)
(0.00225982 -0.000173351 0)
(0.00230728 -0.000166158 0)
(0.00235277 -0.000158764 0)
(0.00239622 -0.000151174 0)
(0.00243757 -0.000143391 0)
(0.00247679 -0.000135418 0)
(0.0025138 -0.000127259 0)
(0.00254857 -0.000118919 0)
(0.00258103 -0.000110402 0)
(0.00261114 -0.000101713 0)
(0.00263885 -9.28577e-05 0)
(0.00266411 -8.38422e-05 0)
(0.00268687 -7.46727e-05 0)
(0.0027071 -6.53561e-05 0)
(0.00272475 -5.58993e-05 0)
(0.00273977 -4.63099e-05 0)
(0.00275213 -3.65957e-05 0)
(0.0027618 -2.67654e-05 0)
(0.00276874 -1.68282e-05 0)
(0.00277291 -6.79461e-06 0)
(0.00277429 3.32556e-06 0)
(0.00277285 1.35237e-05 0)
(0.00276857 2.37905e-05 0)
(0.00276143 3.41157e-05 0)
(0.0027514 4.44877e-05 0)
(0.00273847 5.48944e-05 0)
(0.00272263 6.53236e-05 0)
(0.00270387 7.57628e-05 0)
(0.00268218 8.61992e-05 0)
(0.00265756 9.66199e-05 0)
(0.00263002 0.000107011 0)
(0.00259955 0.00011736 0)
(0.00256618 0.00012765 0)
(0.00252991 0.00013787 0)
(0.00249076 0.000148003 0)
(0.00244875 0.000158035 0)
(0.00240391 0.000167952 0)
(0.00235628 0.000177739 0)
(0.00230587 0.000187381 0)
(0.00225275 0.000196863 0)
(0.00219694 0.00020617 0)
(0.0021385 0.000215287 0)
(0.00207749 0.000224199 0)
(0.00201395 0.000232892 0)
(0.00194795 0.000241351 0)
(0.00187956 0.00024956 0)
(0.00180884 0.000257507 0)
(0.00173588 0.000265176 0)
(0.00166075 0.000272556 0)
(0.00158354 0.000279632 0)
(0.00150432 0.000286392 0)
(0.0014232 0.000292822 0)
(0.00134027 0.000298912 0)
(0.00125563 0.000304649 0)
(0.00116937 0.000310024 0)
(0.00108161 0.000315026 0)
(0.000992447 0.000319645 0)
(0.000902001 0.000323874 0)
(0.000810381 0.000327703 0)
(0.000717707 0.000331127 0)
(0.000624095 0.000334138 0)
(0.000529669 0.00033673 0)
(0.000434548 0.000338898 0)
(0.000338858 0.000340637 0)
(0.000242724 0.000341945 0)
(0.000146272 0.000342818 0)
(4.96293e-05 0.000343255 0)
(-4.70786e-05 0.000343256 0)
(-0.000143722 0.000342822 0)
(-0.000240177 0.000341952 0)
(-0.000336315 0.000340648 0)
(-0.000432009 0.000338913 0)
(-0.000527134 0.000336749 0)
(-0.000621566 0.000334161 0)
(-0.000715183 0.000331154 0)
(-0.000807864 0.000327733 0)
(-0.00089949 0.000323907 0)
(-0.000989944 0.000319681 0)
(-0.00107911 0.000315065 0)
(-0.00116689 0.000310067 0)
(-0.00125315 0.000304695 0)
(-0.00133781 0.000298961 0)
(-0.00142076 0.000292874 0)
(-0.00150189 0.000286447 0)
(-0.00158112 0.000279691 0)
(-0.00165835 0.000272618 0)
(-0.0017335 0.000265242 0)
(-0.00180647 0.000257576 0)
(-0.0018772 0.000249633 0)
(-0.00194561 0.000241427 0)
(-0.00201163 0.000232972 0)
(-0.00207519 0.000224282 0)
(-0.00213623 0.000215373 0)
(-0.00219469 0.000206259 0)
(-0.00225052 0.000196956 0)
(-0.00230366 0.000187477 0)
(-0.00235409 0.000177839 0)
(-0.00240175 0.000168055 0)
(-0.00244661 0.000158141 0)
(-0.00248864 0.000148111 0)
(-0.00252782 0.000137981 0)
(-0.00256412 0.000127764 0)
(-0.00259752 0.000117476 0)
(-0.00262801 0.00010713 0)
(-0.00265558 9.67415e-05 0)
(-0.00268023 8.63229e-05 0)
(-0.00270195 7.58876e-05 0)
(-0.00272074 6.54494e-05 0)
(-0.00273661 5.50217e-05 0)
(-0.00274957 4.46165e-05 0)
(-0.00275963 3.42455e-05 0)
(-0.0027668 2.3921e-05 0)
(-0.00277111 1.36548e-05 0)
(-0.00277258 3.45757e-06 0)
(-0.00277123 -6.66151e-06 0)
(-0.00276709 -1.66936e-05 0)
(-0.00276019 -2.66289e-05 0)
(-0.00275056 -3.64563e-05 0)
(-0.00273823 -4.6167e-05 0)
(-0.00272324 -5.57536e-05 0)
(-0.00270562 -6.52084e-05 0)
(-0.00268543 -7.45233e-05 0)
(-0.00266269 -8.36914e-05 0)
(-0.00263746 -9.2706e-05 0)
(-0.00260979 -0.000101561 0)
(-0.00257971 -0.00011025 0)
(-0.00254728 -0.000118767 0)
(-0.00251255 -0.000127108 0)
(-0.00247557 -0.000135267 0)
(-0.00243639 -0.000143239 0)
(-0.00239506 -0.000151021 0)
(-0.00235164 -0.00015861 0)
(-0.00230619 -0.000166001 0)
(-0.00225876 -0.000173193 0)
(-0.00220941 -0.000180183 0)
(-0.00215818 -0.000186967 0)
(-0.00210515 -0.000193544 0)
(-0.00205037 -0.000199911 0)
(-0.0019939 -0.000206065 0)
(-0.0019358 -0.000212007 0)
(-0.00187612 -0.000217733 0)
(-0.00181492 -0.000223242 0)
(-0.00175227 -0.000228534 0)
(-0.00168822 -0.000233608 0)
(-0.00162284 -0.000238464 0)
(-0.00155618 -0.0002431 0)
(-0.0014883 -0.000247518 0)
(-0.00141927 -0.000251715 0)
(-0.00134913 -0.000255691 0)
(-0.00127796 -0.000259445 0)
(-0.00120581 -0.000262979 0)
(-0.00113274 -0.00026629 0)
(-0.00105882 -0.00026938 0)
(-0.00098409 -0.00027225 0)
(-0.000908622 -0.000274898 0)
(-0.000832474 -0.000277326 0)
(-0.000755705 -0.000279534 0)
(-0.000678374 -0.00028152 0)
(-0.00060054 -0.000283285 0)
(-0.000522262 -0.000284826 0)
(-0.000443603 -0.000286135 0)
(-0.000364629 -0.00028714 0)
(-0.000285423 -0.000287403 0)
(-0.000206219 -0.000284788 0)
(-0.00012821 -0.000271038 0)
(-5.62918e-05 -0.000222313 0)
(-4.73861e-06 -9.68146e-05 0)
(4.73698e-06 -0.000127561 0)
(5.65334e-05 -0.000286631 0)
(0.000129087 -0.000346522 0)
(0.000207778 -0.00036292 0)
(0.000287549 -0.000366054 0)
(0.000367208 -0.000365886 0)
(0.000446559 -0.000364828 0)
(0.000525556 -0.000363341 0)
(0.000604159 -0.000361509 0)
(0.00068232 -0.000359355 0)
(0.000759987 -0.000356892 0)
(0.000837101 -0.000354131 0)
(0.000913601 -0.000351077 0)
(0.000989428 -0.000347733 0)
(0.00106452 -0.000344104 0)
(0.00113882 -0.000340189 0)
(0.00121226 -0.000335991 0)
(0.00128479 -0.000331511 0)
(0.00135634 -0.000326748 0)
(0.00142685 -0.000321705 0)
(0.00149627 -0.000316379 0)
(0.00156453 -0.000310774 0)
(0.00163157 -0.000304888 0)
(0.00169734 -0.000298723 0)
(0.00176177 -0.000292279 0)
(0.0018248 -0.000285557 0)
(0.00188637 -0.000278558 0)
(0.00194642 -0.000271284 0)
(0.0020049 -0.000263736 0)
(0.00206175 -0.000255915 0)
(0.00211689 -0.000247824 0)