/*--------------------------------*- C++ -*----------------------------------*\
| =========                 |                                                 |
| \\      /  F ield         | OpenFOAM: The Open Source CFD Toolbox           |
|  \\    /   O peration     | Version:  2412                                  |
|   \\  /    A nd           | Website:  www.openfoam.com                      |
|    \\/     M anipulation  |                                                 |
\*---------------------------------------------------------------------------*/
FoamFile
{
    version     2.0;
    format      ascii;
    arch        "LSB;label=32;scalar=64";
    class       volScalarField;
    location    "1.11";
    object      alpha.water;
}
// * * * * * * * * * * * * * * * * * * * * * * * * * * * * * * * * * * * * * //

dimensions      [0 0 0 0 0 0 0];

internalField   nonuniform List<scalar> 
40000
(
3.43029e-194
4.14032e-185
2.43201e-184
2.97597e-184
3.02258e-184
2.86883e-184
2.61644e-184
2.31778e-184
2.00189e-184
1.68939e-184
1.3929e-184
1.12105e-184
8.79971e-185
6.72868e-185
5.00532e-185
3.61681e-185
2.53449e-185
1.71961e-185
1.12766e-185
7.13417e-186
4.34609e-186
2.54433e-186
1.4283e-186
7.66826e-187
3.92405e-187
1.90521e-187
8.72675e-188
3.74324e-188
1.49201e-188
5.48859e-189
1.85414e-189
5.73634e-190
1.62442e-190
4.20728e-191
9.89688e-192
2.07615e-192
3.80089e-193
5.99616e-194
8.14837e-195
9.56569e-196
9.59127e-197
8.05237e-198
5.59991e-199
3.22105e-200
1.53173e-201
6.02443e-203
1.96511e-204
5.34188e-206
1.21728e-207
2.33826e-209
3.8001e-211
5.22146e-213
6.00472e-215
5.59175e-217
4.68577e-219
3.90154e-221
3.22418e-223
2.64231e-225
2.14578e-227
1.7253e-229
1.37227e-231
1.07873e-233
8.37252e-236
6.40959e-238
4.8347e-240
3.58912e-242
2.61927e-244
1.87681e-246
1.31873e-248
9.07422e-251
6.10631e-253
4.01263e-255
2.57093e-257
1.60346e-259
9.71807e-262
5.71296e-264
3.25126e-266
1.78747e-268
9.47213e-271
4.82637e-273
2.35837e-275
1.10199e-277
4.90848e-280
2.07692e-282
8.3162e-285
3.13762e-287
1.11006e-289
3.66246e-292
1.11979e-294
3.14953e-297
8.07836e-300
1.86998e-302
3.85671e-305
6.97356e-308
1.08248e-310
1.40251e-313
1.23419e-316
0
0
0
0
0
0
4.68992e-316
4.48984e-313
3.33331e-310
2.06717e-307
1.10181e-304
5.15457e-302
2.15096e-299
8.10938e-297
2.79116e-294
8.84682e-292
2.60126e-289
7.14014e-287
1.83965e-284
4.47056e-282
1.02905e-279
2.25226e-277
4.7033e-275
9.40033e-273
1.80332e-270
3.32911e-268
5.92857e-266
1.02071e-263
1.70249e-261
2.75632e-259
4.33931e-257
6.65415e-255
9.95486e-253
1.45512e-250
2.08114e-248
2.91625e-246
4.00891e-244
5.41294e-242
7.18707e-240
9.39427e-238
1.21012e-235
1.53779e-233
1.9297e-231
2.39342e-229
2.93685e-227
3.56832e-225
4.29668e-223
5.13155e-221
6.0835e-219
7.16435e-217
7.60271e-215
6.51864e-213
4.67063e-211
2.82641e-209
1.44626e-207
6.23674e-206
2.25453e-204
6.794e-203
1.6991e-201
3.51825e-200
6.03142e-199
8.56484e-198
1.00903e-196
9.972e-196
8.43033e-195
6.16224e-194
3.88248e-193
2.10969e-192
1.00151e-191
4.24332e-191
1.63389e-190
5.75621e-190
1.85681e-189
5.48739e-189
1.48964e-188
3.73288e-188
8.69263e-188
1.89557e-187
3.89949e-187
7.61222e-187
1.41677e-186
2.52265e-186
4.30842e-186
7.07247e-186
1.11798e-185
1.70483e-185
2.5123e-185
3.58402e-185
4.95826e-185
6.66394e-185
8.71485e-185
1.11049e-184
1.38054e-184
1.67605e-184
1.98905e-184
2.30956e-184
2.62627e-184
2.92713e-184
3.19667e-184
3.38037e-184
3.0268e-184
5.09179e-185
1.94997e-194
1.69054e-190
1.73838e-181
8.97599e-181
1.03387e-180
1.02204e-180
9.64781e-181
8.83346e-181
7.87891e-181
6.86155e-181
5.83981e-181
4.85687e-181
3.94476e-181
3.12628e-181
2.41484e-181
1.81581e-181
1.32727e-181
9.41641e-182
6.47394e-182
4.30608e-182
2.76613e-182
1.71297e-182
1.02069e-182
5.83982e-183
3.20011e-183
1.67392e-183
8.31968e-184
3.90655e-184
1.71999e-184
7.04563e-185
2.66707e-185
9.28535e-186
2.96618e-186
8.69453e-187
2.33799e-187
5.72693e-188
1.2537e-188
2.39847e-189
3.96035e-190
5.64898e-191
6.98846e-192
7.40742e-193
6.58462e-194
4.85634e-195
2.96973e-196
1.50525e-197
6.32671e-199
2.21252e-200
6.47821e-202
1.60125e-203
3.37237e-205
6.10992e-207
9.61057e-209
1.32319e-210
1.60482e-212
1.83959e-214
2.08978e-216
2.35098e-218
2.61761e-220
2.88268e-222
3.13784e-224
3.37357e-226
3.57958e-228
3.74532e-230
3.86073e-232
3.91702e-234
3.90759e-236
3.82882e-238
3.6807e-240
3.46729e-242
3.19667e-244
2.88055e-246
2.53345e-248
2.17152e-250
1.81109e-252
1.46727e-254
1.15264e-256
8.76312e-259
6.43437e-261
4.55271e-263
3.09676e-265
2.01969e-267
1.25941e-269
7.48501e-272
4.22543e-274
2.25704e-276
1.13591e-278
5.36033e-281
2.35886e-283
9.61911e-286
3.60831e-288
1.23436e-290
3.81083e-293
1.04828e-295
2.52819e-298
5.23477e-301
9.04366e-304
1.25101e-306
1.29861e-309
8.98926e-313
2.963e-316
7.40749e-316
2.17516e-312
3.0874e-309
2.92109e-306
2.07368e-303
1.17872e-300
5.59078e-298
2.27688e-295
8.13104e-293
2.58764e-290
7.43328e-288
1.94765e-285
4.69534e-283
1.04916e-280
2.18663e-278
4.2742e-276
7.8736e-274
1.37275e-271
2.27389e-269
3.59092e-267
5.42326e-265
7.85544e-263
1.09413e-260
1.46894e-258
1.90518e-256
2.39203e-254
2.91291e-252
3.44664e-250
3.96921e-248
4.4559e-246
4.88352e-244
5.2324e-242
5.48798e-240
5.64164e-238
5.69103e-236
5.63963e-234
5.49591e-232
5.27218e-230
4.98319e-228
4.6449e-226
4.27326e-224
3.88325e-222
3.48821e-220
3.09942e-218
2.72587e-216
2.37427e-214
2.04922e-212
1.67139e-210
1.1987e-208
7.51326e-207
4.08347e-205
1.9075e-203
7.58768e-202
2.54717e-200
7.15957e-199
1.67519e-197
3.2534e-196
5.24456e-195
7.02044e-194
7.80916e-193
7.29887e-192
5.85462e-191
4.07685e-190
2.45399e-189
1.2761e-188
5.80551e-188
2.36234e-187
8.76194e-187
2.98237e-186
9.31742e-186
2.67175e-185
7.04801e-185
1.71859e-184
3.89944e-184
8.29715e-184
1.66801e-183
3.18658e-183
5.81226e-183
1.01561e-182
1.70436e-182
2.75248e-182
4.28563e-182
6.44468e-182
9.37619e-182
1.322e-181
1.80935e-181
2.4078e-181
3.12013e-181
3.94241e-181
4.86331e-181
5.8634e-181
6.91593e-181
7.98804e-181
9.04285e-181
1.00417e-180
1.09367e-180
1.15534e-180
1.03888e-180
1.81488e-181
9.75416e-191
3.2034e-187
2.70646e-178
1.34176e-177
1.49942e-177
1.45641e-177
1.36634e-177
1.25102e-177
1.11956e-177
9.80099e-178
8.39464e-178
7.03211e-178
5.75726e-178
4.60274e-178
3.58922e-178
2.72675e-178
2.0154e-178
1.44709e-178
1.00785e-178
6.79768e-179
4.43277e-179
2.78989e-179
1.69168e-179
9.86289e-180
5.51539e-180
2.94843e-180
1.49979e-180
7.21731e-181
3.26055e-181
1.37201e-181
5.34134e-182
1.91515e-182
6.31232e-183
1.91382e-183
5.33919e-184
1.36074e-184
3.10467e-185
6.19488e-186
1.06791e-186
1.59419e-187
2.07172e-188
2.31163e-189
2.16237e-190
1.67737e-191
1.07908e-192
5.7507e-194
2.53698e-195
9.29001e-197
2.84082e-198
7.31537e-200
1.60185e-201
3.01358e-203
4.92197e-205
7.0494e-207
8.93696e-209
1.07176e-210
1.27254e-212
1.49497e-214
1.73683e-216
1.99432e-218
2.26192e-220
2.53227e-222
2.79622e-224
3.04308e-226
3.26108e-228
3.43807e-230
3.56248e-232
3.62427e-234
3.61613e-236
3.53441e-238
3.3799e-240
3.15819e-242
2.8795e-244
2.55803e-246
2.21066e-248
1.85542e-250
1.50971e-252
1.18863e-254
9.0367e-257
6.61948e-259
4.66069e-261
3.146e-263
2.03011e-265
1.24846e-267
7.2919e-270
4.02954e-272
2.09782e-274
1.02398e-276
4.66061e-279
1.96558e-281
7.62519e-284
2.69747e-286
8.61157e-289
2.44947e-291
6.10837e-294
1.30776e-296
2.33607e-299
3.34136e-302
3.58662e-305
2.56775e-308
9.20117e-312
2.13471e-311
5.89152e-308
8.1148e-305
7.448e-302
5.12803e-299
2.82656e-296
1.29983e-293
5.13159e-291
1.7762e-288
5.47795e-286
1.52475e-283
3.87051e-281
9.03851e-279
1.95603e-276
3.94772e-274
7.47119e-272
1.33229e-269
2.24819e-267
3.60371e-265
5.50612e-263
8.04406e-261
1.12687e-258
1.51765e-256
1.96974e-254
2.46917e-252
2.99562e-250
3.52409e-248
4.02722e-246
4.47803e-244
4.85254e-242
5.13203e-240
5.30451e-238
5.36539e-236
5.31727e-234
5.16901e-232
4.93434e-230
4.63019e-228
4.27497e-226
3.88711e-224
3.48375e-222
3.0799e-220
2.68791e-218
2.31729e-216
1.9747e-214
1.66428e-212
1.38796e-210
1.14591e-208
8.94607e-207
6.17057e-205
3.72603e-203
1.95052e-201
8.76283e-200
3.34478e-198
1.07458e-196
2.88274e-195
6.42191e-194
1.18549e-192
1.81567e-191
2.30991e-190
2.44077e-189
2.1666e-188
1.65425e-187
1.10061e-186
6.34539e-186
3.16362e-185
1.38096e-184
5.40103e-184
1.93097e-183
6.35458e-183
1.92415e-182
5.35729e-182
1.37416e-181
3.26192e-181
7.21362e-181
1.49788e-180
2.94276e-180
5.50191e-180
9.83537e-180
1.6867e-179
2.78168e-179
4.42029e-179
6.78018e-179
1.00559e-178
1.44449e-178
2.01291e-178
2.72537e-178
3.59096e-178
4.61098e-178
5.77754e-178
7.07304e-178
8.46924e-178
9.92905e-178
1.14078e-177
1.28557e-177
1.42216e-177
1.54419e-177
1.62814e-177
1.4669e-177
2.64813e-178
2.02734e-187
3.75125e-184
2.45524e-175
1.1946e-174
1.3172e-174
1.26746e-174
1.18478e-174
1.08486e-174
9.73479e-175
8.55978e-175
7.37294e-175
6.21733e-175
5.12868e-175
4.13474e-175
3.25418e-175
2.49729e-175
1.86616e-175
1.35595e-175
9.56598e-176
6.54235e-176
4.33084e-176
2.77033e-176
1.70953e-176
1.01574e-176
5.79719e-177
3.16767e-177
1.64936e-177
8.13547e-178
3.7717e-178
1.63048e-178
6.52863e-179
2.41099e-179
8.20019e-180
2.57218e-180
7.44756e-181
1.97576e-181
4.70003e-182
9.78349e-183
1.76107e-183
2.75238e-184
3.75998e-185
4.41944e-186
4.35191e-187
3.55148e-188
2.40454e-189
1.34768e-190
6.23877e-192
2.38976e-193
7.61695e-195
2.03667e-196
4.61291e-198
8.94265e-200
1.49967e-201
2.19816e-203
2.84394e-205
3.46963e-207
4.188e-209
4.99857e-211
5.89642e-213
6.87078e-215
7.90399e-217
8.97073e-219
1.00379e-220
1.10652e-222
1.20063e-224
1.28119e-226
1.34324e-228
1.38226e-230
1.39461e-232
1.37801e-234
1.33184e-236
1.25748e-238
1.15825e-240
1.03925e-242
9.06956e-245
7.68562e-247
6.31292e-249
5.01668e-251
3.84902e-253
2.84496e-255
2.02096e-257
1.37617e-259
8.95748e-262
5.55588e-264
3.27253e-266
1.82358e-268
9.5725e-271
4.71084e-273
2.16156e-275
9.18969e-278
3.59347e-280
1.28128e-282
4.12259e-285
1.18177e-287
2.96986e-290
6.40716e-293
1.15327e-295
1.66212e-298
1.79765e-301
1.29673e-304
4.6823e-308
1.08688e-307
2.97896e-304
4.07404e-301
3.71238e-298
2.53742e-295
1.38834e-292
6.33705e-290
2.48305e-287
8.52953e-285
2.61047e-282
7.20993e-280
1.81592e-277
4.20711e-275
9.032e-273
1.80815e-270
3.39405e-268
6.00238e-266
1.0044e-263
1.59634e-261
2.41809e-259
3.50187e-257
4.86228e-255
6.48966e-253
8.34607e-251
1.03653e-248
1.24567e-246
1.45137e-244
1.64239e-242
1.80806e-240
1.93939e-238
2.02984e-236
2.07586e-234
2.07698e-232
2.03556e-230
1.95637e-228
1.84585e-226
1.7114e-224
1.56074e-222
1.40124e-220
1.23953e-218
1.08116e-216
9.3051e-215
7.90731e-213
6.63844e-211
5.50885e-209
4.52076e-207
3.6702e-205
2.80838e-203
1.89303e-201
1.11327e-199
5.65433e-198
2.4548e-196
9.01811e-195
2.77745e-193
7.11682e-192
1.50964e-190
2.64798e-189
3.85154e-188
4.65578e-187
4.67168e-186
3.93586e-185
2.85859e-184
1.81655e-183
1.00292e-182
4.79287e-182
2.00661e-181
7.53956e-181
2.59729e-180
8.26184e-180
2.42434e-179
6.55357e-179
1.6344e-178
3.77642e-178
8.1383e-178
1.64877e-177
3.16475e-177
5.78934e-177
1.01409e-176
1.70656e-176
2.76558e-176
4.32402e-176
6.53373e-176
9.55692e-176
1.35536e-175
1.86655e-175
2.49988e-175
3.26108e-175
4.14916e-175
5.1555e-175
6.26367e-175
7.449e-175
8.68006e-175
9.91986e-175
1.11278e-174
1.22623e-174
1.32724e-174
1.39641e-174
1.26004e-174
2.34915e-175
2.57859e-184
3.1789e-181
1.54329e-172
7.38306e-172
8.09849e-172
7.76106e-172
7.24486e-172
6.64046e-172
5.97603e-172
5.27743e-172
4.57057e-172
3.87915e-172
3.22361e-172
2.62045e-172
2.08132e-172
1.61331e-172
1.21884e-172
8.96192e-173
6.40438e-173
4.44159e-173
2.98492e-173
1.94082e-173
1.21901e-173
7.38265e-174
4.30129e-174
2.4029e-174
1.28102e-174
6.47825e-175
3.08285e-175
1.36941e-175
5.64071e-176
2.14594e-176
7.5336e-177
2.44579e-177
7.35398e-178
2.03214e-178
5.04337e-179
1.09577e-179
2.06074e-180
3.3748e-181
4.85241e-182
6.01621e-183
6.24402e-184
5.36844e-185
3.8329e-186
2.26433e-187
1.10243e-188
4.42739e-190
1.47415e-191
4.10156e-193
9.62732e-195
1.9263e-196
3.32073e-198
4.98414e-200
6.57875e-202
8.15618e-204
9.99722e-206
1.21089e-207
1.44867e-209
1.71106e-211
1.99415e-213
2.29182e-215
2.59562e-217
2.8948e-219
3.17662e-221
3.42693e-223
3.63109e-225
3.77511e-227
3.84704e-229
3.83831e-231
3.74499e-233
3.56867e-235
3.31681e-237
3.00239e-239
2.6429e-241
2.25863e-243
1.87067e-245
1.49872e-247
1.15912e-249
8.63515e-252
6.1818e-254
4.24169e-256
2.78175e-258
1.73822e-260
1.03136e-262
5.7888e-265
3.06047e-267
1.51678e-269
7.00843e-272
3.0002e-274
1.18121e-276
4.24028e-279
1.37349e-281
3.96341e-284
1.0026e-286
2.17714e-289
3.94421e-292
5.72103e-295
6.22701e-298
4.52033e-301
1.64251e-304
3.85905e-304
1.05099e-300
1.42814e-297
1.29295e-294
8.7797e-292
4.77218e-289
2.16379e-286
8.42158e-284
2.87332e-281
8.73372e-279
2.39554e-276
5.99142e-274
1.37831e-271
2.93792e-269
5.83914e-267
1.08806e-264
1.91003e-262
3.17222e-260
5.00354e-258
7.52099e-256
1.0807e-253
1.48866e-251
1.97094e-249
2.51405e-247
3.09635e-245
3.68967e-243
4.26195e-241
4.78055e-239
5.21566e-237
5.54336e-235
5.7477e-233
5.82182e-231
5.76791e-229
5.59617e-227
5.32306e-225
4.96917e-223
4.55708e-221
4.10928e-219
3.64666e-217
3.18725e-215
2.74568e-213
2.33283e-211
1.95605e-209
1.61949e-207
1.32458e-205
1.07068e-203
8.55592e-202
6.41811e-200
4.22488e-198
2.41651e-196
1.18866e-194
4.97629e-193
1.75535e-191
5.17013e-190
1.26234e-188
2.54376e-187
4.22993e-186
5.83136e-185
6.6883e-184
6.36532e-183
5.083e-182
3.50739e-181
2.12706e-180
1.12397e-179
5.1458e-179
2.06498e-178
7.44887e-178
2.47109e-177
7.59477e-177
2.15913e-176
5.66568e-176
1.37352e-175
3.08854e-175
6.48443e-175
1.28138e-174
2.40232e-174
4.29858e-174
7.37622e-174
1.21782e-173
1.93897e-173
2.98247e-173
4.43907e-173
6.40312e-173
8.96473e-173
1.22001e-172
1.61619e-172
2.08721e-172
2.63125e-172
3.24209e-172
3.90905e-172
4.61703e-172
5.34737e-172
6.07852e-172
6.78713e-172
7.44978e-172
8.03764e-172
8.43787e-172
7.6247e-172
1.46829e-172
2.32743e-181
2.09416e-178
7.31304e-170
3.43042e-169
3.75501e-169
3.5947e-169
3.35689e-169
3.08279e-169
2.78348e-169
2.46909e-169
2.15017e-169
1.83671e-169
1.5376e-169
1.26025e-169
1.01015e-169
7.90897e-170
6.04092e-170
4.49505e-170
3.25408e-170
2.28867e-170
1.56164e-170
1.03227e-170
6.60037e-171
4.07543e-171
2.42455e-171
1.3852e-171
7.56333e-172
3.92265e-172
1.91661e-172
8.7503e-173
3.70863e-173
1.45382e-173
5.26974e-174
1.77153e-174
5.53514e-175
1.59443e-175
4.13115e-176
9.37398e-177
1.84295e-177
3.16543e-178
4.79708e-179
6.28282e-180
6.88157e-181
6.24319e-182
4.71099e-183
2.94082e-184
1.5097e-185
6.37368e-187
2.22311e-188
6.45443e-190
1.57445e-191
3.26031e-193
5.79278e-195
8.92523e-197
1.20468e-198
1.52042e-200
1.89566e-202
2.33387e-204
2.83626e-206
3.40081e-208
4.02132e-210
4.68662e-212
5.37995e-214
6.07883e-216
6.75541e-218
7.37754e-220
7.91062e-222
8.32012e-224
8.57476e-226
8.64987e-228
8.53067e-230
8.21484e-232
7.71395e-234
7.05341e-236
6.27052e-238
5.41107e-240
4.5246e-242
3.65914e-244
2.85629e-246
2.14734e-248
1.55113e-250
1.0738e-252
7.10405e-255
4.47765e-257
2.67962e-259
1.51679e-261
8.08652e-264
4.04109e-266
1.88262e-268
8.12508e-271
3.22485e-273
1.16695e-275
3.81003e-278
1.10813e-280
2.82515e-283
6.18258e-286
1.12872e-288
1.64977e-291
1.80936e-294
1.32339e-297
4.84476e-301
1.15689e-300
3.12658e-297
4.21579e-294
3.78711e-291
2.55153e-288
1.37596e-285
6.18936e-283
2.38967e-280
8.08751e-278
2.4383e-275
6.63313e-273
1.64528e-270
3.75336e-268
7.93312e-266
1.56332e-263
2.88808e-261
5.02591e-259
8.27399e-257
1.29349e-254
1.92686e-252
2.74358e-250
3.74454e-248
4.91146e-246
6.20564e-244
7.56969e-242
8.93234e-240
1.02157e-237
1.13433e-235
1.22489e-233
1.28825e-231
1.32151e-229
1.32399e-227
1.29715e-225
1.24421e-223
1.1697e-221
1.07889e-219
9.77269e-218
8.70115e-216
7.62118e-214
6.57175e-212
5.58284e-210
4.67539e-208
3.86201e-206
3.14815e-204
2.53352e-202
2.01357e-200
1.58087e-198
1.15975e-196
7.43596e-195
4.12509e-193
1.95939e-191
7.88622e-190
2.663e-188
7.47888e-187
1.73513e-185
3.31288e-184
5.2092e-183
6.79134e-182
7.37928e-181
6.65239e-180
5.02783e-179
3.29155e-178
1.90329e-177
9.6199e-177
4.21684e-176
1.62084e-175
5.60887e-175
1.79064e-174
5.31497e-174
1.46343e-173
3.72677e-173
8.7805e-173
1.92101e-172
3.92816e-172
7.569e-172
1.38554e-171
2.42424e-171
4.07398e-171
6.59732e-171
1.03179e-170
1.56109e-170
2.28839e-170
3.25482e-170
4.49825e-170
6.04891e-170
7.92545e-170
1.01322e-169
1.26555e-169
1.54623e-169
1.85011e-169
2.1702e-169
2.49814e-169
2.82446e-169
3.13905e-169
3.43192e-169
3.69085e-169
3.866e-169
3.49829e-169
6.96074e-170
1.60751e-178
1.11664e-175
2.73691e-167
1.25493e-166
1.3724e-166
1.31453e-166
1.22945e-166
1.13202e-166
1.02588e-166
9.14273e-167
8.00665e-167
6.88417e-167
5.8059e-167
4.79822e-167
3.88142e-167
3.06972e-167
2.37062e-167
1.78524e-167
1.30933e-167
9.34e-168
6.47164e-168
4.34974e-168
2.83203e-168
1.78329e-168
1.08365e-168
6.33387e-169
3.54329e-169
1.88534e-169
9.46106e-170
4.44073e-170
1.93706e-170
7.82653e-171
2.93019e-171
1.02054e-171
3.31598e-172
9.96552e-173
2.69768e-173
6.39672e-174
1.31554e-174
2.37216e-175
3.79461e-176
5.25786e-177
6.08544e-178
5.83508e-179
4.66441e-180
3.08475e-181
1.67413e-182
7.45078e-184
2.73037e-185
8.29692e-187
2.10965e-188
4.53455e-190
8.32786e-192
1.32084e-193
1.82794e-195
2.35347e-197
2.99069e-199
3.74979e-201
4.63745e-203
5.65492e-205
6.79605e-207
8.04535e-209
9.37638e-211
1.07508e-212
1.21184e-214
1.34184e-216
1.45825e-218
1.55395e-220
1.6221e-222
1.65686e-224
1.65411e-226
1.61204e-228
1.53162e-230
1.4167e-232
1.2738e-234
1.11153e-236
9.39689e-239
7.68211e-241
6.06091e-243
4.60482e-245
3.36108e-247
2.35083e-249
1.57117e-251
1.00032e-253
6.04635e-256
3.4565e-258
1.8609e-260
9.39024e-263
4.41697e-265
1.92459e-267
7.7115e-270
2.81688e-272
9.28342e-275
2.72524e-277
7.01234e-280
1.54872e-282
2.85332e-285
4.20842e-288
4.65725e-291
3.43697e-294
1.26945e-297
3.0909e-297
8.27754e-294
1.10594e-290
9.84364e-288
6.57081e-285
3.51049e-282
1.56432e-279
5.98282e-277
2.0056e-274
5.9889e-272
1.61354e-269
3.96344e-267
8.95343e-265
1.87377e-262
3.65586e-260
6.68622e-258
1.1518e-255
1.87684e-253
2.9039e-251
4.28081e-249
6.03122e-247
8.14409e-245
1.05671e-242
1.32062e-240
1.59312e-238
1.85887e-236
2.10179e-234
2.3069e-232
2.46188e-230
2.55835e-228
2.59253e-226
2.56526e-224
2.48151e-222
2.34953e-220
2.17967e-218
1.98326e-216
1.77156e-214
1.55485e-212
1.34192e-210
1.13968e-208
9.53101e-207
7.8533e-205
6.37885e-203
5.10974e-201
4.03807e-199
3.14907e-197
2.42382e-195
1.73413e-193
1.07982e-191
5.79212e-190
2.64828e-188
1.02143e-186
3.2912e-185
8.7861e-184
1.93133e-182
3.48446e-181
5.16732e-180
6.35588e-179
6.53212e-178
5.57073e-177
3.97891e-176
2.46776e-175
1.35925e-174
6.56723e-174
2.75456e-173
1.01338e-172
3.36121e-172
1.03191e-171
2.95643e-171
7.88123e-171
1.94724e-170
4.45764e-170
9.48607e-170
1.88864e-169
3.5472e-169
6.33772e-169
1.08391e-168
1.7833e-168
2.8317e-168
4.34915e-168
6.47127e-168
9.34129e-168
1.30992e-167
1.78684e-167
2.37405e-167
3.07625e-167
3.89295e-167
4.81732e-167
5.83594e-167
6.92937e-167
8.07226e-167
9.23512e-167
1.03851e-166
1.14877e-166
1.25098e-166
1.34102e-166
1.40151e-166
1.26994e-166
2.61204e-167
8.88403e-176
4.94284e-173
8.31946e-165
3.71903e-164
4.06511e-164
3.89917e-164
3.65495e-164
3.37575e-164
3.07147e-164
2.75071e-164
2.4228e-164
2.09698e-164
1.78181e-164
1.4849e-164
1.21232e-164
9.68567e-165
7.56324e-165
5.7649e-165
4.284e-165
3.09998e-165
2.1816e-165
1.4913e-165
9.88955e-166
6.35282e-166
3.94467e-166
2.35975e-166
1.35307e-166
7.3891e-167
3.80969e-167
1.83892e-167
8.2579e-168
3.44001e-168
1.33079e-168
4.80491e-169
1.62494e-169
5.09978e-170
1.44349e-170
3.57906e-171
7.70479e-172
1.4601e-172
2.46934e-173
3.62546e-174
4.4397e-175
4.50674e-176
3.8259e-177
2.68768e-178
1.54614e-179
7.27478e-181
2.80949e-182
8.96392e-184
2.38338e-185
5.33423e-187
1.0157e-188
1.66322e-190
2.36679e-192
3.11537e-194
4.04337e-196
5.17324e-198
6.5233e-200
8.10449e-202
9.91685e-204
1.19457e-205
1.41582e-207
1.65003e-209
1.88961e-211
2.12478e-213
2.34401e-215
2.53466e-217
2.68391e-219
2.78006e-221
2.81374e-223
2.7793e-225
2.67576e-227
2.50733e-229
2.28342e-231
2.01778e-233
1.72714e-235
1.42938e-237
1.14146e-239
8.77667e-242
6.48238e-244
4.58737e-246
3.10171e-248
1.9976e-250
1.22126e-252
7.06085e-255
3.84426e-257
1.96154e-259
9.32916e-262
4.10981e-264
1.66478e-266
6.14739e-269
2.04789e-271
6.07646e-274
1.58027e-276
3.52727e-279
6.5673e-282
9.78816e-285
1.09454e-287
8.1616e-291
3.04565e-294
7.58602e-294
2.01025e-290
2.65754e-287
2.34035e-284
1.54559e-281
8.16895e-279
3.60096e-276
1.36229e-273
4.51695e-271
1.33401e-268
3.55443e-266
8.63395e-264
1.92859e-261
3.99069e-259
7.69773e-257
1.39174e-254
2.36985e-252
3.81674e-250
5.83614e-248
8.5016e-246
1.18348e-243
1.57879e-241
2.02353e-239
2.49769e-237
2.97546e-235
3.42789e-233
3.82619e-231
4.14498e-229
4.36506e-227
4.47529e-225
4.47322e-223
4.36469e-221
4.16241e-219
3.88408e-217
3.55007e-215
3.18138e-213
2.79779e-211
2.41654e-209
2.05154e-207
1.71305e-205
1.40776e-203
1.13916e-201
9.08108e-200
7.13419e-198
5.52493e-196
4.21854e-194
3.17602e-192
2.2095e-190
1.33199e-188
6.88592e-187
3.0204e-185
1.11254e-183
3.40903e-182
8.62249e-181
1.79042e-179
3.04408e-178
4.24596e-177
4.91513e-176
4.77008e-175
3.84339e-174
2.59021e-173
1.51951e-172
7.96412e-172
3.6758e-171
1.47435e-170
5.18718e-170
1.64751e-169
4.85978e-169
1.34312e-168
3.46512e-168
8.30385e-168
1.84646e-167
3.82083e-167
7.40406e-167
1.35493e-166
2.36183e-166
3.94667e-166
6.3545e-166
9.8908e-166
1.49141e-165
2.18187e-165
3.10084e-165
4.28635e-165
5.77029e-165
7.57401e-165
9.7052e-165
1.21564e-164
1.49024e-164
1.78998e-164
2.10898e-164
2.43982e-164
2.77407e-164
3.10256e-164
3.41583e-164
3.70491e-164
3.9587e-164
4.12787e-164
3.74535e-164
7.96686e-165
4.04345e-173
1.84724e-170
2.08981e-162
9.08894e-162
9.93129e-162
9.54376e-162
8.96979e-162
8.31304e-162
7.59583e-162
6.83707e-162
6.05763e-162
5.27837e-162
4.51915e-162
3.79802e-162
3.12986e-162
2.5263e-162
1.99492e-162
1.53926e-162
1.15916e-162
8.51029e-163
6.08433e-163
4.23118e-163
2.85891e-163
1.87425e-163
1.18971e-163
7.28753e-164
4.28506e-164
2.40277e-164
1.27329e-164
6.32277e-165
2.92397e-165
1.25626e-165
5.02411e-166
1.88187e-166
6.63042e-167
2.17542e-167
6.44409e-168
1.67184e-168
3.76999e-169
7.51712e-170
1.34644e-170
2.09806e-171
2.72193e-172
2.93014e-173
2.64869e-174
1.98188e-175
1.21177e-176
6.04579e-178
2.46865e-179
8.29781e-181
2.31485e-182
5.41247e-184
1.07199e-185
1.81804e-187
2.66821e-189
3.59897e-191
4.78117e-193
6.25518e-195
8.05822e-197
1.02197e-198
1.27557e-200
1.56626e-202
1.89111e-204
2.24396e-206
2.61508e-208
2.99099e-210
3.35477e-212
3.68685e-214
3.96628e-216
4.17257e-218
4.28786e-220
4.29911e-222
4.20015e-224
3.99306e-226
3.6886e-228
3.30557e-230
2.86892e-232
2.40703e-234
1.94837e-236
1.51829e-238
1.13636e-240
8.1479e-243
5.58128e-245
3.64121e-247
2.25479e-249
1.32031e-251
7.27966e-254
3.76132e-256
1.81132e-258
8.07886e-261
3.31307e-263
1.23845e-265
4.17619e-268
1.25425e-270
3.30139e-273
7.45778e-276
1.40519e-278
2.11936e-281
2.39809e-284
1.8093e-287
6.83102e-291
1.74649e-290
4.5731e-287
5.97348e-284
5.19746e-281
3.3911e-278
1.77061e-275
7.71005e-273
2.88111e-270
9.4354e-268
2.75212e-265
7.24171e-263
1.73704e-260
3.83122e-258
7.82715e-256
1.49053e-253
2.66025e-251
4.47123e-249
7.10722e-247
1.07247e-244
1.54158e-242
2.11729e-240
2.7864e-238
3.52263e-236
4.28816e-234
5.03726e-232
5.7214e-230
6.29502e-228
6.72082e-226
6.97379e-224
7.04334e-222
6.93344e-220
6.66095e-218
6.25253e-216
5.74101e-214
5.16152e-212
4.54812e-210
3.93123e-208
3.33587e-206
2.78089e-204
2.27891e-202
1.83689e-200
1.45697e-198
1.13764e-196
8.7471e-195
6.62391e-193
4.94072e-191
3.62973e-189
2.4476e-187
1.42378e-185
7.06919e-184
2.96408e-182
1.0389e-180
3.01639e-179
7.20369e-178
1.40859e-176
2.25069e-175
2.94455e-174
3.19944e-173
2.92714e-172
2.22535e-171
1.41277e-170
7.8254e-170
3.89834e-169
1.71759e-168
6.58339e-168
2.21314e-167
6.72381e-167
1.9038e-166
5.07199e-166
1.26577e-165
2.941e-165
6.35024e-165
1.27731e-164
2.40816e-164
4.29188e-164
7.29549e-164
1.19056e-163
1.8751e-163
2.85975e-163
4.2321e-163
6.08568e-163
8.51315e-163
1.15981e-162
1.54063e-162
1.99753e-162
2.53088e-162
3.13744e-162
3.80991e-162
4.53697e-162
5.30406e-162
6.09337e-162
6.88515e-162
7.6583e-162
8.39166e-162
9.0654e-162
9.65471e-162
1.00441e-161
9.12462e-162
2.00811e-162
1.54511e-170
5.89556e-168
4.38163e-160
1.85142e-159
2.02256e-159
1.94782e-159
1.83604e-159
1.70784e-159
1.56741e-159
1.41822e-159
1.26412e-159
1.10907e-159
9.56866e-160
8.11078e-160
6.74726e-160
5.50284e-160
4.39493e-160
3.4333e-160
2.62061e-160
1.95253e-160
1.41853e-160
1.00392e-160
6.91416e-161
4.62815e-161
3.00482e-161
1.88571e-161
1.13764e-161
6.55328e-162
3.57097e-162
1.8249e-162
8.69409e-163
3.85414e-163
1.59436e-163
6.20067e-164
2.2787e-164
7.82532e-165
2.42827e-165
6.59665e-166
1.5594e-166
3.2759e-167
6.2266e-168
1.03153e-168
1.41964e-169
1.62363e-170
1.56726e-171
1.25258e-172
8.16223e-174
4.33189e-175
1.87664e-176
6.66912e-178
1.95904e-179
4.80222e-181
9.92737e-183
1.74955e-184
2.65675e-186
3.68118e-188
5.01731e-190
6.72691e-192
8.87186e-194
1.15085e-195
1.46802e-197
1.84085e-199
2.2683e-201
2.74514e-203
3.26104e-205
3.80006e-207
4.34053e-209
4.85575e-211
5.31543e-213
5.68804e-215
5.94378e-217
6.05812e-219
6.01513e-221
5.81032e-223
5.45221e-225
4.9623e-227
4.37319e-229
3.72501e-231
3.06065e-233
2.42063e-235
1.83849e-237
1.33754e-239
9.29522e-242
6.1516e-244
3.86385e-246
2.29465e-248
1.28305e-250
6.72241e-253
3.28244e-255
1.48435e-257
6.17119e-260
2.33852e-262
7.99345e-265
2.43334e-267
6.49159e-270
1.48619e-272
2.83781e-275
4.33719e-278
4.97279e-281
3.80143e-284
1.45409e-287
3.82991e-287
9.89544e-284
1.27537e-280
1.09486e-277
7.04755e-275
3.63014e-272
1.55931e-269
5.74752e-267
1.8565e-264
5.34054e-262
1.38583e-259
3.2779e-257
7.12861e-255
1.43588e-252
2.69565e-250
4.74255e-248
7.85674e-246
1.23082e-243
1.83027e-241
2.59226e-239
3.50769e-237
4.54732e-235
5.66224e-233
6.7879e-231
7.85108e-229
8.77872e-227
9.50686e-225
9.98809e-223
1.01965e-220
1.01293e-218
9.80505e-217
9.26004e-215
8.54226e-213
7.70541e-211
6.80319e-209
5.88461e-207
4.99079e-205
4.15328e-203
3.39369e-201
2.72436e-199
2.14972e-197
1.66801e-195
1.27306e-193
9.55912e-192
7.06229e-190
5.13352e-188
3.67072e-186
2.39115e-184
1.33738e-182
6.35375e-181
2.53692e-179
8.42823e-178
2.30989e-176
5.18967e-175
9.52479e-174
1.4263e-172
1.74522e-171
1.77483e-170
1.52802e-169
1.09465e-168
6.5349e-168
3.41114e-167
1.61306e-166
6.77923e-166
2.48127e-165
7.96234e-165
2.31115e-164
6.27417e-164
1.60992e-163
3.88423e-163
8.74665e-163
1.83321e-162
3.5829e-162
6.56915e-162
1.13964e-161
1.88807e-161
3.0074e-161
4.63086e-161
6.91695e-161
1.00422e-160
1.41891e-160
1.95318e-160
2.62195e-160
3.43601e-160
4.39994e-160
5.51141e-160
6.76116e-160
8.13218e-160
9.60025e-160
1.11356e-159
1.27028e-159
1.42635e-159
1.57777e-159
1.7206e-159
1.85125e-159
1.96509e-159
2.03956e-159
1.85482e-159
4.22409e-160
5.02224e-168
1.6188e-165
7.70283e-158
3.16051e-157
3.45281e-157
3.33296e-157
3.15145e-157
2.94264e-157
2.71307e-157
2.468e-157
2.21341e-157
1.95549e-157
1.70036e-157
1.45385e-157
1.22108e-157
1.00641e-157
8.13095e-158
6.43229e-158
4.97762e-158
3.76477e-158
2.7804e-158
2.00334e-158
1.40703e-158
9.62156e-159
6.39298e-159
4.1128e-159
2.54725e-159
1.5082e-159
8.45485e-160
4.4486e-160
2.18433e-160
9.99645e-161
4.28041e-161
1.73023e-161
6.64089e-162
2.39024e-162
7.77798e-163
2.21427e-163
5.49213e-164
1.21739e-164
2.46086e-165
4.34226e-166
6.34791e-167
7.72852e-168
7.99132e-169
6.84155e-170
4.7647e-171
2.69898e-172
1.2451e-173
4.69598e-175
1.45805e-176
3.76123e-178
8.14551e-180
1.49708e-181
2.36037e-183
3.36859e-185
4.7221e-187
6.50326e-189
8.80008e-191
1.17005e-192
1.52839e-194
1.961e-196
2.47055e-198
3.05492e-200
3.70569e-202
4.40698e-204
5.13468e-206
5.85665e-208
6.53394e-210
7.12324e-212
7.58068e-214
7.86643e-216
7.94978e-218
7.81388e-220
7.45919e-222
6.90493e-224
6.18793e-226
5.35877e-228
4.47577e-230
3.59775e-232
2.77683e-234
2.0527e-236
1.44928e-238
9.74331e-241
6.2161e-243
3.74931e-245
2.12899e-247
1.1327e-249
5.61575e-252
2.57831e-254
1.08824e-256
4.1862e-259
1.45247e-261
4.48788e-264
1.21514e-266
2.82331e-269
5.47079e-272
8.4846e-275
9.87076e-278
7.65592e-281
2.97104e-284
8.0925e-284
2.06035e-280
2.61656e-277
2.21317e-274
1.40355e-271
7.12224e-269
3.01369e-266
1.09418e-263
3.48109e-261
9.86241e-259
2.5203e-256
5.87015e-254
1.25699e-251
2.49277e-249
4.60706e-247
7.97861e-245
1.30097e-242
2.00579e-240
2.93509e-238
4.09022e-236
5.44496e-234
6.94342e-232
8.50327e-230
1.0024e-227
1.13991e-225
1.25292e-223
1.3335e-221
1.37659e-219
1.3805e-217
1.34683e-215
1.27999e-213
1.18648e-211
1.07389e-209
9.50085e-208
8.22396e-206
6.97096e-204
5.79078e-202
4.71755e-200
3.77134e-198
2.96004e-196
2.28196e-194
1.72848e-192
1.28666e-190
9.41331e-189
6.76849e-187
4.78226e-185
3.31911e-183
2.08104e-181
1.11482e-179
5.04774e-178
1.9114e-176
5.99426e-175
1.5444e-173
3.25159e-172
5.58194e-171
7.81149e-170
8.9131e-169
8.45722e-168
6.83861e-167
4.61012e-166
2.58317e-165
1.26791e-164
5.68301e-164
2.27623e-163
7.94923e-163
2.43241e-162
6.73621e-162
1.75101e-161
4.32303e-161
1.00766e-160
2.19796e-160
4.46963e-160
8.48444e-160
1.51207e-159
2.55208e-159
4.11844e-159
6.39911e-159
9.62796e-159
1.40768e-158
2.00399e-158
2.78113e-158
3.76587e-158
4.97971e-158
6.43643e-158
8.13851e-158
1.00768e-157
1.22313e-157
1.45696e-157
1.70492e-157
1.96191e-157
2.2221e-157
2.47931e-157
2.72723e-157
2.9598e-157
3.17157e-157
3.35541e-157
3.47421e-157
3.1618e-157
7.44847e-158
1.40037e-165
3.83983e-163
1.1353e-155
4.52739e-155
4.94901e-155
4.78911e-155
4.54298e-155
4.25879e-155
3.9451e-155
3.6085e-155
3.25668e-155
2.89774e-155
2.53982e-155
2.19093e-155
1.85822e-155
1.54807e-155
1.26552e-155
1.01409e-155
7.95863e-156
6.11277e-156
4.59109e-156
3.36943e-156
2.41459e-156
1.68775e-156
1.14836e-156
7.57792e-157
4.82098e-157
2.93555e-157
1.69384e-157
9.18059e-158
4.64851e-158
2.19763e-158
9.7489e-159
4.10082e-159
1.64635e-159
6.21982e-160
2.12482e-160
6.34464e-161
1.65287e-161
3.87264e-162
8.3459e-163
1.57163e-163
2.44393e-164
3.17436e-165
3.5281e-166
3.24518e-167
2.42244e-168
1.46992e-169
7.24976e-171
2.91371e-172
9.60134e-174
2.61698e-175
5.96082e-177
1.14695e-178
1.88457e-180
2.77821e-182
4.01623e-184
5.69575e-186
7.92652e-188
1.08262e-189
1.45123e-191