/*--------------------------------*- C++ -*----------------------------------*\
| =========                 |                                                 |
| \\      /  F ield         | OpenFOAM: The Open Source CFD Toolbox           |
|  \\    /   O peration     | Version:  2412                                  |
|   \\  /    A nd           | Website:  www.openfoam.com                      |
|    \\/     M anipulation  |                                                 |
\*---------------------------------------------------------------------------*/
FoamFile
{
    version     2.0;
    format      ascii;
    arch        "LSB;label=32;scalar=64";
    class       surfaceScalarField;
    location    "1.11";
    object      alphaPhi0.water;
}
// * * * * * * * * * * * * * * * * * * * * * * * * * * * * * * * * * * * * * //

dimensions      [0 3 -1 0 0 0 0];

oriented        oriented;

internalField   nonuniform List<scalar> 
79600
(
7.43503e-205
-3.6621e-201
1.95674e-195
-4.44778e-192
1.85606e-194
-2.60817e-191
3.1873e-194
-3.18256e-191
4.19136e-194
-3.22636e-191
4.88817e-194
-3.0604e-191
5.28472e-194
-2.79072e-191
5.40877e-194
-2.47229e-191
5.29471e-194
-2.13573e-191
4.98971e-194
-1.80274e-191
4.54037e-194
-1.48671e-191
3.99437e-194
-1.19688e-191
3.39992e-194
-9.39766e-192
2.80002e-194
-7.1881e-192
2.23032e-194
-5.34884e-192
1.71697e-194
-3.86641e-192
1.27613e-194
-2.71048e-192
9.14701e-195
-1.83985e-192
6.3144e-195
-1.20715e-192
4.19193e-195
-7.64202e-193
2.6719e-195
-4.65914e-193
1.63227e-195
-2.73025e-193
9.53826e-196
-1.5345e-193
5.31861e-196
-8.25019e-194
2.82081e-196
-4.22875e-194
1.41666e-196
-2.05675e-194
6.69978e-197
-9.43724e-195
2.96203e-197
-4.05413e-195
1.21489e-197
-1.61773e-195
4.59169e-198
-5.95497e-196
1.59134e-198
-2.01226e-196
5.04369e-199
-6.22651e-197
1.46123e-199
-1.76402e-197
3.86693e-200
-4.57374e-198
9.28245e-201
-1.07743e-198
1.98471e-201
-2.26177e-199
3.69903e-202
-4.13611e-200
5.93397e-203
-6.50517e-201
8.19084e-204
-8.80319e-202
9.75634e-205
-1.02861e-202
9.9151e-206
-1.02453e-203
8.42828e-207
-8.508e-205
5.92846e-208
-5.82212e-206
3.44558e-209
-3.27698e-207
1.65391e-210
-1.51418e-208
6.55957e-212
-5.73424e-210
2.15548e-213
-1.78063e-211
5.89683e-215
-4.54332e-213
1.35099e-216
-9.54363e-215
2.60654e-218
-1.64887e-216
4.25056e-220
-2.32281e-218
5.85448e-222
-2.59278e-220
6.74218e-224
-2.08782e-222
6.28094e-226
-7.0768e-225
5.25997e-228
3.33239e-231
4.37234e-230
7.30196e-233
3.60345e-232
9.80066e-235
2.942e-234
1.11391e-236
2.37756e-236
1.15852e-238
1.90029e-238
1.13678e-240
1.50078e-240
1.06816e-242
1.17005e-242
9.68975e-245
8.9961e-245
8.5261e-247
6.81401e-247
7.29714e-249
5.0789e-249
6.08431e-251
3.72094e-251
4.94639e-253
2.67625e-253
3.92204e-255
1.88731e-255
3.03279e-257
1.30324e-257
2.28619e-259
8.79978e-260
1.67899e-261
5.8016e-262
1.20032e-263
3.72895e-264
8.34512e-266
2.33282e-266
5.63581e-268
1.41803e-268
3.69238e-270
8.35988e-271
2.34345e-272
4.77068e-273
1.43848e-274
2.62975e-275
8.52495e-277
1.3971e-277
4.86835e-279
7.13615e-280
2.6734e-281
3.49526e-282
1.40844e-283
1.63693e-284
7.10087e-286
7.30716e-287
3.41644e-288
3.09837e-289
1.56387e-290
1.24313e-291
6.78763e-293
4.69934e-294
2.78288e-295
1.66569e-296
1.07322e-297
5.50557e-299
3.87465e-300
1.68623e-301
1.30242e-302
4.75059e-304
4.05058e-305
1.22045e-306
1.15706e-307
2.82942e-309
3.0096e-310
5.84412e-312
7.05429e-313
1.05821e-314
1.47107e-315
1.64484e-317
2.68562e-318
2.13288e-320
4.2045e-321
1.97626e-323
4.94066e-324
0
0
0
0
0
0
0
0
0
0
0
0
0
0
-6.91692e-323
0
-6.57008e-320
1.97626e-323
-4.87716e-317
1.29445e-320
-3.02389e-314
7.96104e-318
-1.61127e-311
4.20265e-315
-7.53514e-309
1.9445e-312
-3.14296e-306
8.01343e-310
-1.18432e-303
2.97923e-307
-4.07382e-301
1.00968e-304
-1.29035e-298
3.14626e-302
-3.7911e-296
9.08046e-300
-1.03971e-293
2.44254e-297
-2.67622e-291
6.15679e-295
-6.49659e-289
1.46121e-292
-1.49366e-286
3.27901e-290
-3.26499e-284
6.98343e-288
-6.80869e-282
1.41631e-285
-1.35879e-279
2.74366e-283
-2.60243e-277
5.09064e-281
-4.79597e-275
9.06904e-279
-8.52484e-273
1.55486e-276
-1.46477e-270
2.57076e-274
-2.43795e-268
4.10671e-272
-3.93805e-266
6.34941e-270
-6.18475e-264
9.51604e-268
-9.45973e-262
1.38448e-265
-1.41136e-259
1.9578e-263
-2.05708e-257
2.69385e-261
-2.93313e-255
3.61005e-259
-4.09694e-253
4.71563e-257
-5.61292e-251
6.00769e-255
-7.55172e-249
7.46699e-253
-9.98927e-247
9.05494e-251
-1.30056e-244
1.07102e-248
-1.6684e-242
1.23448e-246
-2.11097e-240
1.3843e-244
-2.63692e-238
1.50594e-242
-3.25506e-236
1.58182e-240
-3.97428e-234
1.59139e-238
-4.8037e-232
1.51089e-236
-5.75276e-230
1.31314e-234
-6.83142e-228
9.67705e-233
-8.05033e-226
4.40167e-231
-8.53963e-224
-8.81496e-225
-7.31174e-222
-2.62093e-222
-5.22635e-220
-3.22218e-220
-3.15198e-218
-2.84797e-218
-1.60581e-216
-1.99085e-216
-6.88768e-215
-1.13359e-214
-2.47407e-213
-5.30556e-213
-7.40109e-212
-2.04367e-211
-1.83558e-210
-6.46905e-210
-3.76556e-209
-1.68001e-208
-6.38904e-208
-3.57961e-207
-8.97027e-207
-6.27053e-206
-1.04379e-205
-9.04835e-205
-1.01779e-204
-1.07763e-203
-8.48055e-204
-1.0721e-202
-6.1031e-203
-9.10654e-202
-3.78156e-202
-6.68477e-201
-2.01854e-201
-4.22459e-200
-9.40199e-201
-2.29813e-199
-3.90386e-200
-1.09023e-198
-1.47128e-199
-4.61279e-198
-5.06676e-199
-1.77434e-197
-1.59551e-198
-6.2484e-197
-4.59648e-198
-2.01529e-196
-1.21459e-197
-5.95409e-196
-2.95809e-197
-1.61527e-195
-6.6839e-197
-4.04321e-195
-1.41183e-196
-9.40117e-195
-2.80818e-196
-2.04657e-194
-5.29006e-196
-4.20289e-194
-9.48153e-196
-8.1913e-194
-1.62218e-195
-1.5224e-193
-2.65566e-195
-2.7075e-193
-4.16768e-195
-4.61961e-193
-6.28026e-195
-7.57737e-193
-9.10074e-195
-1.19703e-192
-1.27e-194
-1.82442e-192
-1.70905e-194
-2.68736e-192
-2.22064e-194
-3.83231e-192
-2.78935e-194
-5.29998e-192
-3.39006e-194
-7.12103e-192
-3.98845e-194
-9.30994e-192
-4.54303e-194
-1.186e-191
-5.00747e-194
-1.47404e-191
-5.33569e-194
-1.78912e-191
-5.48657e-194
-2.12275e-191
-5.42872e-194
-2.46432e-191
-5.14367e-194
-2.80177e-191
-4.62337e-194
-3.1222e-191
-3.83536e-194
-3.40912e-191
-2.48998e-194
-3.60421e-191
-2.60875e-195
-3.22362e-191
-4.19992e-205
-5.38936e-192
-2.1007e-201
5.7025e-201
-1.77449e-197
1.30715e-191
-1.81461e-188
1.04383e-190
-9.4131e-188
1.63066e-190
-1.08284e-187
2.03965e-190
-1.06918e-187
2.33159e-190
-1.0087e-187
2.50765e-190
-9.23297e-188
2.56896e-190
-8.23461e-188
2.52575e-190
-7.17163e-188
2.39403e-190
-6.10441e-188
2.19311e-190
-5.07774e-188
1.94419e-190
-4.12495e-188
1.66891e-190
-3.2698e-188
1.38721e-190
-2.52632e-188
1.11614e-190
-1.90014e-188
8.68681e-191
-1.38933e-188
6.53347e-191
-9.86e-189
4.7435e-191
-6.78159e-189
3.32024e-191
-4.51285e-189
2.23743e-191
-2.90065e-189
1.44935e-191
-1.79759e-189
9.0099e-192
-1.0721e-189
5.36511e-192
-6.14098e-190
3.053e-192
-3.36979e-190
1.65491e-192
-1.76546e-190
8.50709e-193
-8.78931e-191
4.12392e-193
-4.13365e-191
1.87128e-193
-1.8223e-191
7.88724e-194
-7.4705e-192
3.06734e-194
-2.82846e-192
1.09549e-194
-9.84444e-193
3.58496e-195
-3.14331e-193
1.07504e-195
-9.21203e-194
2.95361e-196
-2.47824e-194
7.38283e-197
-6.07468e-195
1.64726e-197
-1.3292e-195
3.20819e-198
-2.53544e-196
5.38671e-199
-4.16358e-197
7.80446e-200
-5.89746e-198
9.79639e-201
-7.23959e-199
1.05245e-201
-7.59191e-200
9.47244e-203
-6.63553e-201
7.06627e-204
-4.77682e-202
4.36623e-205
-2.82916e-203
2.23393e-206
-1.3749e-204
9.46841e-208
-5.46715e-206
3.33576e-209
-1.77847e-207
9.82971e-211
-4.74194e-209
2.44284e-212
-1.03852e-210
5.16765e-214
-1.86749e-212
9.39479e-216
-2.73634e-214
1.48137e-217
-3.18132e-216
2.04251e-219
-2.68649e-218
2.47835e-221
-1.00528e-220
2.83929e-223
2.93017e-226
3.22029e-225
9.0648e-228
3.61322e-227
1.67096e-229
4.00812e-229
2.59121e-231
4.39293e-231
3.66385e-233
4.75369e-233
4.87513e-235
5.07509e-235
6.19929e-237
5.34117e-237
7.59755e-239
5.53644e-239
9.01826e-241
5.647e-241
1.03986e-242
5.66196e-243
1.16678e-244
5.57466e-245
1.27521e-246
5.3838e-247
1.35808e-248
5.09408e-249
1.40937e-250
4.71635e-251
1.42478e-252
4.26715e-253
1.40235e-254
3.76751e-255
1.34285e-256
3.24125e-257
1.24983e-258
2.71285e-259
1.12943e-260
2.20531e-261
9.89701e-263
1.73806e-263
8.398e-265
1.32549e-265
6.88967e-267
9.76148e-268
5.45537e-269
6.92654e-270
4.16134e-271
4.72429e-272
3.0516e-273
3.0892e-274
2.14643e-275
1.93112e-276
1.44451e-277
1.15046e-278
9.27563e-280
6.5094e-281
5.6659e-282
3.48464e-283
3.28123e-284
1.7574e-285
1.79481e-286
8.30967e-288
9.23388e-289
3.66372e-290
4.44697e-291
1.49674e-292
1.99388e-293
5.62437e-295
8.27116e-296
1.92724e-297
3.15135e-298
5.95941e-300
1.0933e-300
1.6418e-302
3.418e-303
3.96537e-305
9.50722e-306
8.22191e-308
2.31519e-308
1.42231e-310
4.83347e-311
1.96997e-313
8.40782e-314
2.04737e-316
1.16944e-316
1.41886e-319
1.21891e-319
4.94066e-323
8.39912e-323
0
0
-1.18576e-322
0
-3.3673e-319
2.02567e-322
-4.77488e-316
2.89794e-319
-4.51305e-313
2.73065e-316
-3.20036e-310
1.92791e-313
-1.8171e-307
1.08837e-310
-8.60847e-305
5.11978e-308
-3.50151e-302
2.06499e-305
-1.24881e-299
7.2929e-303
-3.96879e-297
2.29194e-300
-1.13844e-294
6.49203e-298
-2.97843e-292
1.67477e-295
-7.16897e-290
3.96901e-293
-1.59923e-287
8.70436e-291
-3.32726e-285
1.77764e-288
-6.49189e-283
3.39913e-286
-1.19359e-280
6.11473e-284
-2.07681e-278
1.03922e-281
-3.43286e-276
1.67491e-279
-5.40914e-274
2.56855e-277
-8.15025e-272
3.75943e-275
-1.17765e-269
5.26607e-273
-1.63607e-267
7.07724e-271
-2.19061e-265
9.14625e-269
-2.83315e-263
1.139e-266
-3.54658e-261
1.3694e-264
-4.30542e-259
1.59222e-262
-5.07764e-257
1.79314e-260
-5.82742e-255
1.95875e-258
-6.51834e-253
2.07796e-256
-7.11678e-251
2.1432e-254
-7.5948e-249
2.15104e-252
-7.93237e-247
2.10242e-250
-8.1185e-245
2.00226e-248
-8.15154e-243
1.85851e-246
-8.0384e-241
1.68128e-244
-7.79319e-239
1.48174e-242
-7.4353e-237
1.27096e-240
-6.98746e-235
1.05915e-238
-6.47369e-233
8.54976e-237
-5.91764e-231
6.6523e-235
-5.34119e-229
4.94715e-233
-4.76351e-227
3.46298e-231
-4.2005e-225
2.21109e-229
-3.66457e-223
1.18884e-227
-3.16471e-221
3.83146e-226
-2.58008e-219
-1.26702e-220
-1.84773e-217
-3.39312e-218
-1.15531e-215
-3.9768e-216
-6.2576e-214
-3.37554e-214
-2.9102e-212
-2.26931e-212
-1.15139e-210
-1.24153e-210
-3.84056e-209
-5.57209e-209
-1.07157e-207
-2.05307e-207
-2.48635e-206
-6.20011e-206
-4.78376e-205
-1.53247e-204
-7.63198e-204
-3.1025e-203
-1.01006e-202
-5.16187e-202
-1.10968e-201
-7.07717e-201
-1.0233e-200
-8.00455e-200
-8.08984e-200
-7.56117e-199
-5.54611e-199
-6.1122e-198
-3.28307e-198
-4.28615e-197
-1.67703e-197
-2.59412e-196
-7.48576e-197
-1.35288e-195
-2.98508e-196
-6.15774e-195
-1.08366e-195
-2.50399e-194
-3.60554e-195
-9.28347e-194
-1.09961e-194
-3.16056e-193
-3.07373e-194
-9.87883e-193
-7.89271e-194
-2.83353e-192
-1.87047e-193
-7.47327e-192
-4.11814e-193
-1.82088e-191
-8.4879e-193
-4.12631e-191
-1.64988e-192
-8.76603e-191
-3.04174e-192
-1.75937e-190
-5.34298e-192
-3.35584e-190
-8.97091e-192
-6.11256e-190
-1.4431e-191
-1.06686e-189
-2.22816e-191
-1.78871e-189
-3.30739e-191
-2.88658e-189
-4.72668e-191
-4.49181e-189
-6.51265e-191
-6.75153e-189
-8.6628e-191
-9.81873e-189
-1.11368e-190
-1.38392e-188
-1.38528e-190
-1.89353e-188
-1.66851e-190
-2.51914e-188
-1.94682e-190
-3.26357e-188
-2.20086e-190
-4.12263e-188
-2.40965e-190
-5.08443e-188
-2.55276e-190
-6.12865e-188
-2.61222e-190
-7.22737e-188
-2.57454e-190
-8.3462e-188
-2.43216e-190
-9.44665e-188
-2.18235e-190
-1.04885e-187
-1.81101e-190
-1.14215e-187
-1.18281e-190
-1.20636e-187
-1.2887e-191
-1.08372e-187
-2.88898e-201
-1.88245e-188
-1.03709e-197
1.05317e-197
-3.31125e-194
2.10093e-188
-2.74489e-185
1.63761e-187
-1.36876e-184
2.48793e-187
-1.52917e-184
3.05298e-187
-1.48432e-184
3.4608e-187
-1.39202e-184
3.71491e-187
-1.2743e-184
3.81258e-187
-1.14036e-184
3.76361e-187
-9.98362e-185
3.58685e-187
-8.55212e-185
3.30732e-187
-7.16524e-185
2.95391e-187
-5.86747e-185
2.55687e-187
-4.69196e-185
2.14488e-187
-3.65978e-185
1.74314e-187
-2.7812e-185
1.37154e-187
-2.05634e-185
1.04382e-187
-1.47706e-185
7.676e-188
-1.02919e-185
5.44763e-188
-6.94544e-186
3.72622e-188
-4.53221e-186
2.45295e-188
-2.85491e-186
1.55165e-188
-1.73296e-186
9.41474e-189
-1.01169e-186
5.46691e-189
-5.66646e-187
3.02843e-189
-3.03467e-187
1.59323e-189
-1.5466e-187
7.91503e-190
-7.45613e-188
3.68515e-190
-3.37344e-188
1.59553e-190
-1.42085e-188
6.38141e-191
-5.53338e-189
2.3472e-191
-1.98374e-189
7.92519e-192
-6.5366e-190
2.45818e-192
-1.98205e-190
7.00677e-193
-5.53441e-191
1.82226e-193
-1.4122e-191
4.23757e-194
-3.22197e-192
8.60788e-195
-6.41198e-193
1.50892e-195
-1.09956e-193
2.288e-196
-1.63073e-194
3.01693e-197
-2.10452e-195
3.41199e-198
-2.32504e-196
3.23163e-199
-2.13948e-197
2.53558e-200
-1.62056e-198
1.64822e-201
-1.01031e-199
8.86671e-203
-5.16472e-201
3.94463e-204
-2.15556e-202
1.4552e-205
-7.33731e-204
4.47854e-207
-2.03993e-205
1.15955e-208
-4.64134e-207
2.55039e-210
-8.63923e-209
4.81474e-212
-1.30591e-210
7.88319e-214
-1.56216e-212
1.13072e-215
-1.35689e-214
1.43415e-217
-5.33486e-217
1.71896e-219
2.64816e-222
2.03777e-221
8.73416e-224
2.3877e-223
1.68899e-225
2.76378e-225
2.73871e-227
3.15845e-227
4.04258e-229
3.56131e-229
5.60927e-231
3.95918e-231
7.43163e-233
4.33639e-233
9.48245e-235
4.67538e-235
1.17112e-236
4.95771e-237
1.40423e-238
5.16544e-239
1.63765e-240
5.28266e-241
1.85944e-242
5.2972e-243
2.05644e-244
5.20223e-245
2.21534e-246
4.9975e-247
2.32401e-248
4.69001e-249
2.37292e-250
4.29395e-251
2.35646e-252
3.82971e-253
2.27393e-254
3.32221e-255
2.12992e-256
2.79846e-257
1.93414e-258
2.28492e-259
1.70038e-260
1.80493e-261
1.445e-262
1.37656e-263
1.18498e-264
1.01139e-265
9.35975e-267
7.14166e-268
7.10613e-269
4.83398e-270
5.1741e-271
3.12757e-272
3.60405e-273
1.92823e-274
2.39504e-275
1.12893e-276
1.51387e-277
6.25286e-279
9.07118e-280
3.26245e-281
5.13345e-282
1.59579e-283
2.73212e-284
7.27774e-286
1.36103e-286
3.0752e-288
6.31191e-289
1.19516e-290
2.70806e-291
4.23531e-293
1.06707e-293
1.35435e-295
3.82837e-296
3.85841e-298
1.23769e-298
9.63645e-301
3.5599e-301
2.06606e-303
8.96402e-304
3.6957e-306
1.93508e-306
5.29299e-309
3.48052e-309
5.68855e-312
5.0057e-312
4.07736e-315
5.39521e-315
1.46268e-318
3.87313e-318
0
1.38832e-321
-3.33646e-318
3.22625e-321
-9.19823e-315
8.88668e-318
-1.26553e-311
1.22069e-314
-1.1602e-308
1.11579e-311
-7.97849e-306
7.64033e-309
-4.39218e-303
4.18248e-306
-2.01713e-300
1.90751e-303
-7.95244e-298
7.45799e-301
-2.7486e-295
2.55285e-298
-8.46407e-293
7.7747e-296
-2.35218e-290
2.13378e-293
-5.96096e-288
5.33268e-291
-1.38959e-285
1.22413e-288
-3.00173e-283
2.59998e-286
-6.04656e-281
5.14158e-284
-1.14203e-278
9.51848e-282
-2.03224e-276
1.65749e-279
-3.42175e-274
2.72634e-277
-5.47218e-272
4.25188e-275
-8.34068e-270
6.30836e-273
-1.21542e-267
8.93103e-271
-1.6981e-265
1.20984e-268
-2.28059e-263
1.57209e-266
-2.95128e-261
1.96396e-264
-3.68819e-259
2.36369e-262
-4.4601e-257
2.74577e-260
-5.22915e-255
3.08388e-258
-5.95446e-253
3.35397e-256
-6.59628e-251
3.53713e-254
-7.11989e-249
3.62167e-252
-7.49891e-247
3.60413e-250
-7.71732e-245
3.48912e-248
-7.77028e-243
3.28827e-246
-7.66359e-241
3.01843e-244
-7.41221e-239
2.69942e-242
-7.03797e-237
2.35184e-240
-6.56699e-235
1.99523e-238
-6.02719e-233
1.64661e-236
-5.44596e-231
1.31949e-234
-4.84844e-229
1.0236e-232
-4.25628e-227
7.64839e-231
-3.68693e-225
5.45764e-229
-3.15345e-223
3.66158e-227
-2.66472e-221
2.23712e-225
-2.22581e-219
1.14712e-223
-1.83865e-217
3.46651e-222
-1.43476e-215
-6.79389e-217
-9.88177e-214
-1.72678e-214
-5.9523e-212
-1.96719e-212
-3.10518e-210
-1.62271e-210
-1.38883e-208
-1.05727e-208
-5.27246e-207
-5.58587e-207
-1.68305e-205
-2.41173e-205
-4.48176e-204
-8.51583e-204
-9.90058e-203
-2.45567e-202
-1.81057e-201
-5.77809e-201
-2.74435e-200
-1.11126e-199
-3.45178e-199
-1.75548e-198
-3.60224e-198
-2.28645e-197
-3.15478e-197
-2.45532e-196
-2.37397e-196
-2.20095e-195
-1.55498e-195
-1.6922e-194
-8.81618e-195
-1.13327e-193
-4.31764e-194
-6.56777e-193
-1.84917e-193
-3.283e-192
-7.08732e-193
-1.43311e-191
-2.47999e-192
-5.59828e-191
-7.97758e-192
-1.99978e-190
-2.35803e-191
-6.58044e-190
-6.39994e-191
-1.9931e-189
-1.59791e-190
-5.55001e-189
-3.68642e-190
-1.4231e-188
-7.91039e-190
-3.37492e-188
-1.59108e-189
-7.45246e-188
-3.02238e-189
-1.54467e-187
-5.45313e-189
-3.02895e-187
-9.38773e-189
-5.65285e-187
-1.54695e-188
-1.00892e-186
-2.44549e-188
-1.72793e-186
-3.71533e-188
-2.84662e-186
-5.43294e-188
-4.51961e-186
-7.65773e-188
-6.92778e-186
-1.04177e-187
-1.0269e-185
-1.36957e-187
-1.47442e-185
-1.74182e-187
-2.05381e-185
-2.14522e-187
-2.77977e-185
-2.56034e-187
-3.66147e-185
-2.96254e-187
-4.70013e-185
-3.32379e-187
-5.88762e-185
-3.61438e-187
-7.20592e-185
-3.80605e-187
-8.62624e-185
-3.87444e-187
-1.01108e-184
-3.80161e-187
-1.16143e-184
-3.57811e-187
-1.3086e-184
-3.2013e-187
-1.44738e-184
-2.65201e-187
-1.57133e-184
-1.73617e-187
-1.65648e-184
-1.95682e-188
-1.49109e-184
-6.28158e-198
-2.67794e-185
-2.11808e-194
1.18053e-194
-3.80645e-191
1.86854e-185
-2.41418e-182
1.45173e-184
-1.18128e-181
2.19061e-184
-1.30286e-181
2.67026e-184
-1.25325e-181
3.01947e-184
-1.17127e-181
3.24258e-184
-1.07242e-181
3.33695e-184
-9.62348e-182
3.30845e-184
-8.4628e-182
3.17058e-184
-7.29058e-182
2.94267e-184
-6.14915e-182
2.64788e-184
-5.07368e-182
2.31112e-184
-4.09156e-182
1.9566e-184
-3.22122e-182
1.60617e-184
-2.47288e-182
1.27766e-184
-1.84866e-182
9.83979e-185
-1.34387e-182
7.32946e-185
-9.48591e-183
5.27444e-185
-6.4919e-183
3.66233e-185
-4.30096e-183
2.45032e-185
-2.75402e-183
1.5774e-185
-1.70162e-183
9.75388e-186
-1.01263e-183
5.7806e-186
-5.79017e-184
3.2731e-186
-3.17053e-184
1.76262e-186
-1.6545e-184
8.97554e-187
-8.17829e-185
4.28852e-187
-3.79828e-185
1.90755e-187
-1.64396e-185
7.84705e-188
-6.58647e-186
2.97282e-188
-2.43267e-186
1.0358e-188
-8.27434e-187
3.32394e-189
-2.59694e-187
9.83346e-190
-7.5307e-188
2.66211e-190
-2.00171e-188
6.45461e-191
-4.76492e-189
1.36784e-191
-9.89838e-190
2.50377e-192
-1.77356e-190
3.97488e-193
-2.75638e-191
5.5097e-194
-3.74441e-192
6.56412e-195
-4.36403e-193
6.54489e-196
-4.23297e-194
5.40256e-197
-3.37844e-195
3.69614e-198
-2.22146e-196
2.09119e-199
-1.19721e-197
9.76261e-201
-5.25636e-199
3.76748e-202
-1.87641e-200
1.20859e-203
-5.45174e-202
3.2493e-205
-1.29135e-203
7.39248e-207
-2.49277e-205
1.43813e-208
-3.89334e-207
2.41776e-210
-4.79693e-209
3.5492e-212
-4.28618e-211
4.59419e-214
-1.76308e-213
5.60204e-216
1.14826e-218
6.75146e-218
3.9211e-220
8.0373e-220
7.73439e-222
9.44638e-222
1.27566e-223
1.09554e-223
1.91281e-225
1.25294e-225
2.6938e-227
1.41217e-227
3.6199e-229
1.56738e-229
4.68211e-231
1.71178e-231
5.8589e-233
1.83793e-233
7.11474e-235
1.93827e-235
8.39986e-237
2.00573e-237
9.65177e-239
2.03444e-239
1.07987e-240
2.02041e-241
1.1765e-242
1.96218e-243
1.24785e-244
1.86117e-245
1.28785e-246
1.72184e-247
1.2924e-248
1.55143e-249
1.26e-250
1.35936e-251
1.19213e-252
1.15634e-253
1.09327e-254
9.53276e-256
9.70481e-257
7.6018e-258
8.32596e-259
5.85186e-260
6.89185e-261
4.33908e-262
5.49391e-263
3.09169e-264
4.20903e-265
2.11138e-266
3.09214e-267
1.3781e-268
2.17288e-269
8.57026e-271
1.45657e-271
5.0608e-273
9.28611e-274
2.82686e-275
5.61163e-276
1.48731e-277
3.20239e-278
7.33547e-280
1.71856e-280
3.37292e-282
8.63169e-283
1.43683e-284
4.03567e-285
5.62921e-287
1.74546e-287
2.01079e-289
6.9328e-290
6.48103e-292
2.50707e-292
1.86091e-294
8.16906e-295
4.68394e-297
2.36799e-297
1.01203e-299
6.00901e-300
1.82423e-302
1.30718e-302
2.6327e-305
2.36916e-305
2.85104e-308
3.4333e-308
2.05912e-311
3.72854e-311
7.44369e-315
2.69696e-314
8.55228e-321
9.7516e-318
-1.69915e-314
2.26359e-317
-4.6518e-311
6.19564e-314
-6.35439e-308
8.45004e-311
-5.78324e-305
7.66832e-308
-3.94783e-302
5.2126e-305
-2.15716e-299
2.83249e-302
-9.83261e-297
1.28221e-299
-3.8471e-294
4.97553e-297
-1.3195e-291
1.69018e-294
-4.03186e-289
5.10795e-292
-1.1117e-286
1.39102e-289
-2.79506e-284
3.44916e-287
-6.46364e-282
7.85493e-285
-1.38496e-279
1.65499e-282
-2.767e-277
3.24631e-280
-5.18285e-275
5.96056e-278
-9.1455e-273
1.02933e-275
-1.52678e-270
1.67886e-273
-2.42065e-268
2.59599e-271
-3.65734e-266
3.81832e-269
-5.28231e-264
5.35842e-267
-7.31373e-262
7.19425e-265
-9.73273e-260
9.26397e-263
-1.2478e-257
1.1467e-260
-1.54464e-255
1.36723e-258
-1.84997e-253
1.57317e-256
-2.14774e-251
1.74982e-254
-2.42125e-249
1.88435e-252
-2.65494e-247
1.96731e-250
-2.83594e-245
1.99371e-248
-2.95523e-243
1.9633e-246
-3.00833e-241
1.88034e-244
-2.99537e-239
1.75272e-242
-2.92068e-237
1.59086e-240
-2.79197e-235
1.40636e-238
-2.6193e-233
1.21081e-236
-2.414e-231
1.01474e-234
-2.18758e-229
8.26959e-233
-1.9509e-227
6.54112e-231
-1.71354e-225
5.00638e-229
-1.48342e-223
3.68881e-227
-1.26657e-221
2.59396e-225
-1.06722e-219
1.71355e-223
-8.87925e-218
1.02947e-221
-7.29796e-216
5.17583e-220
-5.92797e-214
1.51022e-218
-4.53375e-212
-2.26743e-213
-3.05146e-210
-5.50043e-211
-1.79004e-208
-6.09023e-209
-9.06003e-207
-4.87635e-207
-3.91579e-205
-3.07364e-205
-1.43069e-203
-1.56486e-203
-4.37801e-202
-6.48439e-202
-1.11349e-200
-2.1889e-200
-2.34216e-199
-6.0128e-199
-4.06973e-198
-1.34369e-197
-5.85812e-197
-2.44937e-196
-7.0008e-196
-3.66667e-195
-6.93767e-195
-4.53055e-194
-5.76652e-194
-4.61379e-193
-4.12761e-193
-3.91958e-192
-2.58223e-192
-2.86277e-191
-1.40196e-191
-1.82949e-190
-6.58105e-191
-1.01469e-189
-2.70324e-190
-4.85879e-189
-9.95329e-190
-2.03284e-188
-3.35584e-189
-7.62328e-188
-1.04341e-188
-2.62222e-187
-2.98875e-188
-8.33654e-187
-7.87562e-188
-2.44616e-186
-1.91179e-187
-6.61168e-186
-4.29309e-187
-1.64791e-185
-8.97692e-187
-3.80304e-185
-1.76164e-186
-8.18115e-185
-3.26939e-186
-1.65394e-184
-5.77147e-186
-3.16765e-184
-9.73566e-186
-5.78244e-184
-1.57424e-185
-1.011e-183
-2.44541e-185
-1.6987e-183
-3.65538e-185
-2.74933e-183
-5.2656e-185
-4.2942e-183
-7.31954e-185
-6.48333e-183
-9.83091e-185
-9.47682e-183
-1.27725e-184
-1.34325e-182
-1.60683e-184
-1.84899e-182
-1.95925e-184
-2.47532e-182
-2.31702e-184
-3.22781e-182
-2.65862e-184
-4.10539e-182
-2.96019e-184
-5.09947e-182
-3.19705e-184
-6.19375e-182
-3.34621e-184
-7.36382e-182
-3.38826e-184
-8.57857e-182
-3.30934e-184
-9.80155e-182
-3.10269e-184
-1.09927e-181
-2.76719e-184
-1.21111e-181
-2.28755e-184
-1.31066e-181
-1.50001e-184
-1.37872e-181
-1.74687e-185
-1.24299e-181
-8.05909e-195
-2.30671e-182
-2.63917e-191
9.84665e-192
-3.15623e-188
1.15856e-182
-1.46646e-179
8.90599e-182
-7.05138e-179
1.34308e-181
-7.73877e-179
1.6349e-181
-7.41542e-179
1.84878e-181
-6.92187e-179
1.98879e-181
-6.34461e-179
2.05344e-181
-5.71036e-179
2.04514e-181
-5.04362e-179
1.97086e-181
-4.369e-179
1.84116e-181
-3.70902e-179
1.66904e-181
-3.08315e-179
1.4689e-181
-2.50711e-179
1.25501e-181
-1.99206e-179
1.04064e-181
-1.54479e-179
8.36906e-182
-1.16763e-179
6.52244e-182
-8.59024e-180
4.92146e-182
-6.14281e-180
3.59139e-182
-4.26359e-180
2.53167e-182
-2.8681e-180
1.72176e-182
-1.86714e-180
1.12817e-182
-1.17449e-180
7.1108e-183
-7.12618e-181
4.30206e-183
-4.16094e-181
2.4905e-183
-2.33023e-181
1.37322e-183
-1.24548e-181
7.16949e-184
-6.31423e-182
3.51631e-184
-3.01113e-182
1.6072e-184
-1.33957e-182
6.8015e-185
-5.52259e-183
2.65454e-185
-2.10191e-183
9.54701e-186
-7.38217e-184
3.171e-186
-2.39929e-184
9.7421e-187
-7.23043e-185
2.74725e-187
-2.00358e-185
6.94954e-188
-4.9796e-186
1.53723e-188
-1.08042e-186
2.93992e-189
-2.02395e-187
4.89074e-190
-3.29934e-188
7.13553e-191
-4.72447e-189
8.96754e-192
-5.8173e-190
9.4242e-193
-5.95565e-191
8.19619e-194
-5.01654e-192
5.91337e-195
-3.48682e-193
3.52659e-196
-1.9861e-194
1.73158e-197
-9.1968e-196
7.00624e-199
-3.4524e-197
2.348e-200
-1.05119e-198
6.56894e-202
-2.59967e-200
1.54887e-203
-5.21927e-202
3.11005e-205
-8.44658e-204
5.37502e-207
-1.07491e-205
8.07995e-209
-9.90901e-208
1.06708e-210
-4.28058e-210
1.3223e-212
3.33252e-215
1.61833e-214
1.18035e-216
1.95516e-216
2.37346e-218
2.33066e-218
3.97814e-220
2.73991e-220
6.0532e-222
3.17475e-222
8.64274e-224
3.62347e-224
1.17666e-225
4.07076e-226
1.54103e-227
4.49809e-228
1.95156e-229
4.8845e-230
2.39733e-231
5.20786e-232
2.862e-233
5.44661e-234
3.32411e-235
5.58177e-236
3.75805e-237
5.59907e-238
4.13593e-239
5.49092e-240
4.43009e-241
5.25794e-242
4.61607e-243
4.90959e-244
4.67579e-245
4.4639e-246
4.60026e-247
3.94602e-248
4.39136e-249
3.38588e-250
4.06241e-251
2.81509e-252
3.63701e-253
2.26362e-254
3.14646e-255
1.75683e-256
2.62594e-257
1.31317e-258
2.11023e-259
9.43082e-261
1.62955e-261
6.49073e-263
1.2065e-263
4.26906e-265
8.54356e-266
2.67498e-267
5.77054e-268
1.59138e-269
3.70643e-270
8.95463e-272
2.25634e-272
4.7456e-274
1.297e-274
2.35735e-276
7.01038e-277
1.09162e-278
3.54608e-279
4.68284e-281
1.66959e-281
1.84736e-283
7.27128e-284
6.64421e-286
2.90795e-286
2.15606e-288
1.05874e-288
6.23239e-291
3.47305e-291
1.57916e-293
1.01346e-293
3.43452e-296
2.58876e-296
6.23143e-299
5.6684e-299
9.05146e-302
1.03403e-301
9.86528e-305
1.50813e-304
7.17058e-308
1.64828e-307
2.60863e-311
1.19981e-310
3.04155e-317
4.3656e-314
-6.02629e-311
1.02569e-313
-1.63927e-307
2.78959e-310
-2.22478e-304
3.78025e-307
-2.0116e-301
3.40834e-304
-1.36414e-298
2.30172e-301
-7.40439e-296
1.2425e-298
-3.35237e-293
5.5871e-296
-1.30276e-290
2.15347e-293
-4.43768e-288
7.26566e-291
-1.3466e-285
2.18073e-288
-3.68703e-283
5.89752e-286
-9.20446e-281
1.45211e-283
-2.11335e-278
3.28356e-281
-4.49554e-276
6.86877e-279
-8.91589e-274
1.33758e-276
-1.65767e-271
2.43794e-274
-2.90313e-269
4.17882e-272
-4.80973e-267
6.76456e-270
-7.56687e-265
1.03802e-267
-1.13433e-262
1.51498e-265
-1.62531e-260
2.10937e-263
-2.23222e-258
2.80951e-261
-2.94617e-256
3.58852e-259
-3.74572e-254
4.40539e-257
-4.59746e-252
5.20865e-255
-5.45866e-250
5.94217e-253
-6.28144e-248
6.55203e-251
-7.01774e-246
6.99329e-249
-7.62447e-244
7.23522e-247
-8.06788e-242
7.26459e-245
-8.32659e-240
7.08621e-243
-8.39292e-238
6.72112e-241
-8.27258e-236
6.20285e-239
-7.9829e-234
5.57272e-237
-7.55005e-232
4.87488e-235
-7.00574e-230
4.15183e-233
-6.38395e-228
3.44087e-231
-5.71801e-226
2.77192e-229
-5.03823e-224
2.16648e-227
-4.37039e-222
1.63766e-225
-3.73485e-220
1.19109e-223
-3.14639e-218
8.26216e-222
-2.61445e-216
5.3791e-220
-2.14384e-214
3.18048e-218
-1.73552e-212
1.56873e-216
-1.38754e-210
4.41275e-215
-1.04029e-208
-5.56146e-210
-6.83738e-207
-1.28353e-207
-3.90087e-205
-1.37718e-205
-1.91204e-203
-1.06717e-203
-7.96859e-202
-6.48765e-202
-2.79544e-200
-3.17307e-200
-8.18031e-199
-1.25801e-198
-1.98243e-197
-4.04755e-197
-3.96116e-196
-1.05615e-195
-6.52485e-195
-2.23564e-194
-8.90151e-194
-3.85275e-193
-1.00931e-192
-5.45324e-192
-9.48635e-192
-6.38226e-191
-7.47338e-191
-6.15572e-190
-5.08202e-190
-4.94888e-189
-3.03403e-189
-3.42893e-188
-1.57653e-188
-2.08914e-187
-7.08948e-188
-1.10821e-186
-2.79115e-187
-5.08041e-186
-9.86606e-187
-2.03579e-185
-3.20323e-186
-7.3232e-185
-9.62277e-186
-2.42403e-184
-2.67034e-185
-7.44205e-184
-6.83029e-185
-2.11483e-183
-1.61169e-184
-5.54706e-183
-3.52207e-184
-1.34358e-182
-7.17479e-184
-3.01666e-182
-1.3733e-183
-6.3202e-182
-2.48931e-183
-1.24583e-181
-4.29826e-183
-2.32967e-181
-7.10268e-183
-4.15833e-181
-1.12674e-182
-7.12e-181
-1.71957e-182
-1.17335e-180
-2.52869e-182
-1.86535e-180
-3.58792e-182
-2.86572e-180
-4.91829e-182
-4.26107e-180
-6.52116e-182
-6.14141e-180
-8.37223e-182
-8.59256e-180
-1.04178e-181
-1.16869e-179
-1.25755e-181
-1.54742e-179
-1.47353e-181
-1.99749e-179
-1.6766e-181
-2.51712e-179
-1.85258e-181
-3.10028e-179
-1.98712e-181
-3.73678e-179
-2.06716e-181
-4.41215e-179
-2.08193e-181
-5.10859e-179
-2.02401e-181
-5.80552e-179
-1.89015e-181
-6.48072e-179
-1.68037e-181
-7.11192e-179
-1.38608e-181
-7.67168e-179
-9.10251e-182
-8.05216e-179
-1.09523e-182
-7.26991e-179
-7.30437e-192
-1.39433e-179
-2.32728e-188
6.46857e-189
-2.02787e-185
5.46442e-180
-6.6879e-177
4.12586e-179
-3.15117e-176
6.22164e-179
-3.45168e-176
7.57676e-179
-3.30437e-176
8.57944e-179
-3.08592e-176
9.25272e-179
-2.83426e-176
9.58863e-179
-2.55951e-176
9.59481e-179
-2.27091e-176
9.29868e-179
-1.97811e-176
8.74376e-179
-1.69027e-176
7.98544e-179
-1.41551e-176
7.08639e-179
-1.16066e-176
6.11029e-179
-9.30744e-177
5.11776e-179
-7.291e-177
4.16127e-179
-5.57216e-177
3.28205e-179
-4.14902e-177
2.50875e-179
-3.00595e-177
1.85666e-179
-2.11619e-177
1.3289e-179
-1.44565e-177
9.18812e-180
-9.56978e-178
6.12909e-180
-6.12991e-178
3.93868e-180
-3.79316e-178
2.43328e-180
-2.26239e-178
1.44066e-180
-1.29627e-178
8.13596e-181
-7.09894e-179
4.35648e-181
-3.69248e-179
2.19386e-181
-1.80862e-179
1.03066e-181
-8.27246e-180
4.48802e-182
-3.51026e-180
1.80496e-182
-1.37711e-180
6.70281e-183
-4.99593e-181
2.3054e-183
-1.68237e-181
7.36032e-184
-5.27276e-182
2.16374e-184
-1.52451e-182
5.71453e-185
-3.95895e-183
1.32019e-185
-8.97706e-184
2.63959e-186
-1.75931e-184
4.60563e-187
-3.01121e-185
7.08264e-188
-4.55197e-186
9.4032e-189
-5.93052e-187
1.04294e-189
-6.41681e-188
9.57154e-191
-5.71356e-189
7.2988e-192
-4.20792e-190
4.59979e-193
-2.53988e-191
2.38153e-194
-1.24373e-192
1.01303e-195
-4.92356e-194
3.5566e-197
-1.57577e-195
1.03835e-198
-4.08133e-197
2.54449e-200
-8.54874e-199
5.28794e-202
-1.43803e-200
9.4198e-204
-1.89624e-202
1.45367e-205
-1.8097e-204
1.96325e-207
-8.25382e-207
2.47675e-209
7.26903e-212
3.08352e-211
2.68755e-213
3.78684e-213
5.52287e-215
4.58564e-215
9.42518e-217
5.47293e-217
1.45785e-218
6.43443e-219
2.11372e-220
7.44757e-221
2.91997e-222
8.48097e-223
3.87789e-224
9.49477e-225
4.97723e-226
1.0442e-226
6.19363e-228
1.12711e-228
7.48708e-230
1.19295e-230
8.80185e-232
1.23684e-232
1.00685e-233
1.2548e-234
1.12083e-235
1.24423e-236
1.21399e-237
1.20435e-238
1.27877e-239
1.13648e-240
1.30913e-241
1.04403e-242
1.30143e-243
9.32296e-245
1.25503e-245
8.07937e-247
1.17265e-247
6.78315e-249
1.06018e-249
5.50688e-251
9.2605e-252
4.31446e-253
7.80199e-254
3.25499e-255
6.32839e-256
2.35912e-257
4.93192e-258
1.63837e-259
3.68471e-260
1.08722e-261
2.63262e-262
6.87264e-264
1.79387e-264
4.1243e-266
1.16227e-266
2.34073e-268
7.13659e-269
1.25107e-270
4.13732e-271
6.26705e-273
2.25515e-273
2.92634e-275
1.15027e-275
1.26572e-277
5.46063e-278
5.03415e-280
2.39768e-280
1.82528e-282
9.66681e-283
5.97077e-285
3.54791e-285
1.73971e-287
1.17314e-287
4.44297e-290
3.45044e-290
9.73896e-293
8.883e-293
1.78077e-295
1.96021e-295
2.60667e-298