/*--------------------------------*- C++ -*----------------------------------*\
| =========                 |                                                 |
| \\      /  F ield         | OpenFOAM: The Open Source CFD Toolbox           |
|  \\    /   O peration     | Version:  2412                                  |
|   \\  /    A nd           | Website:  www.openfoam.com                      |
|    \\/     M anipulation  |                                                 |
\*---------------------------------------------------------------------------*/
FoamFile
{
    version     2.0;
    format      ascii;
    arch        "LSB;label=32;scalar=64";
    class       volScalarField;
    location    "1.11";
    object      p;
}
// * * * * * * * * * * * * * * * * * * * * * * * * * * * * * * * * * * * * * //

dimensions      [1 -1 -2 0 0 0 0];

internalField   nonuniform List<scalar> 
40000
(
0
-6.96859e-05
-0.000274101
-0.000635287
-0.00115625
-0.00183585
-0.00267288
-0.00366683
-0.00481687
-0.00612189
-0.00758066
-0.00919202
-0.0109548
-0.0128678
-0.0149295
-0.0171385
-0.0194931
-0.0219916
-0.0246321
-0.0274127
-0.0303313
-0.0333856
-0.0365734
-0.0398923
-0.0433396
-0.0469127
-0.0506089
-0.0544252
-0.0583587
-0.0624061
-0.0665641
-0.0708295
-0.0751987
-0.0796681
-0.0842339
-0.0888923
-0.0936394
-0.098471
-0.103383
-0.108371
-0.113431
-0.118558
-0.123747
-0.128995
-0.134295
-0.139643
-0.145035
-0.150464
-0.155926
-0.161415
-0.166927
-0.172455
-0.177994
-0.183539
-0.189083
-0.194622
-0.20015
-0.20566
-0.211148
-0.216606
-0.22203
-0.227413
-0.23275
-0.238034
-0.243261
-0.248423
-0.253515
-0.258532
-0.263467
-0.268316
-0.273071
-0.277728
-0.282282
-0.286726
-0.291056
-0.295266
-0.299351
-0.303306
-0.307127
-0.310809
-0.314346
-0.317736
-0.320973
-0.324053
-0.326973
-0.329729
-0.332318
-0.334735
-0.336979
-0.339046
-0.340933
-0.342638
-0.344159
-0.345493
-0.34664
-0.347598
-0.348365
-0.348941
-0.349324
-0.349514
-0.349511
-0.349315
-0.348927
-0.348346
-0.347573
-0.34661
-0.345458
-0.344118
-0.342591
-0.340881
-0.338988
-0.336916
-0.334667
-0.332245
-0.329651
-0.32689
-0.323965
-0.320879
-0.317637
-0.314242
-0.3107
-0.307013
-0.303187
-0.299227
-0.295137
-0.290922
-0.286587
-0.282138
-0.27758
-0.272919
-0.268159
-0.263306
-0.258366
-0.253345
-0.248249
-0.243082
-0.237852
-0.232563
-0.227223
-0.221835
-0.216408
-0.210945
-0.205454
-0.19994
-0.194409
-0.188867
-0.183318
-0.17777
-0.172228
-0.166696
-0.161182
-0.155689
-0.150224
-0.144792
-0.139398
-0.134047
-0.128744
-0.123494
-0.118302
-0.113173
-0.108111
-0.103121
-0.0982064
-0.0933727
-0.0886236
-0.0839632
-0.0793956
-0.0749244
-0.0705535
-0.0662864
-0.0621266
-0.0580777
-0.0541427
-0.0503251
-0.0466274
-0.0430529
-0.0396042
-0.036284
-0.0330949
-0.0300392
-0.0271194
-0.0243375
-0.0216957
-0.0191959
-0.01684
-0.0146297
-0.0125665
-0.010652
-0.00888767
-0.0072746
-0.00581407
-0.00450704
-0.00335447
-0.00235733
-0.00151593
-0.000830878
-0.000302994
6.71368e-05
0.000277592
0.000336547
-3.92395
-3.92401
-3.92421
-3.92457
-3.92509
-3.92577
-3.92661
-3.9276
-3.92875
-3.93006
-3.93152
-3.93313
-3.93489
-3.93681
-3.93887
-3.94108
-3.94343
-3.94593
-3.94857
-3.95136
-3.95428
-3.95733
-3.96052
-3.96384
-3.96729
-3.97086
-3.97456
-3.97838
-3.98231
-3.98636
-3.99052
-3.99479
-3.99916
-4.00363
-4.0082
-4.01286
-4.01761
-4.02244
-4.02735
-4.03234
-4.0374
-4.04253
-4.04773
-4.05297
-4.05828
-4.06363
-4.06902
-4.07445
-4.07992
-4.08541
-4.09092
-4.09645
-4.10199
-4.10754
-4.11309
-4.11863
-4.12416
-4.12967
-4.13516
-4.14062
-4.14605
-4.15143
-4.15677
-4.16206
-4.16729
-4.17245
-4.17755
-4.18257
-4.18751
-4.19236
-4.19711
-4.20177
-4.20633
-4.21077
-4.21511
-4.21932
-4.22341
-4.22736
-4.23119
-4.23487
-4.23841
-4.2418
-4.24504
-4.24812
-4.25104
-4.2538
-4.25639
-4.25881
-4.26105
-4.26312
-4.26501
-4.26671
-4.26824
-4.26957
-4.27072
-4.27168
-4.27244
-4.27302
-4.2734
-4.27359
-4.27359
-4.2734
-4.27301
-4.27243
-4.27165
-4.27069
-4.26954
-4.2682
-4.26667
-4.26496
-4.26306
-4.26099
-4.25874
-4.25632
-4.25372
-4.25096
-4.24803
-4.24494
-4.2417
-4.2383
-4.23476
-4.23107
-4.22724
-4.22328
-4.21919
-4.21497
-4.21064
-4.20619
-4.20163
-4.19696
-4.1922
-4.18734
-4.1824
-4.17738
-4.17228
-4.16711
-4.16188
-4.15659
-4.15124
-4.14585
-4.14042
-4.13496
-4.12947
-4.12395
-4.11842
-4.11287
-4.10732
-4.10177
-4.09623
-4.09069
-4.08517
-4.07968
-4.07421
-4.06878
-4.06338
-4.05803
-4.05272
-4.04747
-4.04228
-4.03715
-4.03208
-4.02709
-4.02217
-4.01734
-4.01259
-4.00793
-4.00336
-3.99888
-3.99451
-3.99024
-3.98608
-3.98203
-3.9781
-3.97428
-3.97058
-3.967
-3.96355
-3.96023
-3.95704
-3.95398
-3.95106
-3.94828
-3.94564
-3.94314
-3.94078
-3.93857
-3.9365
-3.93459
-3.93282
-3.93121
-3.92975
-3.92844
-3.92729
-3.92629
-3.92545
-3.92477
-3.92424
-3.92387
-3.92366
-3.9236
-7.84773
-7.84779
-7.848
-7.84836
-7.84888
-7.84957
-7.85041
-7.8514
-7.85255
-7.85386
-7.85532
-7.85693
-7.8587
-7.86061
-7.86268
-7.86489
-7.86725
-7.86975
-7.87239
-7.87518
-7.8781
-7.88116
-7.88435
-7.88767
-7.89113
-7.8947
-7.8984
-7.90223
-7.90616
-7.91022
-7.91438
-7.91865
-7.92303
-7.9275
-7.93208
-7.93674
-7.9415
-7.94634
-7.95126
-7.95625
-7.96132
-7.96645
-7.97165
-7.97691
-7.98222
-7.98757
-7.99297
-7.99841
-8.00388
-8.00938
-8.0149
-8.02044
-8.02599
-8.03154
-8.0371
-8.04265
-8.04818
-8.05371
-8.0592
-8.06467
-8.07011
-8.0755
-8.08085
-8.08614
-8.09138
-8.09655
-8.10165
-8.10668
-8.11162
-8.11648
-8.12125
-8.12591
-8.13048
-8.13493
-8.13927
-8.14349
-8.14758
-8.15154
-8.15537
-8.15906
-8.16261
-8.16601
-8.16925
-8.17234
-8.17526
-8.17803
-8.18062
-8.18304
-8.18529
-8.18736
-8.18925
-8.19096
-8.19249
-8.19382
-8.19497
-8.19593
-8.1967
-8.19728
-8.19766
-8.19785
-8.19785
-8.19766
-8.19727
-8.19668
-8.19591
-8.19494
-8.19379
-8.19245
-8.19092
-8.1892
-8.1873
-8.18523
-8.18297
-8.18055
-8.17795
-8.17518
-8.17225
-8.16916
-8.16591
-8.1625
-8.15895
-8.15526
-8.15143
-8.14746
-8.14336
-8.13913
-8.13479
-8.13033
-8.12577
-8.12109
-8.11632
-8.11146
-8.10651
-8.10148
-8.09637
-8.0912
-8.08596
-8.08066
-8.07531
-8.06991
-8.06447
-8.059
-8.0535
-8.04798
-8.04243
-8.03688
-8.03132
-8.02577
-8.02021
-8.01467
-8.00915
-8.00365
-7.99817
-7.99273
-7.98733
-7.98197
-7.97666
-7.9714
-7.9662
-7.96106
-7.95599
-7.95099
-7.94607
-7.94123
-7.93647
-7.93181
-7.92723
-7.92275
-7.91838
-7.9141
-7.90994
-7.90588
-7.90194
-7.89812
-7.89442
-7.89084
-7.88738
-7.88406
-7.88087
-7.87781
-7.87488
-7.8721
-7.86945
-7.86695
-7.86459
-7.86238
-7.86031
-7.85839
-7.85663
-7.85501
-7.85355
-7.85224
-7.85109
-7.85009
-7.84925
-7.84856
-7.84803
-7.84766
-7.84745
-7.84739
-11.7714
-11.7714
-11.7716
-11.772
-11.7725
-11.7732
-11.774
-11.775
-11.7762
-11.7775
-11.779
-11.7806
-11.7824
-11.7843
-11.7863
-11.7886
-11.7909
-11.7934
-11.7961
-11.7989
-11.8018
-11.8049
-11.808
-11.8114
-11.8148
-11.8184
-11.8221
-11.826
-11.8299
-11.834
-11.8381
-11.8424
-11.8468
-11.8513
-11.8559
-11.8605
-11.8653
-11.8702
-11.8751
-11.8801
-11.8852
-11.8903
-11.8955
-11.9008
-11.9061
-11.9115
-11.9169
-11.9223
-11.9278
-11.9333
-11.9389
-11.9444
-11.95
-11.9555
-11.9611
-11.9667
-11.9722
-11.9778
-11.9833
-11.9888
-11.9942
-11.9996
-12.005
-12.0103
-12.0155
-12.0207
-12.0258
-12.0309
-12.0358
-12.0407
-12.0455
-12.0502
-12.0547
-12.0592
-12.0636
-12.0678
-12.0719
-12.0759
-12.0797
-12.0834
-12.087
-12.0904
-12.0936
-12.0967
-12.0997
-12.1024
-12.105
-12.1075
-12.1097
-12.1118
-12.1137
-12.1154
-12.1169
-12.1183
-12.1194
-12.1204
-12.1212
-12.1217
-12.1221
-12.1223
-12.1223
-12.1221
-12.1217
-12.1211
-12.1204
-12.1194
-12.1182
-12.1169
-12.1154
-12.1136
-12.1117
-12.1097
-12.1074
-12.105
-12.1023
-12.0996
-12.0966
-12.0935
-12.0903
-12.0869
-12.0833
-12.0796
-12.0757
-12.0718
-12.0677
-12.0634
-12.0591
-12.0546
-12.05
-12.0453
-12.0405
-12.0357
-12.0307
-12.0257
-12.0205
-12.0154
-12.0101
-12.0048
-11.9994
-11.994
-11.9886
-11.9831
-11.9776
-11.972
-11.9665
-11.9609
-11.9553
-11.9498
-11.9442
-11.9386
-11.9331
-11.9276
-11.9221
-11.9166
-11.9112
-11.9059
-11.9005
-11.8953
-11.8901
-11.8849
-11.8798
-11.8748
-11.8699
-11.865
-11.8603
-11.8556
-11.851
-11.8465
-11.8421
-11.8379
-11.8337
-11.8296
-11.8257
-11.8218
-11.8181
-11.8145
-11.8111
-11.8078
-11.8046
-11.8015
-11.7986
-11.7958
-11.7931
-11.7906
-11.7883
-11.786
-11.784
-11.782
-11.7803
-11.7787
-11.7772
-11.7759
-11.7747
-11.7737
-11.7729
-11.7722
-11.7717
-11.7713
-11.7711
-11.771
-15.6948
-15.6949
-15.6951
-15.6955
-15.696
-15.6967
-15.6975
-15.6985
-15.6997
-15.701
-15.7025
-15.7041
-15.7059
-15.7078
-15.7099
-15.7121
-15.7144
-15.717
-15.7196
-15.7224
-15.7253
-15.7284
-15.7316
-15.735
-15.7384
-15.742
-15.7457
-15.7496
-15.7535
-15.7576
-15.7618
-15.7661
-15.7705
-15.775
-15.7796
-15.7842
-15.789
-15.7939
-15.7988
-15.8039
-15.8089
-15.8141
-15.8193
-15.8246
-15.8299
-15.8353
-15.8408
-15.8462
-15.8517
-15.8573
-15.8628
-15.8684
-15.874
-15.8795
-15.8851
-15.8907
-15.8963
-15.9018
-15.9074
-15.9129
-15.9183
-15.9238
-15.9292
-15.9345
-15.9397
-15.945
-15.9501
-15.9552
-15.9601
-15.965
-15.9698
-15.9745
-15.9791
-15.9836
-15.988
-15.9922
-15.9963
-16.0003
-16.0042
-16.0079
-16.0115
-16.0149
-16.0182
-16.0213
-16.0242
-16.027
-16.0296
-16.0321
-16.0343
-16.0364
-16.0383
-16.04
-16.0416
-16.0429
-16.0441
-16.045
-16.0458
-16.0464
-16.0468
-16.047
-16.047
-16.0468
-16.0464
-16.0458
-16.045
-16.044
-16.0429
-16.0415
-16.04
-16.0383
-16.0363
-16.0343
-16.032
-16.0295
-16.0269
-16.0241
-16.0212
-16.0181
-16.0148
-16.0114
-16.0078
-16.0041
-16.0002
-15.9962
-15.9921
-15.9878
-15.9835
-15.979
-15.9744
-15.9697
-15.9649
-15.96
-15.955
-15.9499
-15.9448
-15.9396
-15.9343
-15.929
-15.9236
-15.9181
-15.9127
-15.9072
-15.9016
-15.8961
-15.8905
-15.8849
-15.8793
-15.8737
-15.8682
-15.8626
-15.857
-15.8515
-15.846
-15.8405
-15.8351
-15.8297
-15.8244
-15.8191
-15.8138
-15.8087
-15.8036
-15.7986
-15.7936
-15.7888
-15.784
-15.7793
-15.7747
-15.7702
-15.7658
-15.7615
-15.7573
-15.7532
-15.7493
-15.7454
-15.7417
-15.7381
-15.7347
-15.7313
-15.7281
-15.725
-15.7221
-15.7193
-15.7167
-15.7141
-15.7118
-15.7096
-15.7075
-15.7056
-15.7038
-15.7022
-15.7007
-15.6994
-15.6982
-15.6972
-15.6964
-15.6957
-15.6952
-15.6948
-15.6946
-15.6945
-19.6182
-19.6182
-19.6184
-19.6188
-19.6193
-19.62
-19.6209
-19.6219
-19.623
-19.6243
-19.6258
-19.6274
-19.6292
-19.6311
-19.6332
-19.6355
-19.6378
-19.6403
-19.643
-19.6458
-19.6488
-19.6518
-19.6551
-19.6584
-19.6619
-19.6655
-19.6692
-19.6731
-19.677
-19.6811
-19.6853
-19.6896
-19.694
-19.6986
-19.7032
-19.7079
-19.7127
-19.7175
-19.7225
-19.7275
-19.7327
-19.7378
-19.7431
-19.7484
-19.7537
-19.7591
-19.7646
-19.7701
-19.7756
-19.7812
-19.7867
-19.7923
-19.7979
-19.8036
-19.8092
-19.8148
-19.8204
-19.8259
-19.8315
-19.837
-19.8425
-19.848
-19.8534
-19.8587
-19.864
-19.8693
-19.8744
-19.8795
-19.8845
-19.8894
-19.8943
-19.899
-19.9036
-19.9081
-19.9125
-19.9168
-19.9209
-19.9249
-19.9288
-19.9325
-19.9361
-19.9396
-19.9429
-19.946
-19.9489
-19.9517
-19.9544
-19.9568
-19.9591
-19.9612
-19.9631
-19.9649
-19.9664
-19.9678
-19.9689
-19.9699
-19.9707
-19.9713
-19.9717
-19.9718
-19.9718
-19.9716
-19.9712
-19.9707
-19.9699
-19.9689
-19.9677
-19.9664
-19.9648
-19.9631
-19.9612
-19.959
-19.9568
-19.9543
-19.9517
-19.9489
-19.9459
-19.9428
-19.9395
-19.936
-19.9324
-19.9287
-19.9248
-19.9208
-19.9166
-19.9124
-19.908
-19.9034
-19.8988
-19.8941
-19.8893
-19.8844
-19.8793
-19.8743
-19.8691
-19.8639
-19.8586
-19.8532
-19.8478
-19.8423
-19.8368
-19.8313
-19.8257
-19.8202
-19.8146
-19.8089
-19.8033
-19.7977
-19.7921
-19.7865
-19.7809
-19.7754
-19.7699
-19.7644
-19.7589
-19.7535
-19.7481
-19.7428
-19.7376
-19.7324
-19.7273
-19.7222
-19.7173
-19.7124
-19.7076
-19.7029
-19.6983
-19.6938
-19.6893
-19.685
-19.6808
-19.6768
-19.6728
-19.6689
-19.6652
-19.6616
-19.6581
-19.6548
-19.6515
-19.6485
-19.6455
-19.6427
-19.6401
-19.6375
-19.6352
-19.6329
-19.6308
-19.6289
-19.6271
-19.6255
-19.624
-19.6227
-19.6216
-19.6206
-19.6197
-19.619
-19.6185
-19.6181
-19.6179
-19.6178
-23.5413
-23.5414
-23.5416
-23.542
-23.5425
-23.5432
-23.544
-23.5451
-23.5462
-23.5475
-23.549
-23.5506
-23.5524
-23.5544
-23.5565
-23.5587
-23.5611
-23.5636
-23.5663
-23.5691
-23.572
-23.5751
-23.5784
-23.5817
-23.5852
-23.5888
-23.5926
-23.5965
-23.6004
-23.6045
-23.6088
-23.6131
-23.6175
-23.622
-23.6267
-23.6314
-23.6362
-23.6411
-23.6461
-23.6512
-23.6563
-23.6615
-23.6668
-23.6721
-23.6775
-23.6829
-23.6884
-23.6939
-23.6995
-23.7051
-23.7107
-23.7163
-23.7219
-23.7276
-23.7332
-23.7388
-23.7445
-23.7501
-23.7557
-23.7612
-23.7667
-23.7722
-23.7777
-23.7831
-23.7884
-23.7936
-23.7988
-23.804
-23.809
-23.8139
-23.8188
-23.8235
-23.8282
-23.8327
-23.8371
-23.8414
-23.8456
-23.8497
-23.8536
-23.8573
-23.8609
-23.8644
-23.8677
-23.8709
-23.8739
-23.8767
-23.8793
-23.8818
-23.8841
-23.8862
-23.8881
-23.8899
-23.8914
-23.8928
-23.894
-23.8949
-23.8957
-23.8963
-23.8967
-23.8969
-23.8969
-23.8967
-23.8963
-23.8957
-23.8949
-23.8939
-23.8928
-23.8914
-23.8898
-23.8881
-23.8861
-23.884
-23.8817
-23.8792
-23.8766
-23.8738
-23.8708
-23.8676
-23.8643
-23.8608
-23.8572
-23.8534
-23.8495
-23.8455
-23.8413
-23.837
-23.8326
-23.828
-23.8234
-23.8186
-23.8138
-23.8088
-23.8038
-23.7987
-23.7935
-23.7882
-23.7829
-23.7775
-23.772
-23.7665
-23.761
-23.7555
-23.7499
-23.7442
-23.7386
-23.733
-23.7273
-23.7217
-23.716
-23.7104
-23.7048
-23.6992
-23.6937
-23.6882
-23.6827
-23.6772
-23.6719
-23.6665
-23.6612
-23.656
-23.6509
-23.6458
-23.6408
-23.6359
-23.6311
-23.6264
-23.6218
-23.6172
-23.6128
-23.6085
-23.6043
-23.6002
-23.5962
-23.5923
-23.5886
-23.5849
-23.5814
-23.5781
-23.5748
-23.5717
-23.5688
-23.566
-23.5633
-23.5608
-23.5584
-23.5561
-23.5541
-23.5521
-23.5503
-23.5487
-23.5472
-23.5459
-23.5447
-23.5437
-23.5429
-23.5422
-23.5417
-23.5413
-23.5411
-23.541
-27.4643
-27.4644
-27.4646
-27.465
-27.4655
-27.4662
-27.4671
-27.4681
-27.4692
-27.4706
-27.4721
-27.4737
-27.4755
-27.4774
-27.4795
-27.4818
-27.4842
-27.4867
-27.4894
-27.4922
-27.4952
-27.4983
-27.5015
-27.5049
-27.5084
-27.5121
-27.5158
-27.5197
-27.5237
-27.5278
-27.5321
-27.5364
-27.5409
-27.5454
-27.5501
-27.5548
-27.5597
-27.5646
-27.5696
-27.5747
-27.5799
-27.5851
-27.5904
-27.5958
-27.6012
-27.6066
-27.6122
-27.6177
-27.6233
-27.6289
-27.6345
-27.6402
-27.6459
-27.6516
-27.6572
-27.6629
-27.6686
-27.6742
-27.6798
-27.6854
-27.691
-27.6965
-27.702
-27.7074
-27.7128
-27.7181
-27.7233
-27.7285
-27.7336
-27.7385
-27.7434
-27.7482
-27.7529
-27.7575
-27.7619
-27.7663
-27.7705
-27.7745
-27.7785
-27.7823
-27.7859
-27.7894
-27.7927
-27.7959
-27.7989
-27.8018
-27.8044
-27.8069
-27.8092
-27.8114
-27.8133
-27.8151
-27.8166
-27.818
-27.8192
-27.8202
-27.821
-27.8216
-27.822
-27.8222
-27.8222
-27.822
-27.8216
-27.821
-27.8202
-27.8192
-27.818
-27.8166
-27.815
-27.8133
-27.8113
-27.8092
-27.8069
-27.8044
-27.8017
-27.7988
-27.7958
-27.7926
-27.7893
-27.7858
-27.7822
-27.7784
-27.7744
-27.7703
-27.7661
-27.7618
-27.7573
-27.7528
-27.7481
-27.7433
-27.7384
-27.7334
-27.7283
-27.7232
-27.7179
-27.7126
-27.7072
-27.7018
-27.6963
-27.6908
-27.6852
-27.6796
-27.674
-27.6684
-27.6627
-27.657
-27.6513
-27.6457
-27.64
-27.6343
-27.6287
-27.6231
-27.6175
-27.6119
-27.6064
-27.6009
-27.5955
-27.5902
-27.5849
-27.5796
-27.5744
-27.5694
-27.5643
-27.5594
-27.5546
-27.5498
-27.5452
-27.5406
-27.5361
-27.5318
-27.5276
-27.5234
-27.5194
-27.5155
-27.5118
-27.5081
-27.5046
-27.5013
-27.498
-27.4949
-27.4919
-27.4891
-27.4864
-27.4839
-27.4815
-27.4792
-27.4771
-27.4752
-27.4734
-27.4718
-27.4703
-27.4689
-27.4678
-27.4668
-27.4659
-27.4652
-27.4647
-27.4643
-27.4641
-27.464
-31.3872
-31.3873
-31.3875
-31.3878
-31.3884
-31.3891
-31.3899
-31.391
-31.3921
-31.3935
-31.395
-31.3966
-31.3984
-31.4004
-31.4025
-31.4047
-31.4071
-31.4097
-31.4124
-31.4152
-31.4182
-31.4213
-31.4246
-31.428
-31.4315
-31.4352
-31.439
-31.4429
-31.4469
-31.451
-31.4553
-31.4597
-31.4641
-31.4687
-31.4734
-31.4782
-31.4831
-31.488
-31.4931
-31.4982
-31.5034
-31.5086
-31.514
-31.5194
-31.5248
-31.5303
-31.5359
-31.5415
-31.5471
-31.5527
-31.5584
-31.5641
-31.5698
-31.5756
-31.5813
-31.587
-31.5927
-31.5984
-31.6041
-31.6097
-31.6153
-31.6209
-31.6264
-31.6319
-31.6373
-31.6426
-31.6479
-31.6531
-31.6582
-31.6632
-31.6682
-31.673
-31.6777
-31.6823
-31.6868
-31.6912
-31.6954
-31.6996
-31.7035
-31.7074
-31.711
-31.7146
-31.7179
-31.7211
-31.7242
-31.727
-31.7297
-31.7323
-31.7346
-31.7367
-31.7387
-31.7405
-31.7421
-31.7435
-31.7447
-31.7457
-31.7465
-31.7471
-31.7475
-31.7476
-31.7476
-31.7474
-31.747
-31.7464
-31.7456
-31.7446
-31.7434
-31.742
-31.7404
-31.7387
-31.7367
-31.7345
-31.7322
-31.7297
-31.727
-31.7241
-31.721
-31.7178
-31.7145
-31.7109
-31.7072
-31.7034
-31.6994
-31.6953
-31.6911
-31.6867
-31.6822
-31.6776
-31.6728
-31.668
-31.6631
-31.658
-31.6529
-31.6477
-31.6424
-31.6371
-31.6317
-31.6262
-31.6207
-31.6151
-31.6095
-31.6039
-31.5982
-31.5925
-31.5868
-31.5811
-31.5753
-31.5696
-31.5639
-31.5582
-31.5525
-31.5469
-31.5412
-31.5356
-31.5301
-31.5246
-31.5191
-31.5137
-31.5084
-31.5031
-31.4979
-31.4928
-31.4878
-31.4828
-31.4779
-31.4731
-31.4685
-31.4639
-31.4594
-31.455
-31.4508
-31.4466
-31.4426
-31.4387
-31.4349
-31.4312
-31.4277
-31.4243
-31.421
-31.4179
-31.4149
-31.4121
-31.4094
-31.4068
-31.4044
-31.4022
-31.4001
-31.3981
-31.3963
-31.3946
-31.3932
-31.3918
-31.3906
-31.3896
-31.3888
-31.3881
-31.3875
-31.3872
-31.3869
-31.3869
-35.3099
-35.31
-35.3102
-35.3105
-35.3111
-35.3118
-35.3127
-35.3137
-35.3149
-35.3162
-35.3177
-35.3194
-35.3212
-35.3231
-35.3252
-35.3275
-35.3299
-35.3325
-35.3352
-35.3381
-35.3411
-35.3442
-35.3475
-35.3509
-35.3545
-35.3582
-35.362
-35.3659
-35.3699
-35.3741
-35.3784
-35.3828
-35.3873
-35.3919
-35.3966
-35.4014
-35.4064
-35.4113
-35.4164
-35.4216
-35.4268
-35.4321
-35.4375
-35.4429
-35.4484
-35.454
-35.4596
-35.4652
-35.4709
-35.4766
-35.4823
-35.488
-35.4938
-35.4996
-35.5053
-35.5111
-35.5168
-35.5226
-35.5283
-35.534
-35.5396
-35.5453
-35.5508
-35.5564
-35.5618
-35.5672
-35.5725
-35.5778
-35.5829
-35.588
-35.593
-35.5979
-35.6027
-35.6073
-35.6119
-35.6163
-35.6206
-35.6247
-35.6287
-35.6326
-35.6363
-35.6399
-35.6433
-35.6465
-35.6496
-35.6525
-35.6552
-35.6578
-35.6601
-35.6623
-35.6643
-35.6661
-35.6677
-35.6691
-35.6703
-35.6713
-35.6721
-35.6727
-35.6731
-35.6733
-35.6733
-35.6731
-35.6727
-35.6721
-35.6713
-35.6703
-35.6691
-35.6676
-35.666
-35.6642
-35.6622
-35.6601
-35.6577
-35.6551
-35.6524
-35.6495
-35.6464
-35.6432
-35.6398
-35.6362
-35.6325
-35.6286
-35.6246
-35.6204
-35.6161
-35.6117
-35.6072
-35.6025
-35.5977
-35.5928
-35.5879
-35.5828
-35.5776
-35.5724
-35.567
-35.5616
-35.5562
-35.5506
-35.5451
-35.5395
-35.5338
-35.5281
-35.5224
-35.5166
-35.5109
-35.5051
-35.4993
-35.4936
-35.4878
-35.4821
-35.4763
-35.4706
-35.4649
-35.4593
-35.4537
-35.4482
-35.4427
-35.4372
-35.4319
-35.4266
-35.4213
-35.4162
-35.4111
-35.4061
-35.4012
-35.3964
-35.3916
-35.387
-35.3825
-35.3781
-35.3738
-35.3697
-35.3656
-35.3617
-35.3579
-35.3542
-35.3506
-35.3472
-35.3439
-35.3408
-35.3378
-35.3349
-35.3322
-35.3296
-35.3272
-35.3249
-35.3228
-35.3209
-35.319
-35.3174
-35.3159
-35.3145
-35.3134
-35.3123
-35.3115
-35.3108
-35.3102
-35.3099
-35.3096
-35.3096
-39.2324
-39.2325
-39.2327
-39.2331
-39.2336
-39.2343
-39.2352
-39.2362
-39.2374
-39.2388
-39.2403
-39.242
-39.2438
-39.2458
-39.2479
-39.2502
-39.2526
-39.2552
-39.2579
-39.2608
-39.2638
-39.267
-39.2703
-39.2737
-39.2773
-39.281
-39.2848
-39.2888
-39.2929
-39.2971
-39.3014
-39.3058
-39.3104
-39.315
-39.3198
-39.3246
-39.3296
-39.3346
-39.3397
-39.3449
-39.3502
-39.3555
-39.361
-39.3664
-39.372
-39.3776
-39.3832
-39.3889
-39.3946
-39.4003
-39.4061
-39.4119
-39.4177
-39.4235
-39.4294
-39.4352
-39.441
-39.4468
-39.4526
-39.4583
-39.464
-39.4697
-39.4753
-39.4809
-39.4864
-39.4919
-39.4973
-39.5026
-39.5078
-39.5129
-39.5179
-39.5229
-39.5277
-39.5324
-39.537
-39.5415
-39.5458
-39.55
-39.5541
-39.558
-39.5617
-39.5654
-39.5688
-39.5721
-39.5752
-39.5781
-39.5809
-39.5835
-39.5858
-39.588
-39.5901
-39.5919
-39.5935
-39.5949
-39.5961
-39.5972
-39.598
-39.5986
-39.599
-39.5992
-39.5992
-39.599
-39.5986
-39.598
-39.5971
-39.5961
-39.5949
-39.5935
-39.5918
-39.59
-39.588
-39.5858
-39.5834
-39.5808
-39.578
-39.5751
-39.572
-39.5687
-39.5653
-39.5616
-39.5579
-39.554
-39.5499
-39.5457
-39.5413
-39.5369
-39.5323
-39.5276
-39.5227
-39.5178
-39.5128
-39.5076
-39.5024
-39.4971
-39.4917
-39.4862
-39.4807
-39.4751
-39.4695
-39.4638
-39.4581
-39.4524
-39.4466
-39.4408
-39.435
-39.4292
-39.4233
-39.4175
-39.4117
-39.4059
-39.4001
-39.3944
-39.3886
-39.383
-39.3773
-39.3717
-39.3662
-39.3607
-39.3553
-39.3499
-39.3446
-39.3394
-39.3343
-39.3293
-39.3243
-39.3195
-39.3147
-39.3101
-39.3056
-39.3011
-39.2968
-39.2926
-39.2885
-39.2846
-39.2807
-39.277
-39.2734
-39.27
-39.2667
-39.2635
-39.2605
-39.2576
-39.2549
-39.2523
-39.2499
-39.2476
-39.2454
-39.2435
-39.2416
-39.24
-39.2385
-39.2371
-39.2359
-39.2349
-39.234
-39.2333
-39.2328
-39.2324
-39.2322
-39.2321
-43.1548
-43.1549
-43.1551
-43.1555
-43.156
-43.1567
-43.1576
-43.1586
-43.1598
-43.1612
-43.1627
-43.1644
-43.1662
-43.1682
-43.1704
-43.1727
-43.1751
-43.1777
-43.1805
-43.1834
-43.1864
-43.1896
-43.1929
-43.1964
-43.2
-43.2037
-43.2076
-43.2116
-43.2157
-43.2199
-43.2243
-43.2288
-43.2333
-43.238
-43.2428
-43.2477
-43.2527
-43.2578
-43.2629
-43.2682
-43.2735
-43.2789
-43.2843
-43.2899
-43.2955
-43.3011
-43.3068
-43.3125
-43.3183
-43.3241
-43.3299
-43.3358
-43.3417
-43.3475
-43.3534
-43.3593
-43.3652
-43.371
-43.3769
-43.3827
-43.3885
-43.3942
-43.3999
-43.4055
-43.4111
-43.4166
-43.4221
-43.4274
-43.4327
-43.4379
-43.443
-43.448
-43.4529
-43.4576
-43.4623
-43.4668
-43.4712
-43.4755
-43.4796
-43.4835
-43.4873
-43.491
-43.4945
-43.4978
-43.501
-43.5039
-43.5067
-43.5093
-43.5118
-43.514
-43.516
-43.5179
-43.5195
-43.521
-43.5222
-43.5232
-43.5241
-43.5247
-43.5251
-43.5253
-43.5253
-43.5251
-43.5247
-43.5241
-43.5232
-43.5222
-43.5209
-43.5195
-43.5178
-43.516
-43.5139
-43.5117
-43.5093
-43.5067
-43.5039
-43.5009
-43.4977
-43.4944
-43.4909
-43.4872
-43.4834
-43.4795
-43.4753
-43.4711
-43.4667
-43.4622
-43.4575
-43.4527
-43.4478
-43.4428
-43.4377
-43.4325
-43.4273
-43.4219
-43.4164
-43.4109
-43.4053
-43.3997
-43.394
-43.3883
-43.3825
-43.3767
-43.3708
-43.365
-43.3591
-43.3532
-43.3473
-43.3414
-43.3356
-43.3297
-43.3239
-43.3181
-43.3123
-43.3065
-43.3009
-43.2952
-43.2896
-43.2841
-43.2786
-43.2732
-43.2679
-43.2626
-43.2575
-43.2524
-43.2474
-43.2425
-43.2377
-43.2331
-43.2285
-43.224
-43.2197
-43.2154
-43.2113
-43.2073
-43.2034
-43.1997
-43.1961
-43.1926
-43.1893
-43.1861
-43.1831
-43.1802
-43.1774
-43.1748
-43.1724
-43.1701
-43.1679
-43.1659
-43.1641
-43.1624
-43.1609
-43.1595
-43.1583
-43.1573
-43.1564
-43.1557
-43.1552
-43.1548
-43.1546
-43.1545
-47.077
-47.0771
-47.0773
-47.0777
-47.0782
-47.079
-47.0798
-47.0809
-47.0821
-47.0835
-47.085
-47.0867
-47.0885
-47.0905
-47.0927
-47.095
-47.0975
-47.1001
-47.1029
-47.1058
-47.1089
-47.1121
-47.1155
-47.1189
-47.1226
-47.1263
-47.1302
-47.1343
-47.1384
-47.1427
-47.1471
-47.1516
-47.1562
-47.1609
-47.1657
-47.1707
-47.1757
-47.1808
-47.186
-47.1913
-47.1967
-47.2022
-47.2077
-47.2133
-47.2189
-47.2246
-47.2304
-47.2361
-47.242
-47.2478
-47.2537
-47.2597
-47.2656
-47.2715
-47.2775
-47.2834
-47.2894
-47.2953
-47.3012
-47.3071
-47.3129
-47.3187
-47.3245
-47.3302
-47.3358
-47.3414
-47.3469
-47.3524
-47.3577
-47.363
-47.3681
-47.3732
-47.3782
-47.383
-47.3877
-47.3923
-47.3967
-47.4011
-47.4052
-47.4092
-47.4131
-47.4168
-47.4203
-47.4237
-47.4269
-47.4299
-47.4328
-47.4354
-47.4379
-47.4401
-47.4422
-47.4441
-47.4458
-47.4472
-47.4485
-47.4495
-47.4504
-47.451
-47.4514
-47.4516
-47.4516
-47.4514
-47.451
-47.4504
-47.4495
-47.4484
-47.4472
-47.4457
-47.444
-47.4422
-47.4401
-47.4378
-47.4353
-47.4327
-47.4299
-47.4268
-47.4236
-47.4203
-47.4167
-47.413
-47.4091
-47.4051
-47.4009
-47.3966
-47.3922
-47.3876
-47.3828
-47.378
-47.3731
-47.368
-47.3628
-47.3576
-47.3522
-47.3468
-47.3412
-47.3357
-47.33
-47.3243
-47.3185
-47.3127
-47.3069
-47.301
-47.2951
-47.2892
-47.2832
-47.2773
-47.2713
-47.2654
-47.2594
-47.2535
-47.2476
-47.2417
-47.2359
-47.2301
-47.2244
-47.2186
-47.213
-47.2074
-47.2019
-47.1964
-47.1911
-47.1858
-47.1806
-47.1754
-47.1704
-47.1655
-47.1606
-47.1559
-47.1513
-47.1468
-47.1424
-47.1381
-47.134
-47.1299
-47.126
-47.1223
-47.1186
-47.1152
-47.1118
-47.1086
-47.1055
-47.1026
-47.0998
-47.0972
-47.0947
-47.0924
-47.0902
-47.0882
-47.0864
-47.0847
-47.0832
-47.0818
-47.0806
-47.0795
-47.0787
-47.0779
-47.0774
-47.077
-47.0768
-47.0767
-50.9991
-50.9992
-50.9994
-50.9998
-51.0003
-51.001
-51.0019
-51.003
-51.0042
-51.0056
-51.0071
-51.0088
-51.0107
-51.0127
-51.0149
-51.0172
-51.0197
-51.0224
-51.0252
-51.0281
-51.0312
-51.0344
-51.0378
-51.0414
-51.045
-51.0488
-51.0527
-51.0568
-51.061
-51.0653
-51.0697
-51.0743
-51.0789
-51.0837
-51.0886
-51.0936
-51.0986
-51.1038
-51.1091
-51.1144
-51.1199
-51.1254
-51.1309
-51.1366
-51.1423
-51.148
-51.1539
-51.1597
-51.1656
-51.1716
-51.1775
-51.1835
-51.1895
-51.1955
-51.2015
-51.2076
-51.2136
-51.2196
-51.2256
-51.2315
-51.2374
-51.2433
-51.2491
-51.2549
-51.2607
-51.2663
-51.2719
-51.2774
-51.2828
-51.2882
-51.2934
-51.2985
-51.3036
-51.3085
-51.3132
-51.3179
-51.3224
-51.3268
-51.331
-51.3351
-51.339
-51.3428
-51.3464
-51.3498
-51.3531
-51.3561
-51.359
-51.3617
-51.3642
-51.3665
-51.3686
-51.3705
-51.3722
-51.3737
-51.375
-51.376
-51.3769
-51.3775
-51.378
-51.3782
-51.3782
-51.3779
-51.3775
-51.3769
-51.376
-51.3749
-51.3736
-51.3721
-51.3704
-51.3685
-51.3664
-51.3641
-51.3616
-51.3589
-51.356
-51.353
-51.3497
-51.3463
-51.3427
-51.3389
-51.335
-51.3309
-51.3267
-51.3223
-51.3178
-51.3131
-51.3083
-51.3034
-51.2984
-51.2932
-51.288
-51.2827
-51.2772
-51.2717
-51.2661
-51.2605
-51.2547
-51.2489
-51.2431
-51.2372
-51.2313
-51.2253
-51.2194
-51.2134
-51.2073
-51.2013
-51.1953
-51.1893
-51.1833
-51.1773
-51.1713
-51.1654
-51.1595
-51.1536
-51.1478
-51.142
-51.1363
-51.1307
-51.1251
-51.1196
-51.1142
-51.1088
-51.1035
-51.0984
-51.0933
-51.0883
-51.0834
-51.0787
-51.074
-51.0694
-51.065
-51.0607
-51.0565
-51.0524
-51.0485
-51.0447
-51.0411
-51.0375
-51.0341
-51.0309
-51.0278
-51.0249
-51.0221
-51.0194
-51.0169
-51.0146
-51.0124
-51.0104
-51.0085
-51.0068
-51.0053
-51.0039
-51.0027
-51.0016
-51.0007
-51
-50.9994
-50.9991
-50.9988
-50.9988
-54.921
-54.921
-54.9213
-54.9217
-54.9222
-54.923
-54.9238
-54.9249
-54.9261
-54.9275
-54.9291
-54.9308
-54.9327
-54.9347
-54.9369
-54.9393
-54.9418
-54.9445
-54.9473
-54.9503
-54.9534
-54.9567
-54.9601
-54.9636
-54.9673
-54.9712
-54.9751
-54.9792
-54.9834
-54.9878
-54.9923
-54.9969
-55.0016
-55.0064
-55.0113
-55.0164
-55.0215
-55.0267
-55.032
-55.0374
-55.0429
-55.0485
-55.0541
-55.0598
-55.0656
-55.0714
-55.0773
-55.0833
-55.0892
-55.0952
-55.1013
-55.1073
-55.1134
-55.1195
-55.1256
-55.1317
-55.1378
-55.1439
-55.1499
-55.156
-55.162
-55.1679
-55.1739
-55.1797
-55.1855
-55.1913
-55.1969
-55.2025
-55.208
-55.2134
-55.2188
-55.224
-55.2291
-55.2341
-55.2389
-55.2436
-55.2482
-55.2527
-55.257
-55.2611
-55.2651
-55.2689
-55.2726
-55.2761
-55.2794
-55.2825
-55.2854
-55.2882
-55.2907
-55.293
-55.2952
-55.2971
-55.2988
-55.3004
-55.3017
-55.3027
-55.3036
-55.3043
-55.3047
-55.3049
-55.3049
-55.3047
-55.3043
-55.3036
-55.3027
-55.3016
-55.3003
-55.2988
-55.2971
-55.2951
-55.293
-55.2906
-55.2881
-55.2853
-55.2824
-55.2793
-55.276
-55.2725
-55.2688
-55.265
-55.261
-55.2569
-55.2526
-55.2481
-55.2435
-55.2388
-55.2339
-55.2289
-55.2238
-55.2186
-55.2133
-55.2079
-55.2024
-55.1968
-55.1911
-55.1853
-55.1795
-55.1737
-55.1677
-55.1618
-55.1558
-55.1497
-55.1437
-55.1376
-55.1315
-55.1254
-55.1193
-55.1132
-55.1071
-55.101
-55.095
-55.089
-55.083
-55.0771
-55.0712
-55.0654
-55.0596
-55.0539
-55.0482
-55.0427
-55.0372
-55.0318
-55.0264
-55.0212
-55.0161
-55.011
-55.0061
-55.0013
-54.9966
-54.992
-54.9875
-54.9832
-54.9789
-54.9748
-54.9709
-54.967
-54.9633
-54.9598
-54.9564
-54.9531
-54.95
-54.947
-54.9442
-54.9415
-54.939
-54.9366
-54.9344
-54.9324
-54.9305
-54.9288
-54.9272
-54.9258
-54.9246
-54.9235
-54.9226
-54.9219
-54.9214
-54.921
-54.9207
-54.9207
-58.8427
-58.8428
-58.843
-58.8434
-58.844
-58.8447
-58.8456
-58.8467
-58.8479
-58.8493
-58.8509
-58.8526
-58.8545
-58.8566
-58.8588
-58.8612
-58.8637
-58.8664
-58.8693
-58.8723
-58.8754
-58.8787
-58.8822
-58.8858
-58.8895
-58.8934
-58.8974
-58.9015
-58.9058
-58.9102
-58.9147
-58.9193
-58.9241
-58.929
-58.934
-58.939
-58.9442
-58.9495
-58.9549
-58.9604
-58.9659
-58.9716
-58.9773
-58.983
-58.9889
-58.9948
-59.0007
-59.0068
-59.0128
-59.0189
-59.025
-59.0311
-59.0373
-59.0435
-59.0497
-59.0558
-59.062
-59.0682
-59.0743
-59.0805
-59.0866
-59.0926
-59.0986
-59.1046
-59.1105
-59.1163
-59.1221
-59.1277
-59.1333
-59.1388
-59.1442
-59.1495
-59.1547
-59.1598
-59.1647
-59.1695
-59.1742
-59.1787
-59.1831
-59.1873
-59.1914
-59.1953
-59.199
-59.2025
-59.2059
-59.2091
-59.212
-59.2148
-59.2174
-59.2198
-59.222
-59.224
-59.2257
-59.2273
-59.2286
-59.2297
-59.2306
-59.2312
-59.2317
-59.2319
-59.2319
-59.2317
-59.2312
-59.2306
-59.2297
-59.2285
-59.2272
-59.2257
-59.2239
-59.2219
-59.2197
-59.2174
-59.2148
-59.212
-59.209
-59.2058
-59.2024
-59.1989
-59.1952
-59.1913
-59.1872
-59.183
-59.1786
-59.1741
-59.1694
-59.1646
-59.1596
-59.1546
-59.1494
-59.1441
-59.1387
-59.1332
-59.1276
-59.1219
-59.1161
-59.1103
-59.1044
-59.0984
-59.0924
-59.0864
-59.0803
-59.0741
-59.068
-59.0618
-59.0556
-59.0494
-59.0433
-59.0371
-59.0309
-59.0248
-59.0186
-59.0126
-59.0065
-59.0005
-58.9945
-58.9886
-58.9828
-58.977
-58.9713
-58.9657
-58.9601
-58.9546
-58.9493
-58.944
-58.9388
-58.9337
-58.9287
-58.9238
-58.9191
-58.9144
-58.9099
-58.9055
-58.9012
-58.8971
-58.8931
-58.8892
-58.8855
-58.8819
-58.8784
-58.8751
-58.872
-58.869
-58.8661
-58.8634
-58.8609
-58.8585
-58.8563
-58.8542
-58.8523
-58.8506
-58.849
-58.8476
-58.8464
-58.8453
-58.8444
-58.8437
-58.8431
-58.8427
-58.8425
-58.8424
-62.7643
-62.7643
-62.7646
-62.765
-62.7655
-62.7663
-62.7672
-62.7683
-62.7695
-62.7709
-62.7725
-62.7743
-62.7762
-62.7783
-62.7805
-62.7829
-62.7855
-62.7882
-62.7911
-62.7941
-62.7973
-62.8006
-62.8041
-62.8078
-62.8115
-62.8154
-62.8195
-62.8237
-62.828
-62.8324
-62.837
-62.8417
-62.8465
-62.8514
-62.8565
-62.8616
-62.8669
-62.8722