/*--------------------------------*- C++ -*----------------------------------*\
| =========                 |                                                 |
| \\      /  F ield         | OpenFOAM: The Open Source CFD Toolbox           |
|  \\    /   O peration     | Version:  2412                                  |
|   \\  /    A nd           | Website:  www.openfoam.com                      |
|    \\/     M anipulation  |                                                 |
\*---------------------------------------------------------------------------*/
FoamFile
{
    version     2.0;
    format      ascii;
    arch        "LSB;label=32;scalar=64";
    class       volScalarField;
    location    "1.11";
    object      p_rgh;
}
// * * * * * * * * * * * * * * * * * * * * * * * * * * * * * * * * * * * * * //

dimensions      [1 -1 -2 0 0 0 0];

internalField   nonuniform List<scalar> 
40000
(
1.962
1.96193
1.96173
1.96136
1.96084
1.96016
1.95933
1.95833
1.95718
1.95588
1.95442
1.95281
1.95105
1.94913
1.94707
1.94486
1.94251
1.94001
1.93737
1.93459
1.93167
1.92861
1.92543
1.92211
1.91866
1.91509
1.91139
1.90757
1.90364
1.89959
1.89544
1.89117
1.8868
1.88233
1.87777
1.87311
1.86836
1.86353
1.85862
1.85363
1.84857
1.84344
1.83825
1.83301
1.82771
1.82236
1.81697
1.81154
1.80607
1.80058
1.79507
1.78955
1.78401
1.77846
1.77292
1.76738
1.76185
1.75634
1.75085
1.74539
1.73997
1.73459
1.72925
1.72397
1.71874
1.71358
1.70848
1.70347
1.69853
1.69368
1.68893
1.68427
1.67972
1.67527
1.67094
1.66673
1.66265
1.65869
1.65487
1.65119
1.64765
1.64426
1.64103
1.63795
1.63503
1.63227
1.62968
1.62726
1.62502
1.62295
1.62107
1.61936
1.61784
1.61651
1.61536
1.6144
1.61363
1.61306
1.61268
1.61249
1.61249
1.61268
1.61307
1.61365
1.61443
1.61539
1.61654
1.61788
1.61941
1.62112
1.62301
1.62508
1.62733
1.62976
1.63235
1.63511
1.63804
1.64112
1.64436
1.64776
1.6513
1.65499
1.65881
1.66277
1.66686
1.67108
1.67541
1.67986
1.68442
1.68908
1.69384
1.69869
1.70363
1.70865
1.71375
1.71892
1.72415
1.72944
1.73478
1.74016
1.74559
1.75105
1.75655
1.76206
1.76759
1.77313
1.77868
1.78423
1.78977
1.7953
1.80082
1.80631
1.81178
1.81721
1.8226
1.82795
1.83326
1.83851
1.8437
1.84883
1.85389
1.85888
1.86379
1.86863
1.87338
1.87804
1.8826
1.88708
1.89145
1.89571
1.89987
1.90392
1.90786
1.91167
1.91537
1.91895
1.9224
1.92572
1.92891
1.93196
1.93488
1.93766
1.9403
1.9428
1.94516
1.94737
1.94943
1.95135
1.95311
1.95473
1.95619
1.95749
1.95865
1.95964
1.96048
1.96117
1.9617
1.96207
1.96228
1.96234
1.96205
1.96199
1.96179
1.96143
1.96091
1.96023
1.95939
1.9584
1.95725
1.95594
1.95448
1.95287
1.95111
1.94919
1.94713
1.94492
1.94257
1.94007
1.93743
1.93464
1.93172
1.92867
1.92548
1.92216
1.91871
1.91514
1.91144
1.90762
1.90369
1.89964
1.89548
1.89121
1.88684
1.88237
1.8778
1.87314
1.86839
1.86356
1.85865
1.85366
1.8486
1.84347
1.83827
1.83303
1.82772
1.82237
1.81698
1.81155
1.80608
1.80059
1.79508
1.78955
1.78401
1.77846
1.77291
1.76737
1.76184
1.75633
1.75084
1.74538
1.73995
1.73457
1.72923
1.72394
1.71871
1.71355
1.70845
1.70343
1.69849
1.69364
1.68889
1.68423
1.67967
1.67523
1.67089
1.66668
1.66259
1.65864
1.65481
1.65113
1.64759
1.6442
1.64096
1.63788
1.63496
1.6322
1.62961
1.62719
1.62495
1.62288
1.62099
1.61929
1.61776
1.61643
1.61528
1.61432
1.61356
1.61298
1.6126
1.61241
1.61241
1.6126
1.61299
1.61357
1.61435
1.61531
1.61646
1.6178
1.61933
1.62104
1.62294
1.62501
1.62726
1.62968
1.63228
1.63504
1.63797
1.64106
1.6443
1.6477
1.65124
1.65493
1.65876
1.66272
1.66681
1.67103
1.67536
1.67981
1.68437
1.68904
1.6938
1.69866
1.7036
1.70862
1.71372
1.71889
1.72412
1.72941
1.73476
1.74015
1.74558
1.75104
1.75653
1.76205
1.76758
1.77313
1.77868
1.78423
1.78977
1.79531
1.80083
1.80632
1.81179
1.81722
1.82262
1.82797
1.83328
1.83853
1.84372
1.84885
1.85392
1.85891
1.86383
1.86866
1.87341
1.87807
1.88264
1.88712
1.89149
1.89576
1.89992
1.90397
1.9079
1.91172
1.91542
1.919
1.92245
1.92577
1.92896
1.93202
1.93494
1.93772
1.94036
1.94286
1.94522
1.94743
1.9495
1.95141
1.95318
1.95479
1.95625
1.95756
1.95871
1.95971
1.96055
1.96123
1.96176
1.96213
1.96234
1.9624
1.96227
1.96221
1.962
1.96164
1.96112
1.96043
1.95959
1.9586
1.95745
1.95614
1.95468
1.95307
1.9513
1.94939
1.94732
1.94511
1.94275
1.94025
1.93761
1.93482
1.9319
1.92884
1.92565
1.92233
1.91887
1.9153
1.9116
1.90777
1.90384
1.89978
1.89562
1.89135
1.88697
1.8825
1.87792
1.87326
1.8685
1.86366
1.85874
1.85375
1.84868
1.84355
1.83835
1.83309
1.82778
1.82243
1.81703
1.81159
1.80612
1.80062
1.7951
1.78956
1.78401
1.77846
1.7729
1.76735
1.76182
1.75629
1.7508
1.74533
1.73989
1.7345
1.72915
1.72386
1.71862
1.71345
1.70835
1.70332
1.69838
1.69352
1.68875
1.68409
1.67952
1.67507
1.67073
1.66651
1.66242
1.65846
1.65463
1.65094
1.64739
1.64399
1.64075
1.63766
1.63474
1.63197
1.62938
1.62696
1.62471
1.62264
1.62075
1.61904
1.61751
1.61618
1.61503
1.61407
1.6133
1.61272
1.61234
1.61215
1.61215
1.61234
1.61273
1.61332
1.61409
1.61506
1.61621
1.61755
1.61908
1.6208
1.6227
1.62477
1.62703
1.62945
1.63205
1.63482
1.63775
1.64084
1.64409
1.6475
1.65105
1.65474
1.65857
1.66254
1.66664
1.67087
1.67521
1.67967
1.68423
1.68891
1.69368
1.69854
1.70349
1.70852
1.71363
1.7188
1.72404
1.72934
1.73469
1.74009
1.74553
1.751
1.7565
1.76202
1.76757
1.77312
1.77868
1.78423
1.78979
1.79533
1.80085
1.80635
1.81183
1.81727
1.82267
1.82803
1.83334
1.8386
1.8438
1.84894
1.85401
1.85901
1.86393
1.86877
1.87353
1.87819
1.88277
1.88725
1.89162
1.8959
1.90006
1.90412
1.90806
1.91188
1.91558
1.91916
1.92262
1.92594
1.92913
1.93219
1.93512
1.9379
1.94055
1.94305
1.94541
1.94762
1.94969
1.95161
1.95337
1.95499
1.95645
1.95776
1.95891
1.95991
1.96075
1.96144
1.96197
1.96234
1.96255
1.96261
1.96264
1.96258
1.96237
1.962
1.96148
1.9608
1.95995
1.95896
1.9578
1.95649
1.95503
1.95342
1.95165
1.94973
1.94766
1.94545
1.94308
1.94058
1.93793
1.93514
1.93221
1.92915
1.92595
1.92262
1.91916
1.91558
1.91187
1.90804
1.9041
1.90004
1.89587
1.89159
1.8872
1.88272
1.87814
1.87346
1.8687
1.86385
1.85892
1.85391
1.84884
1.84369
1.83848
1.83321
1.82789
1.82253
1.81711
1.81166
1.80618
1.80067
1.79513
1.78958
1.78402
1.77845
1.77289
1.76732
1.76177
1.75624
1.75073
1.74524
1.7398
1.73439
1.72903
1.72372
1.71847
1.71328
1.70817
1.70313
1.69817
1.6933
1.68852
1.68384
1.67926
1.6748
1.67045
1.66621
1.66211
1.65813
1.65429
1.65059
1.64704
1.64363
1.64038
1.63728
1.63434
1.63157
1.62897
1.62654
1.62429
1.62221
1.62031
1.6186
1.61707
1.61573
1.61457
1.61361
1.61284
1.61226
1.61187
1.61168
1.61169
1.61188
1.61227
1.61286
1.61363
1.6146
1.61576
1.61711
1.61864
1.62036
1.62227
1.62435
1.62661
1.62904
1.63165
1.63443
1.63737
1.64047
1.64373
1.64714
1.6507
1.65441
1.65825
1.66223
1.66634
1.67058
1.67494
1.67941
1.68399
1.68867
1.69345
1.69833
1.70329
1.70834
1.71346
1.71865
1.7239
1.72922
1.73458
1.73999
1.74544
1.75093
1.75644
1.76198
1.76754
1.7731
1.77867
1.78425
1.78981
1.79536
1.8009
1.80642
1.8119
1.81736
1.82277
1.82814
1.83346
1.83873
1.84395
1.84909
1.85417
1.85918
1.86411
1.86896
1.87373
1.87841
1.88299
1.88748
1.89186
1.89614
1.90032
1.90438
1.90833
1.91216
1.91587
1.91945
1.92291
1.92624
1.92944
1.93251
1.93543
1.93823
1.94087
1.94338
1.94575
1.94796
1.95003
1.95195
1.95372
1.95534
1.9568
1.95811
1.95927
1.96027
1.96111
1.9618
1.96233
1.9627
1.96291
1.96297
1.96317
1.9631
1.96289
1.96252
1.962
1.96131
1.96047
1.95947
1.95831
1.957
1.95553
1.95391
1.95214
1.95022
1.94814
1.94592
1.94356
1.94104
1.93839
1.93559
1.93266
1.92959
1.92638
1.92305
1.91958
1.91599
1.91227
1.90843
1.90447
1.9004
1.89622
1.89193
1.88753
1.88304
1.87844
1.87375
1.86898
1.86411
1.85917
1.85415
1.84906
1.8439
1.83867
1.83339
1.82805
1.82267
1.81724
1.81177
1.80627
1.80074
1.79519
1.78962
1.78404
1.77845
1.77286
1.76728
1.76171
1.75616
1.75063
1.74513
1.73966
1.73423
1.72885
1.72352
1.71825
1.71305
1.70791
1.70285
1.69787
1.69298
1.68818
1.68348
1.67889
1.67441
1.67004
1.66579
1.66167
1.65767
1.65382
1.6501
1.64653
1.64311
1.63984
1.63673
1.63378
1.631
1.62839
1.62594
1.62368
1.62159
1.61969
1.61796
1.61643
1.61508
1.61392
1.61296
1.61218
1.6116
1.61121
1.61102
1.61102
1.61122
1.61161
1.6122
1.61298
1.61395
1.61512
1.61647
1.61801
1.61974
1.62165
1.62374
1.62601
1.62846
1.63108
1.63387
1.63682
1.63993
1.64321
1.64663
1.65021
1.65393
1.65779
1.66179
1.66592
1.67017
1.67455
1.67903
1.68363
1.68834
1.69314
1.69803
1.70302
1.70808
1.71322
1.71843
1.7237
1.72904
1.73442
1.73985
1.74532
1.75083
1.75636
1.76192
1.7675
1.77308
1.77867
1.78426
1.78985
1.79542
1.80097
1.80651
1.81201
1.81748
1.82291
1.8283
1.83364
1.83893
1.84415
1.84932
1.85441
1.85943
1.86438
1.86924
1.87402
1.87871
1.88331
1.88781
1.8922
1.8965
1.90068
1.90475
1.90871
1.91255
1.91627
1.91987
1.92333
1.92667
1.92988
1.93295
1.93589
1.93869
1.94134
1.94386
1.94622
1.94845
1.95052
1.95245
1.95422
1.95584
1.95731
1.95862
1.95978
1.96078
1.96163
1.96232
1.96285
1.96322
1.96343
1.96349
1.96385
1.96378
1.96357
1.9632
1.96267
1.96198
1.96114
1.96013
1.95897
1.95766
1.95618
1.95456
1.95278
1.95085
1.94877
1.94655
1.94417
1.94165
1.93899
1.93618
1.93324
1.93016
1.92694
1.9236
1.92012
1.91651
1.91278
1.90893
1.90496
1.90088
1.89668
1.89237
1.88796
1.88345
1.87884
1.87413
1.86934
1.86446
1.8595
1.85446
1.84934
1.84416
1.83892
1.83362
1.82826
1.82285
1.8174
1.81191
1.80639
1.80083
1.79526
1.78966
1.78406
1.77845
1.77284
1.76723
1.76163
1.75606
1.7505
1.74497
1.73948
1.73402
1.72862
1.72326
1.71797
1.71274
1.70757
1.70249
1.69749
1.69257
1.68775
1.68302
1.67841
1.6739
1.66951
1.66523
1.66109
1.65708
1.6532
1.64946
1.64587
1.64243
1.63914
1.63602
1.63305
1.63025
1.62762
1.62517
1.62289
1.62079
1.61887
1.61714
1.6156
1.61424
1.61308
1.6121
1.61132
1.61074
1.61035
1.61016
1.61016
1.61036
1.61075
1.61134
1.61213
1.61311
1.61428
1.61564
1.61719
1.61893
1.62085
1.62295
1.62524
1.6277
1.63033
1.63314
1.63611
1.63924
1.64253
1.64598
1.64957
1.65331
1.6572
1.66121
1.66536
1.66964
1.67404
1.67855
1.68317
1.6879
1.69273
1.69765
1.70266
1.70775
1.71291
1.71815
1.72345
1.72881
1.73422
1.73967
1.74517
1.7507
1.75626
1.76185
1.76744
1.77306
1.77867
1.78428
1.78989
1.79549
1.80107
1.80662
1.81215
1.81764
1.8231
1.82851
1.83387
1.83917
1.84442
1.8496
1.85472
1.85976
1.86472
1.86961
1.8744
1.87911
1.88372
1.88824
1.89265
1.89696
1.90116
1.90524
1.90921
1.91307
1.9168
1.92041
1.92389
1.92723
1.93045
1.93353
1.93648
1.93929
1.94195
1.94447
1.94685
1.94908
1.95116
1.95309
1.95487
1.95649
1.95796
1.95928
1.96044
1.96145
1.9623
1.96299
1.96352
1.96389
1.9641
1.96417
1.96468
1.96461
1.9644
1.96403
1.9635
1.96281
1.96196
1.96095
1.95978
1.95846
1.95699
1.95536
1.95357
1.95164
1.94955
1.94731
1.94493
1.9424
1.93973
1.93691
1.93396
1.93086
1.92763
1.92427
1.92078
1.91716
1.91342
1.90955
1.90556
1.90146
1.89725
1.89292
1.88849
1.88396
1.87933
1.8746
1.86979
1.86488
1.8599
1.85484
1.8497
1.8445
1.83923
1.8339
1.82851
1.82308
1.8176
1.81208
1.80653
1.80095
1.79535
1.78972
1.78409
1.77845
1.7728
1.76717
1.76154
1.75593
1.75034
1.74478
1.73926
1.73377
1.72833
1.72295
1.71762
1.71236
1.70716
1.70205
1.69701
1.69206
1.68721
1.68246
1.67781
1.67327
1.66885
1.66455
1.66038
1.65634
1.65244
1.64867
1.64506
1.64159
1.63828
1.63513
1.63215
1.62933
1.62668
1.62421
1.62192
1.6198
1.61787
1.61613
1.61457
1.61321
1.61203
1.61105
1.61027
1.60968
1.60929
1.60909
1.60909
1.60929
1.60969
1.61029
1.61108
1.61206
1.61324
1.61461
1.61618
1.61793
1.61986
1.62198
1.62428
1.62676
1.62941
1.63223
1.63522
1.63838
1.64169
1.64516
1.64878
1.65255
1.65646
1.6605
1.66468
1.66899
1.67341
1.67795
1.68261
1.68737
1.69222
1.69717
1.70221
1.70733
1.71253
1.7178
1.72313
1.72852
1.73396
1.73945
1.74498
1.75055
1.75614
1.76175
1.76738
1.77302
1.77867
1.78431
1.78995
1.79558
1.80118
1.80677
1.81232
1.81784
1.82333
1.82876
1.83415
1.83948
1.84475
1.84996
1.8551
1.86016
1.86515
1.87006
1.87487
1.8796
1.88423
1.88877
1.8932
1.89753
1.90174
1.90585
1.90983
1.9137
1.91745
1.92107
1.92456
1.92793
1.93116
1.93425
1.93721
1.94002
1.9427
1.94523
1.94761
1.94985
1.95194
1.95388
1.95566
1.95729
1.95877
1.96009
1.96126
1.96227
1.96312
1.96381
1.96435
1.96472
1.96493
1.965
1.96567
1.9656
1.96539
1.96502
1.96448
1.96379
1.96293
1.96192
1.96075
1.95942
1.95794
1.9563
1.95451
1.95257
1.95047
1.94822
1.94583
1.94329
1.9406
1.93778
1.93481
1.9317
1.92846
1.92508
1.92157
1.91793
1.91417
1.91028
1.90628
1.90216
1.89792
1.89357
1.88912
1.88457
1.87991
1.87516
1.87032
1.86539
1.86038
1.85529
1.85013
1.84489
1.83959
1.83423
1.82882
1.82335
1.81784
1.81229
1.8067
1.80109
1.79545
1.78979
1.78412
1.77845
1.77277
1.76709
1.76143
1.75578
1.75016
1.74456
1.739
1.73347
1.728
1.72257
1.71721
1.71191
1.70667
1.70152
1.69645
1.69146
1.68658
1.68179
1.6771
1.67253
1.66807
1.66374
1.65954
1.65546
1.65153
1.64774
1.64409
1.6406
1.63726
1.63409
1.63108
1.62823
1.62557
1.62307
1.62076
1.61863
1.61668
1.61492
1.61335
1.61197
1.61079
1.6098
1.60901
1.60842
1.60802
1.60782
1.60783
1.60803
1.60843
1.60903
1.60983
1.61082
1.61201
1.61339
1.61497
1.61673
1.61869
1.62082
1.62314
1.62564
1.62831
1.63116
1.63418
1.63736
1.6407
1.6442
1.64785
1.65164
1.65558
1.65966
1.66387
1.66821
1.67267
1.67725
1.68194
1.68673
1.69162
1.69661
1.70169
1.70685
1.71208
1.71739
1.72276
1.72819
1.73367
1.73919
1.74476
1.75036
1.75599
1.76164
1.76731
1.77299
1.77867
1.78435
1.79002
1.79568
1.80132
1.80694
1.81253
1.81809
1.8236
1.82907
1.83448
1.83985
1.84515
1.85039
1.85555
1.86064
1.86566
1.87059
1.87543
1.88018
1.88484
1.8894
1.89385
1.8982
1.90244
1.90656
1.91057
1.91446
1.91822
1.92186
1.92537
1.92875
1.93199
1.9351
1.93807
1.9409
1.94359
1.94613
1.94852
1.95077
1.95287
1.95482
1.95661
1.95825
1.95973
1.96106
1.96223
1.96324
1.9641
1.96479
1.96533
1.96571
1.96592
1.96598
1.96681
1.96675
1.96653
1.96616
1.96562
1.96492
1.96406
1.96305
1.96187
1.96054
1.95905
1.9574
1.9556
1.95364
1.95154
1.94928
1.94687
1.94432
1.94162
1.93878
1.93579
1.93267
1.92941
1.92601
1.92249
1.91883
1.91504
1.91114
1.90711
1.90296
1.8987
1.89433
1.88985
1.88527
1.88059
1.87581
1.87094
1.86598
1.86094
1.85582
1.85062
1.84535
1.84002
1.83462
1.82917
1.82367
1.81812
1.81253
1.80691
1.80125
1.79557
1.78988
1.78417
1.77845
1.77273
1.76701
1.7613
1.75561
1.74994
1.7443
1.73869
1.73313
1.72761
1.72214
1.71673
1.71138
1.70611
1.70091
1.69579
1.69077
1.68584
1.68101
1.67628
1.67167
1.66717
1.6628
1.65856
1.65445
1.65047
1.64665
1.64297
1.63944
1.63608
1.63287
1.62983
1.62696
1.62427
1.62175
1.61941
1.61726
1.61529
1.61352
1.61193
1.61054
1.60935
1.60835
1.60755
1.60695
1.60655
1.60635
1.60635
1.60656
1.60696
1.60757
1.60837
1.60938
1.61058
1.61198
1.61357
1.61535
1.61732
1.61948
1.62182
1.62434
1.62704
1.62992
1.63296
1.63617
1.63954
1.64307
1.64676
1.65059
1.65457
1.65868
1.66293
1.66731
1.67181
1.67643
1.68116
1.68599
1.69093
1.69596
1.70108
1.70628
1.71156
1.71691
1.72232
1.7278
1.73332
1.73889
1.7445
1.75015
1.75582
1.76151
1.76722
1.77294
1.77867
1.78439
1.79011
1.79581
1.80149
1.80715
1.81277
1.81837
1.82392
1.82942
1.83487
1.84027
1.84561
1.85088
1.85608
1.8612
1.86625
1.87121
1.87608
1.88086
1.88555
1.89013
1.89461
1.89898
1.90325
1.90739
1.91142
1.91533
1.91912
1.92278
1.9263
1.9297
1.93296
1.93609
1.93907
1.94192
1.94462
1.94717
1.94958
1.95184
1.95395
1.9559
1.95771
1.95935
1.96084
1.96218
1.96336
1.96437
1.96523
1.96593
1.96647
1.96685
1.96706
1.96713
1.96812
1.96805
1.96783
1.96746
1.96691
1.96621
1.96535
1.96433
1.96314
1.9618
1.9603
1.95865
1.95684
1.95487
1.95275
1.95048
1.94806
1.94549
1.94278
1.93992
1.93692
1.93377
1.93049
1.92708
1.92353
1.91985
1.91604
1.91211
1.90806
1.90388
1.8996
1.8952
1.89069
1.88608
1.88136
1.87655
1.87165
1.86665
1.86157
1.85642
1.85118
1.84587
1.8405
1.83507
1.82957
1.82403
1.81844
1.81281
1.80714
1.80144
1.79572
1.78997
1.78421
1.77845
1.77268
1.76691
1.76116
1.75542
1.7497
1.74401
1.73835
1.73273
1.72716
1.72164
1.71618
1.71079
1.70546
1.70022
1.69505
1.68998
1.685
1.68012
1.67534
1.67069
1.66614
1.66173
1.65744
1.65329
1.64927
1.64541
1.64169
1.63813
1.63472
1.63148
1.62841
1.62551
1.62279
1.62024
1.61788
1.6157
1.61372
1.61192
1.61032
1.60891
1.6077
1.60669
1.60588
1.60528
1.60487
1.60467
1.60467
1.60488
1.60529
1.6059
1.60672
1.60773
1.60895
1.61036
1.61197
1.61377
1.61576
1.61794
1.62031
1.62286
1.62559
1.6285
1.63157
1.63482
1.63823
1.6418
1.64552
1.64939
1.65341
1.65757
1.66186
1.66628
1.67083
1.67549
1.68027
1.68515
1.69014
1.69522
1.70038
1.70564
1.71097
1.71637
1.72183
1.72735
1.73293
1.73855
1.74421
1.7499
1.75563
1.76137
1.76713
1.7729
1.77867
1.78444
1.7902
1.79595
1.80168
1.80738
1.81305
1.81869
1.82428
1.82983
1.83532
1.84076
1.84613
1.85144
1.85668
1.86184
1.86692
1.87192
1.87682
1.88163
1.88635
1.89097
1.89548
1.89988
1.90417
1.90834
1.91239
1.91633
1.92014
1.92382
1.92737
1.93079
1.93407
1.93721
1.94021
1.94308
1.94579
1.94836
1.95078
1.95306
1.95518
1.95714
1.95895
1.96061
1.96211
1.96345
1.96464
1.96566
1.96652
1.96723
1.96777
1.96815
1.96836
1.96843
1.96958
1.96951
1.96929
1.96891
1.96837
1.96766
1.96679
1.96576
1.96457
1.96322
1.96172
1.96005
1.95823
1.95625
1.95412
1.95183
1.9494
1.94681
1.94408
1.9412
1.93818
1.93501
1.93171
1.92827
1.9247
1.92099
1.91716
1.9132
1.90912
1.90492
1.9006
1.89617
1.89163
1.88698
1.88223
1.87738
1.87244
1.86741
1.86229
1.85709
1.85181
1.84646
1.84105
1.83557
1.83003
1.82444
1.8188
1.81312
1.8074
1.80165
1.79588
1.79008
1.78427
1.77845
1.77263
1.76681
1.761
1.7552
1.74943
1.74368
1.73797
1.73229
1.72667
1.72109
1.71557
1.71012
1.70474
1.69944
1.69422
1.68909
1.68405
1.67912
1.67429
1.66958
1.66499
1.66052
1.65619
1.65199
1.64793
1.64401
1.64025
1.63665
1.6332
1.62992
1.62681
1.62388
1.62112
1.61855
1.61615
1.61395
1.61194
1.61012
1.6085
1.60707
1.60585
1.60483
1.60401
1.6034
1.60299
1.60278
1.60279
1.60299
1.60341
1.60403
1.60485
1.60588
1.60711
1.60854
1.61017
1.61199
1.61401
1.61622
1.61862
1.6212
1.62396
1.6269
1.63001
1.6333
1.63675
1.64036
1.64413
1.64804
1.65211
1.65631
1.66065
1.66513
1.66972
1.67444
1.67927
1.68421
1.68925
1.69438
1.69961
1.70492
1.7103
1.71576
1.72128
1.72686
1.73249
1.73817
1.74388
1.74963
1.75541
1.76121
1.76703
1.77285
1.77868
1.7845
1.79031
1.79611
1.80189
1.80764
1.81336
1.81905
1.82469
1.83028
1.83582
1.8413
1.84672
1.85208
1.85735
1.86256
1.86768
1.87271
1.87765
1.8825
1.88725
1.8919
1.89645
1.90088
1.9052
1.9094
1.91349
1.91745
1.92128
1.92499
1.92856
1.932
1.93531
1.93847
1.9415
1.94438
1.94711
1.9497
1.95213
1.95442
1.95655
1.95853
1.96036
1.96202
1.96353
1.96488
1.96607
1.9671
1.96797
1.96868
1.96922
1.96961
1.96982
1.96989
1.9712
1.97113
1.97091
1.97053
1.96998
1.96927
1.96839
1.96736
1.96616
1.9648
1.96328
1.9616
1.95977
1.95778
1.95563
1.95333
1.95087
1.94827
1.94552
1.94262
1.93958
1.93639
1.93306
1.9296
1.926
1.92226
1.9184
1.91441
1.9103
1.90606
1.90171
1.89724
1.89267
1.88798
1.88319
1.87831
1.87332
1.86825
1.86309
1.85784
1.85252
1.84712
1.84166
1.83613
1.83054
1.8249
1.8192
1.81347
1.8077
1.80189
1.79606
1.79021
1.78434
1.77846
1.77257
1.76669
1.76082
1.75497
1.74913
1.74332
1.73754
1.73181
1.72612
1.72048
1.7149
1.70938
1.70394
1.69858
1.69329
1.6881
1.68301
1.67801
1.67313
1.66836
1.66371
1.65919
1.65479
1.65054
1.64643
1.64246
1.63865
1.635
1.63151
1.62819
1.62504
1.62207
1.61927
1.61666
1.61424
1.612
1.60996
1.60812
1.60648
1.60503
1.60379
1.60276
1.60193
1.6013
1.60089
1.60068
1.60069
1.6009
1.60132
1.60195
1.60278
1.60382
1.60507
1.60652
1.60817
1.61002
1.61206
1.6143
1.61673
1.61935
1.62215
1.62513
1.62828
1.63161
1.6351
1.63876
1.64258
1.64655
1.65066
1.65492
1.65932
1.66385
1.6685
1.67328
1.67816
1.68316
1.68826
1.69346
1.69874
1.70412
1.70956
1.71508
1.72067
1.72631
1.732
1.73774
1.74352
1.74934
1.75518
1.76104
1.76691
1.7728
1.77868
1.78456
1.79044
1.79629
1.80213
1.80794
1.81371
1.81945
1.82515
1.83079
1.83638
1.84191
1.84738
1.85278
1.85811
1.86335
1.86852
1.87359
1.87858
1.88347
1.88826
1.89295
1.89752
1.90199
1.90635
1.91058
1.9147
1.91869
1.92256
1.92629
1.92989
1.93336
1.93668
1.93987
1.94292
1.94582
1.94857
1.95118
1.95363
1.95593
1.95808
1.96007
1.96191
1.96359
1.96511
1.96647
1.96767
1.9687
1.96958
1.97029
1.97084
1.97122
1.97144
1.97151
1.97298
1.97291
1.97269
1.9723
1.97175
1.97103
1.97015
1.96911
1.9679
1.96653
1.965
1.96331
1.96146
1.95946
1.95729
1.95497
1.9525
1.94988
1.9471
1.94418
1.94111
1.9379
1.93455
1.93106
1.92743
1.92366
1.91977
1.91575
1.9116
1.90733
1.90294
1.89843
1.89381
1.88909
1.88426
1.87932
1.87429
1.86917
1.86396
1.85867
1.85329
1.84785
1.84233
1.83674
1.8311
1.8254
1.81965
1.81386
1.80802
1.80216
1.79626
1.79034
1.78441
1.77847
1.77252
1.76657
1.76063
1.75471
1.7488
1.74293
1.73708
1.73127
1.72551
1.71981
1.71416
1.70857
1.70306
1.69763
1.69228
1.68702
1.68185
1.6768
1.67185
1.66701
1.6623
1.65771
1.65326
1.64895
1.64478
1.64076
1.63689
1.63319
1.62965
1.62628
1.62309
1.62007
1.61723
1.61458
1.61212
1.60986
1.60779
1.60592
1.60425
1.60278
1.60152
1.60047
1.59963
1.599
1.59858
1.59837
1.59837
1.59858
1.59901
1.59965
1.6005
1.60155
1.60282
1.60429
1.60597
1.60784
1.60992
1.61219
1.61465
1.61731
1.62015
1.62317
1.62637
1.62975
1.63329
1.637
1.64087
1.6449
1.64907
1.65339
1.65785
1.66244
1.66715
1.67199
1.67695
1.68201
1.68718
1.69244
1.6978
1.70324
1.70875
1.71434
1.71999
1.72571
1.73147
1.73728
1.74313
1.74901
1.75492
1.76085
1.76679
1.77274
1.77869
1.78464
1.79058
1.7965
1.80239
1.80826
1.8141
1.8199
1.82565
1.83135
1.837
1.84259
1.84811
1.85356
1.85893
1.86423
1.86944
1.87457
1.8796
1.88453
1.88936
1.89409
1.89871
1.90322
1.90761
1.91188
1.91603
1.92006
1.92395
1.92772
1.93135
1.93484
1.9382
1.94141
1.94448
1.9474
1.95018
1.9528
1.95528
1.9576
1.95976
1.96177
1.96362
1.96531
1.96684
1.96821
1.96942
1.97046
1.97134
1.97206
1.97261
1.973
1.97322
1.97329
1.97492
1.97485
1.97463
1.97424
1.97368
1.97296
1.97207
1.97102
1.9698
1.96842
1.96688
1.96518
1.96331
1.96129
1.95911
1.95677
1.95428
1.95163
1.94883
1.94589
1.94279
1.93955
1.93617
1.93265
1.92899
1.92519
1.92126
1.9172
1.91302
1.90871
1.90428
1.89973
1.89507
1.89029
1.88542
1.88044
1.87536
1.87019
1.86492
1.85957
1.85415
1.84864
1.84306
1.83742
1.83171
1.82595
1.82014
1.81428
1.80838
1.80245
1.79648
1.7905
1.78449
1.77848
1.77246
1.76644
1.76043
1.75443
1.74845
1.7425
1.73658
1.73069
1.72486
1.71907
1.71335
1.70769
1.7021
1.69659
1.69117
1.68583
1.6806
1.67547
1.67044
1.66554
1.66076
1.6561
1.65159
1.64721
1.64298
1.6389
1.63497
1.63121
1.62762
1.62419
1.62095
1.61788
1.615
1.61231
1.60981
1.60751
1.60541
1.60351
1.60181
1.60032
1.59904
1.59797
1.59712
1.59647
1.59604
1.59583
1.59584
1.59605
1.59649
1.59714
1.598
1.59907
1.60036
1.60185
1.60355
1.60546
1.60757
1.60988
1.61238
1.61508
1.61796
1.62104
1.62429
1.62771
1.63131
1.63508
1.63901
1.64309
1.64733
1.65172
1.65624
1.6609
1.66568
1.67059
1.67562
1.68076
1.686
1.69133
1.69676
1.70228
1.70787
1.71353
1.71926
1.72505
1.73089
1.73678
1.7427
1.74866
1.75464
1.76064
1.76666
1.77268
1.77871
1.78472
1.79073
1.79672
1.80269
1.80862
1.81453
1.82039
1.8262
1.83197
1.83768
1.84332
1.8489
1.85441
1.85984
1.86519
1.87046
1.87563
1.88071
1.88569
1.89057
1.89535
1.90001
1.90456
1.90899
1.9133
1.91749
1.92155
1.92548
1.92928
1.93294
1.93647
1.93985
1.94309
1.94619
1.94913
1.95193
1.95458
1.95707
1.95941
1.96159
1.96362
1.96548
1.96719
1.96873
1.97011
1.97133
1.97238
1.97327
1.97399
1.97455
1.97494
1.97516
1.97523
1.97702
1.97695
1.97673
1.97634
1.97578
1.97505
1.97415
1.97309
1.97186
1.97047
1.96892
1.9672
1.96532
1.96328
1.96108
1.95872
1.9562
1.95353
1.95071
1.94774
1.94462
1.94135
1.93793
1.93438
1.93068
1.92685
1.92288
1.91878
1.91456
1.9102
1.90573
1.90114
1.89643
1.89161
1.88668
1.88165
1.87651
1.87129
1.86597
1.86056
1.85507
1.8495
1.84386
1.83816
1.83238
1.82655
1.82067
1.81474
1.80877
1.80277
1.79673
1.79067
1.78459
1.7785
1.7724
1.7663
1.76021
1.75413
1.74807
1.74203
1.73603
1.73007
1.72415
1.71828
1.71247
1.70673
1.70106
1.69547
1.68996
1.68455
1.67923
1.67402
1.66892
1.66394
1.65909
1.65436
1.64977
1.64532
1.64102
1.63687
1.63288
1.62906
1.6254
1.62192
1.61862
1.61551
1.61258
1.60984
1.6073
1.60496
1.60282
1.60088
1.59916
1.59764
1.59634
1.59525
1.59438
1.59373
1.59329
1.59308
1.59308
1.5933
1.59374
1.5944
1.59528
1.59637
1.59768
1.5992
1.60093
1.60287
1.60502
1.60737
1.60991
1.61265
1.61559
1.61871
1.62202
1.6255
1.62916
1.63299
1.63699
1.64114
1.64544
1.6499
1.65449
1.65923
1.66409
1.66907
1.67418
1.67939
1.68471
1.69013
1.69564
1.70124
1.70691
1.71266
1.71847
1.72434
1.73026
1.73623
1.74224
1.74828
1.75434
1.76042
1.76652
1.77262
1.77872
1.78482
1.7909
1.79697
1.80301
1.80902
1.81499
1.82092
1.82681
1.83264
1.83841
1.84412
1.84977
1.85534
1.86083
1.86624
1.87156
1.87679
1.88192
1.88696
1.89189
1.89671
1.90142
1.90601
1.91049
1.91484
1.91907
1.92317
1.92714
1.93098
1.93467
1.93823
1.94164
1.94492
1.94804
1.95101
1.95384
1.95651
1.95902
1.96138
1.96358
1.96562
1.96751
1.96923
1.97078
1.97217
1.9734
1.97446
1.97536
1.97609
1.97665
1.97704
1.97726
1.97733
1.97929
1.97922
1.979
1.9786
1.97803
1.9773
1.9764
1.97533
1.97409
1.97268
1.97111
1.96938
1.96748
1.96542
1.9632
1.96082
1.95828
1.95559
1.95274
1.94973
1.94658
1.94328
1.93983
1.93624
1.93251
1.92864
1.92463
1.92049
1.91622
1.91182
1.9073
1.90266
1.8979
1.89303
1.88804
1.88295
1.87776
1.87248
1.8671
1.86163
1.85607
1.85044
1.84473
1.83895
1.83311
1.82721
1.82125
1.81525
1.8092
1.80312
1.797
1.79086
1.78469
1.77852
1.77234
1.76615
1.75997
1.75381
1.74766
1.74154
1.73545
1.72939
1.72339
1.71743
1.71153
1.7057
1.69994
1.69426
1.68867
1.68317
1.67776
1.67247
1.66728
1.66222
1.65728
1.65247
1.6478
1.64328
1.6389
1.63468
1.63062
1.62673
1.62301
1.61947
1.61611
1.61294
1.60996
1.60717
1.60458
1.6022
1.60002
1.59805
1.59629
1.59475
1.59342
1.59231
1.59142
1.59076
1.59031
1.59009
1.5901
1.59032
1.59077
1.59144
1.59234
1.59345
1.59478
1.59633
1.5981
1.60007
1.60226
1.60465
1.60724
1.61003
1.61302
1.6162
1.61957
1.62311
1.62684
1.63073
1.6348
1.63902
1.6434
1.64793
1.65261
1.65742
1.66236
1.66743
1.67262
1.67792
1.68333
1.68884
1.69444
1.70012
1.70588
1.71172
1.71762
1.72358
1.72959
1.73565
1.74174
1.74787
1.75402
1.76019
1.76637
1.77256
1.77875
1.78493
1.79109
1.79724
1.80336
1.80945
1.8155
1.8215
1.82746
1.83337
1.83921
1.84499
1.8507
1.85634
1.86189
1.86737
1.87275
1.87804
1.88323
1.88832
1.89331
1.89818
1.90294
1.90759
1.91211
1.91651
1.92078
1.92492
1.92893
1.93281
1.93654
1.94013
1.94358
1.94688
1.95004
1.95304
1.95589
1.95858
1.96112
1.9635
1.96573
1.96779
1.96969
1.97142
1.97299
1.9744
1.97564
1.97671
1.97761
1.97835
1.97891
1.97931
1.97953
1.9796
1.98173
1.98166
1.98143
1.98103
1.98046
1.97972
1.9788
1.97772
1.97647
1.97505
1.97347
1.97172
1.9698
1.96772
1.96548
1.96307
1.96051
1.95779
1.95491
1.95188
1.94869
1.94536
1.94188
1.93825
1.93448
1.93056
1.92651
1.92233
1.91801
1.91356
1.90899
1.90429
1.89948
1.89455
1.88951
1.88436
1.87911
1.87376
1.86831
1.86278
1.85715
1.85145
1.84567
1.83981
1.8339
1.82792
1.82188
1.81579
1.80966
1.80349
1.79729
1.79106
1.78481
1.77855
1.77227
1.766
1.75973
1.75347
1.74723
1.74101
1.73482
1.72867
1.72257
1.71652
1.71052
1.7046
1.69874
1.69297
1.68728
1.68168
1.67619
1.6708
1.66552
1.66037
1.65534
1.65045
1.64569
1.64108
1.63663
1.63233
1.62819
1.62423
1.62044
1.61683
1.61341
1.61017
1.60713
1.60429
1.60165
1.59922
1.597
1.59499
1.5932
1.59163
1.59027
1.58914
1.58824
1.58756
1.58711
1.58688
1.58688
1.58711
1.58757
1.58826
1.58917
1.5903
1.59166
1.59324
1.59504
1.59706
1.59928
1.60172
1.60436
1.60721
1.61026
1.6135
1.61693
1.62054
1.62434
1.62831
1.63245
1.63675
1.64121
1.64582
1.65058
1.65548
1.66051
1.66567
1.67095
1.67635
1.68185
1.68745
1.69314
1.69892
1.70478
1.71071
1.71671
1.72277
1.72887
1.73503
1.74122
1.74744
1.75368
1.75995
1.76622
1.7725
1.77878
1.78505
1.7913
1.79753
1.80374
1.80991
1.81604
1.82213
1.82817
1.83415
1.84007
1.84593
1.85171
1.85742
1.86304
1.86858
1.87403
1.87939
1.88464
1.88979
1.89483
1.89976
1.90458
1.90928
1.91385
1.9183
1.92262
1.9268
1.93086
1.93477
1.93854
1.94217
1.94566
1.94899
1.95218
1.95521
1.95809
1.96081
1.96338
1.96578
1.96803
1.97011
1.97203
1.97378
1.97536
1.97678
1.97803
1.97911
1.98003
1.98077
1.98134
1.98174
1.98197
1.98204
1.98433
1.98426
1.98403
1.98362
1.98305
1.9823
1.98138
1.98028
1.97902
1.97759
1.97599
1.97422
1.97228
1.97018
1.96791
1.96548
1.96289
1.96014
1.95724
1.95417
1.95095
1.94758
1.94406
1.94039
1.93658
1.93262
1.92852
1.92429
1.91992
1.91542
1.9108
1.90605
1.90118
1.89619
1.89108
1.88587
1.88055
1.87513
1.86962
1.86401
1.85831
1.85253
1.84667
1.84074
1.83474
1.82868
1.82256
1.81638
1.81017
1.80391
1.79761
1.79129
1.78494
1.77858
1.77221
1.76584
1.75947
1.75311
1.74677
1.74045
1.73416
1.72791
1.7217
1.71554
1.70945
1.70342
1.69746
1.69158
1.68579
1.68009
1.6745
1.66901
1.66364
1.65838
1.65326
1.64827
1.64343
1.63873
1.63419
1.62981
1.62559
1.62155
1.61768
1.614
1.61051
1.60721
1.60411
1.60121
1.59851
1.59603
1.59376
1.59171
1.58988
1.58828
1.5869
1.58574
1.58482
1.58412
1.58366
1.58343
1.58344
1.58367
1.58414
1.58484
1.58577
1.58693
1.58832
1.58993
1.59176
1.59382
1.59609
1.59858
1.60128
1.60418
1.60729
1.6106
1.6141
1.61778
1.62165
1.6257
1.62992
1.63431
1.63886
1.64356
1.64841
1.6534
1.65853
1.66379
1.66917
1.67466
1.68026
1.68596
1.69176
1.69764
1.7036
1.70964
1.71574
1.7219
1.72811
1.73436
1.74066
1.74698
1.75333
1.75969
1.76606
1.77244
1.77881
1.78518
1.79153
1.79785
1.80415
1.81041
1.81663
1.82281
1.82893
1.835
1.841
1.84694
1.8528
1.85858
1.86428
1.86989
1.87541
1.88083
1.88615
1.89136
1.89647
1.90146
1.90633
1.91109
1.91571
1.92021
1.92458
1.92882
1.93292
1.93687
1.94069
1.94436
1.94788
1.95125
1.95447
1.95754
1.96045
1.9632
1.96579
1.96822
1.97049
1.97259
1.97453
1.9763
1.9779
1.97933
1.98059
1.98169
1.98261
1.98336
1.98394
1.98434
1.98457
1.98464
1.9871
1.98703
1.9868
1.98639
1.9858
1.98505
1.98412
1.98301
1.98174
1.98029
1.97867
1.97688
1.97492
1.9728
1.97051
1.96805
1.96543
1.96265
1.95971
1.95661
1.95336
1.94995
1.94639
1.94268
1.93882
1.93482
1.93067
1.92639
1.92197
1.91741
1.91273
1.90792
1.90298
1.89793
1.89276
1.88748
1.8821
1.8766
1.87101
1.86533
1.85955
1.85369
1.84775
1.84173
1.83565
1.82949
1.82328
1.81702
1.81071
1.80435
1.79796
1.79154
1.78509
1.77863
1.77215
1.76568
1.7592
1.75273
1.74628
1.73985
1.73345
1.72709
1.72078
1.71451
1.7083
1.70216
1.69609
1.69011
1.68421
1.6784
1.6727
1.6671
1.66162
1.65627
1.65104
1.64596
1.64101
1.63622
1.63159
1.62711
1.62281
1.61868
1.61474
1.61098