/*--------------------------------*- C++ -*----------------------------------*\
| =========                 |                                                 |
| \\      /  F ield         | OpenFOAM: The Open Source CFD Toolbox           |
|  \\    /   O peration     | Version:  2412                                  |
|   \\  /    A nd           | Website:  www.openfoam.com                      |
|    \\/     M anipulation  |                                                 |
\*---------------------------------------------------------------------------*/
FoamFile
{
    version     2.0;
    format      ascii;
    arch        "LSB;label=32;scalar=64";
    class       surfaceScalarField;
    location    "1.11";
    object      phi;
}
// * * * * * * * * * * * * * * * * * * * * * * * * * * * * * * * * * * * * * //

dimensions      [0 3 -1 0 0 0 0];

oriented        oriented;

internalField   nonuniform List<scalar> 
79600
(
2.18107e-11
-2.1791e-11
4.79307e-11
-2.61199e-11
7.74646e-11
-2.95315e-11
1.08704e-10
-3.12388e-11
1.40713e-10
-3.20134e-11
1.72876e-10
-3.21663e-11
2.04914e-10
-3.20376e-11
2.36739e-10
-3.18238e-11
2.68313e-10
-3.15723e-11
2.99628e-10
-3.1316e-11
3.30683e-10
-3.10552e-11
3.61465e-10
-3.0783e-11
3.91964e-10
-3.04989e-11
4.22166e-10
-3.02015e-11
4.52054e-10
-2.98884e-11
4.81611e-10
-2.95575e-11
5.10818e-10
-2.92068e-11
5.39654e-10
-2.88361e-11
5.68099e-10
-2.84447e-11
5.96131e-10
-2.80322e-11
6.23728e-10
-2.75978e-11
6.50868e-10
-2.7141e-11
6.77529e-10
-2.66612e-11
7.03687e-10
-2.61583e-11
7.29319e-10
-2.56321e-11
7.54402e-10
-2.50827e-11
7.78912e-10
-2.45101e-11
8.02826e-10
-2.39143e-11
8.26121e-10
-2.32951e-11
8.48774e-10
-2.26523e-11
8.7076e-10
-2.1986e-11
8.92056e-10
-2.12959e-11
9.12639e-10
-2.05823e-11
9.32484e-10
-1.98451e-11
9.51568e-10
-1.90843e-11
9.69867e-10
-1.82998e-11
9.87359e-10
-1.74918e-11
1.00402e-09
-1.66604e-11
1.01983e-09
-1.58055e-11
1.03475e-09
-1.49275e-11
1.04878e-09
-1.40265e-11
1.06188e-09
-1.31027e-11
1.07404e-09
-1.21564e-11
1.08523e-09
-1.11881e-11
1.09542e-09
-1.01983e-11
1.10461e-09
-9.18777e-12
1.11277e-09
-8.15713e-12
1.11987e-09
-7.10711e-12
1.12591e-09
-6.03845e-12
1.13086e-09
-4.95195e-12
1.13471e-09
-3.84838e-12
1.13744e-09
-2.72833e-12
1.13903e-09
-1.59188e-12
1.13947e-09
-4.38243e-13
1.13874e-09
7.30974e-13
1.13683e-09
1.90834e-12
1.13374e-09
3.09348e-12
1.12945e-09
4.28644e-12
1.12396e-09
5.48693e-12
1.11727e-09
6.69387e-12
1.10936e-09
7.906e-12
1.10024e-09
9.12184e-12
1.0899e-09
1.03398e-11
1.07835e-09
1.15581e-11
1.06557e-09
1.2775e-11
1.05158e-09
1.39888e-11
1.03638e-09
1.51977e-11
1.01998e-09
1.63999e-11
1.00239e-09
1.75933e-11
9.83615e-10
1.87762e-11
9.63668e-10
1.99464e-11
9.42566e-10
2.11023e-11
9.20324e-10
2.2242e-11
8.96961e-10
2.33638e-11
8.72497e-10
2.44655e-11
8.46953e-10
2.55451e-11
8.20353e-10
2.66006e-11
7.92723e-10
2.76299e-11
7.64092e-10
2.86313e-11
7.34489e-10
2.96027e-11
7.03947e-10
3.05422e-11
6.725e-10
3.14477e-11
6.40182e-10
3.23172e-11
6.07033e-10
3.31491e-11
5.73091e-10
3.39417e-11
5.38397e-10
3.46935e-11
5.02994e-10
3.54027e-11
4.66926e-10
3.60679e-11
4.30239e-10
3.66874e-11
3.9298e-10
3.72599e-11
3.55196e-10
3.77843e-11
3.16937e-10
3.82593e-11
2.78253e-10
3.86839e-11
2.39195e-10
3.90573e-11
1.99815e-10
3.93789e-11
1.60167e-10
3.9648e-11
1.20303e-10
3.98641e-11
8.02769e-11
4.00265e-11
4.01419e-11
4.01345e-11
-4.61097e-14
4.01874e-11
-4.02341e-11
4.01874e-11
-8.03691e-11
4.01348e-11
-1.20396e-10
4.00269e-11
-1.60261e-10
3.98647e-11
-1.99909e-10
3.96488e-11
-2.39289e-10
3.93797e-11
-2.78347e-10
3.90579e-11
-3.17031e-10
3.8684e-11
-3.55292e-10
3.82591e-11
-3.93077e-10
3.77842e-11
-4.30338e-10
3.72602e-11
-4.67027e-10
3.66884e-11
-5.03097e-10
3.60698e-11
-5.38503e-10
3.54054e-11
-5.732e-10
3.46966e-11
-6.07145e-10
3.39452e-11
-6.40298e-10
3.31525e-11
-6.7262e-10
3.23207e-11
-7.04071e-10
3.14511e-11
-7.34617e-10
3.05456e-11
-7.64223e-10
2.96067e-11
-7.92859e-10
2.8636e-11
-8.20494e-10
2.76351e-11
-8.471e-10
2.66062e-11
-8.72651e-10
2.55512e-11
-8.97123e-10
2.44723e-11
-9.20494e-10
2.33716e-11
-9.42743e-10
2.22503e-11
-9.63853e-10
2.11109e-11
-9.83808e-10
1.99556e-11
-1.00259e-09
1.87859e-11
-1.0202e-09
1.76033e-11
-1.03661e-09
1.64102e-11
-1.05182e-09
1.52091e-11
-1.06582e-09
1.40015e-11
-1.0786e-09
1.27888e-11
-1.09018e-09
1.15735e-11
-1.10053e-09
1.03568e-11
-1.10967e-09
9.14033e-12
-1.1176e-09
7.92548e-12
-1.12431e-09
6.71333e-12
-1.12981e-09
5.50578e-12
-1.13412e-09
4.3042e-12
-1.13723e-09
3.10943e-12
-1.13915e-09
1.9221e-12
-1.13989e-09
7.42664e-13
-1.13946e-09
-4.28177e-13
-1.13788e-09
-1.58272e-12
-1.13516e-09
-2.71891e-12
-1.13132e-09
-3.83766e-12
-1.12638e-09
-4.93855e-12
-1.12036e-09
-6.02176e-12
-1.11328e-09
-7.08696e-12
-1.10514e-09
-8.1333e-12
-1.09598e-09
-9.1608e-12
-1.08582e-09
-1.0169e-11
-1.07466e-09
-1.11572e-11
-1.06253e-09
-1.21249e-11
-1.04946e-09
-1.30714e-11
-1.03546e-09
-1.39962e-11
-1.02056e-09
-1.48985e-11
-1.00479e-09
-1.57772e-11
-9.88155e-10
-1.66324e-11
-9.70693e-10
-1.74633e-11
-9.52423e-10
-1.82694e-11
-9.33371e-10
-1.90513e-11
-9.1356e-10
-1.98099e-11
-8.93015e-10
-2.05451e-11
-8.71758e-10
-2.12567e-11
-8.49813e-10
-2.19454e-11
-8.27203e-10
-2.26116e-11
-8.03948e-10
-2.32538e-11
-7.80076e-10
-2.38712e-11
-7.55612e-10
-2.4463e-11
-7.30584e-10
-2.50287e-11
-7.05016e-10
-2.55688e-11
-6.78932e-10
-2.60852e-11
-6.52353e-10
-2.65802e-11
-6.253e-10
-2.7053e-11
-5.97793e-10
-2.75054e-11
-5.69856e-10
-2.7937e-11
-5.41512e-10
-2.83451e-11
-5.12784e-10
-2.87292e-11
-4.83699e-10
-2.90871e-11
-4.5428e-10
-2.9419e-11
-4.24552e-10
-2.97276e-11
-3.94538e-10
-3.0015e-11
-3.64255e-10
-3.02831e-11
-3.33724e-10
-3.05319e-11
-3.02963e-10
-3.07604e-11
-2.71995e-10
-3.09672e-11
-2.40844e-10
-3.11506e-11
-2.09533e-10
-3.131e-11
-1.78088e-10
-3.14448e-11
-1.46533e-10
-3.15536e-11
-1.14896e-10
-3.16338e-11
-8.32364e-11
-3.16617e-11
-5.17512e-11
-3.14928e-11
-2.16687e-11
-3.01011e-11
-2.16878e-11
3.39729e-11
-5.57639e-11
7.62007e-11
-6.83515e-11
1.18193e-10
-7.15256e-11
1.60526e-10
-7.35665e-11
2.03263e-10
-7.47475e-11
2.4625e-10
-7.51547e-11
2.89335e-10
-7.5126e-11
3.32377e-10
-7.48671e-11
3.75286e-10
-7.44804e-11
4.1799e-10
-7.40185e-11
4.60436e-10
-7.35006e-11
5.02583e-10
-7.29314e-11
5.44397e-10
-7.23135e-11
5.85843e-10
-7.16479e-11
6.2689e-10
-7.09343e-11
6.67504e-10
-7.01714e-11
7.07656e-10
-6.93583e-11
7.47313e-10
-6.84941e-11
7.86446e-10
-6.75779e-11
8.25021e-10
-6.6609e-11
8.63009e-10
-6.55865e-11
9.00377e-10
-6.45096e-11
9.37094e-10
-6.33779e-11
9.73127e-10
-6.2191e-11
1.00844e-09
-6.09487e-11
1.04301e-09
-5.96507e-11
1.0768e-09
-5.82968e-11
1.10977e-09
-5.68868e-11
1.1419e-09
-5.54204e-11
1.17314e-09
-5.38975e-11
1.20347e-09
-5.2318e-11
1.23286e-09
-5.06819e-11
1.26127e-09
-4.89891e-11
1.28866e-09
-4.72396e-11
1.31501e-09
-4.54333e-11
1.34028e-09
-4.35704e-11
1.36444e-09
-4.1651e-11
1.38745e-09
-3.96757e-11
1.40929e-09
-3.76449e-11
1.42993e-09
-3.55588e-11
1.44932e-09
-3.3418e-11
1.46744e-09
-3.12231e-11
1.48425e-09
-2.89749e-11
1.49974e-09
-2.66744e-11
1.51386e-09
-2.43228e-11
1.5266e-09
-2.19217e-11
1.53791e-09
-1.94725e-11
1.54778e-09
-1.69768e-11
1.55618e-09
-1.44363e-11
1.56307e-09
-1.18528e-11
1.56845e-09
-9.22837e-12
1.57229e-09
-6.56509e-12
1.57456e-09
-3.86515e-12
1.57526e-09
-1.13113e-12
1.57435e-09
1.635e-12
1.57183e-09
4.42864e-12
1.56768e-09
7.24758e-12
1.56188e-09
1.00887e-11
1.55442e-09
1.29492e-11
1.54529e-09
1.58258e-11
1.53448e-09
1.87153e-11
1.52199e-09
2.16141e-11
1.50781e-09
2.45182e-11
1.49194e-09
2.74238e-11
1.47439e-09
3.03268e-11
1.45515e-09
3.32231e-11
1.43424e-09
3.61085e-11
1.41166e-09
3.89784e-11
1.38743e-09
4.18283e-11
1.36155e-09
4.46537e-11
1.33405e-09
4.745e-11
1.30494e-09
5.02127e-11
1.27425e-09
5.29371e-11
1.24199e-09
5.56185e-11
1.20821e-09
5.82521e-11
1.17292e-09
6.0833e-11
1.13616e-09
6.33566e-11
1.09798e-09
6.58183e-11
1.0584e-09
6.82132e-11
1.01746e-09
7.05367e-11
9.7522e-10
7.27837e-11
9.31717e-10
7.49499e-11
8.87003e-10
7.70307e-11
8.41129e-10
7.9022e-11
7.94151e-10
8.09198e-11
7.46125e-10
8.27201e-11
6.97109e-10
8.44188e-11
6.47165e-10
8.60121e-11
5.96357e-10
8.74964e-11
5.44748e-10
8.88684e-11
4.92407e-10
9.01253e-11
4.39401e-10
9.12643e-11
3.85801e-10
9.22832e-11
3.31678e-10
9.31797e-11
2.77105e-10
9.39519e-11
2.22155e-10
9.45981e-11
1.66902e-10
9.51166e-11
1.11422e-10
9.55064e-11
5.57892e-11
9.57664e-11
8.03842e-14
9.58959e-11
-5.56284e-11
9.58963e-11
-1.11261e-10
9.57674e-11
-1.66742e-10
9.55077e-11
-2.21995e-10
9.51179e-11
-2.76946e-10
9.45991e-11
-3.31519e-10
9.39528e-11
-3.85643e-10
9.31804e-11
-4.39244e-10
9.22835e-11
-4.92252e-10
9.12644e-11
-5.44594e-10
9.01258e-11
-5.96204e-10
8.88696e-11
-6.47015e-10
8.74984e-11
-6.96961e-10
8.60151e-11
-7.45979e-10
8.44227e-11
-7.94008e-10
8.27248e-11
-8.4099e-10
8.09254e-11
-8.86865e-10
7.90279e-11
-9.31582e-10
7.70367e-11
-9.75088e-10
7.49562e-11
-1.01733e-09
7.27904e-11
-1.05827e-09
7.05439e-11
-1.09785e-09
6.82215e-11
-1.13605e-09
6.58274e-11
-1.17281e-09
6.33666e-11
-1.2081e-09
6.08438e-11
-1.24189e-09
5.82637e-11
-1.27415e-09
5.56314e-11
-1.30485e-09
5.29512e-11
-1.33396e-09
5.02276e-11
-1.36147e-09
4.74657e-11
-1.38735e-09
4.46704e-11
-1.4116e-09
4.1846e-11
-1.43418e-09
3.8997e-11
-1.4551e-09
3.61285e-11
-1.47434e-09
3.32452e-11
-1.4919e-09
3.03507e-11
-1.50778e-09
2.74494e-11
-1.52196e-09
2.45455e-11
-1.53446e-09
2.16427e-11
-1.54528e-09
1.8745e-11
-1.55442e-09
1.58557e-11
-1.56189e-09
1.29781e-11
-1.56771e-09
1.01162e-11
-1.57187e-09
7.27287e-12
-1.5744e-09
4.45134e-12
-1.57531e-09
1.65494e-12
-1.57463e-09
-1.11295e-12
-1.57236e-09
-3.84798e-12
-1.56853e-09
-6.54704e-12
-1.56316e-09
-9.20824e-12
-1.55627e-09
-1.18296e-11
-1.54789e-09
-1.44088e-11
-1.53803e-09
-1.69447e-11
-1.52673e-09
-1.94356e-11
-1.51401e-09
-2.18807e-11
-1.4999e-09
-2.42788e-11
-1.48443e-09
-2.6628e-11
-1.46762e-09
-2.89275e-11
-1.44952e-09
-3.11762e-11
-1.43014e-09
-3.33723e-11
-1.40953e-09
-3.55144e-11
-1.3877e-09
-3.76014e-11
-1.3647e-09
-3.96323e-11
-1.34056e-09
-4.16061e-11
-1.3153e-09
-4.35225e-11
-1.28897e-09
-4.53825e-11
-1.2616e-09
-4.71863e-11
-1.23321e-09
-4.89334e-11
-1.20384e-09
-5.06239e-11
-1.17353e-09
-5.22578e-11
-1.1423e-09
-5.38359e-11
-1.1102e-09
-5.53568e-11
-1.07725e-09
-5.68211e-11
-1.04349e-09
-5.82267e-11
-1.00894e-09
-5.95721e-11
-9.73655e-10
-6.08594e-11
-9.37652e-10
-6.20892e-11
-9.00965e-10
-6.32651e-11
-8.63629e-10
-6.43886e-11
-8.25675e-10
-6.54598e-11
-7.87135e-10
-6.64787e-11
-7.48041e-10
-6.7442e-11
-7.08422e-10
-6.83491e-11
-6.68311e-10
-6.9199e-11
-6.27738e-10
-6.99916e-11
-5.86735e-10
-7.07307e-11
-5.45333e-10
-7.1418e-11
-5.0356e-10
-7.20552e-11
-4.61447e-10
-7.26441e-11
-4.19023e-10
-7.31826e-11
-3.7632e-10
-7.36701e-11
-3.33367e-10
-7.41041e-11
-2.90192e-10
-7.44831e-11
-2.46827e-10
-7.48092e-11
-2.03302e-10
-7.50817e-11
-1.59639e-10
-7.52953e-11
-1.15872e-10
-7.54194e-11
-7.21593e-11
-7.51778e-11
-2.998e-11
-7.22402e-11
-5.16776e-11
3.32944e-11
-8.90559e-11
7.88659e-11
-1.13924e-10
1.24238e-10
-1.16904e-10
1.6908e-10
-1.1841e-10
2.13745e-10
-1.19411e-10
2.58376e-10
-1.19783e-10
3.02994e-10
-1.19743e-10
3.47537e-10
-1.19411e-10
3.91945e-10
-1.1889e-10
4.36162e-10
-1.18235e-10
4.80135e-10
-1.17473e-10
5.23819e-10
-1.16615e-10
5.67174e-10
-1.15668e-10
6.10162e-10
-1.14636e-10
6.52747e-10
-1.13519e-10
6.94895e-10
-1.12319e-10
7.3657e-10
-1.11034e-10
7.7774e-10
-1.09664e-10
8.18371e-10
-1.08209e-10
8.5843e-10
-1.06668e-10
8.97883e-10
-1.0504e-10
9.36697e-10
-1.03324e-10
9.74839e-10
-1.0152e-10
1.01228e-09
-9.96273e-11
1.04897e-09
-9.76453e-11
1.08489e-09
-9.55737e-11
1.12001e-09
-9.34119e-11
1.15428e-09
-9.11595e-11
1.18768e-09
-8.88163e-11
1.22016e-09
-8.63821e-11
1.2517e-09
-8.38568e-11
1.28226e-09
-8.12403e-11
1.3118e-09
-7.85324e-11
1.3403e-09
-7.57331e-11
1.36771e-09
-7.28425e-11
1.394e-09
-6.98608e-11
1.41913e-09
-6.67885e-11
1.44308e-09
-6.36263e-11
1.46581e-09
-6.03748e-11
1.48729e-09
-5.70347e-11
1.50748e-09
-5.36069e-11
1.52635e-09
-5.00924e-11
1.54386e-09
-4.64925e-11
1.56e-09
-4.2809e-11
1.57472e-09
-3.90437e-11
1.58799e-09
-3.51987e-11
1.5998e-09
-3.12764e-11
1.6101e-09
-2.72791e-11
1.61887e-09
-2.32096e-11
1.62609e-09
-1.9071e-11
1.63172e-09
-1.48665e-11
1.63576e-09
-1.05997e-11
1.63817e-09
-6.27445e-12
1.63893e-09
-1.89525e-12
1.63803e-09
2.53454e-12
1.63545e-09
7.01116e-12
1.63117e-09
1.153e-11
1.62517e-09
1.6086e-11
1.61745e-09
2.06738e-11
1.60799e-09
2.52882e-11
1.59678e-09
2.99236e-11
1.58382e-09
3.45741e-11
1.5691e-09
3.92338e-11
1.55263e-09
4.38962e-11
1.5344e-09
4.8555e-11
1.51442e-09
5.32035e-11
1.49269e-09
5.78349e-11
1.46923e-09
6.2442e-11
1.44404e-09
6.70176e-11
1.41714e-09
7.15544e-11
1.38855e-09
7.6045e-11
1.35828e-09
8.04819e-11
1.32636e-09
8.48576e-11
1.29281e-09
8.91643e-11
1.25767e-09
9.33944e-11
1.22097e-09
9.75402e-11
1.18273e-09
1.01594e-10
1.143e-09
1.05549e-10
1.10182e-09
1.09396e-10
1.05922e-09
1.13129e-10
1.01527e-09
1.16739e-10
9.69999e-10
1.20219e-10
9.23466e-10
1.23563e-10
8.75725e-10
1.26764e-10
8.26832e-10
1.29814e-10
7.76845e-10
1.32707e-10
7.25826e-10
1.35438e-10
6.73839e-10
1.37999e-10
6.2095e-10
1.40385e-10
5.67226e-10
1.42591e-10
5.12737e-10
1.44613e-10
4.57555e-10
1.46446e-10
4.01753e-10
1.48085e-10
3.45404e-10
1.49528e-10
2.88586e-10
1.50771e-10
2.31374e-10
1.51811e-10
1.73845e-10
1.52645e-10
1.16079e-10
1.53273e-10
5.8154e-11
1.53692e-10
1.49073e-13
1.53902e-10
-5.7856e-11
1.53902e-10
-1.15781e-10
1.53693e-10
-1.73548e-10
1.53274e-10
-2.31077e-10
1.52646e-10
-2.8829e-10
1.51811e-10
-3.45109e-10
1.50771e-10
-4.01458e-10
1.49529e-10
-4.57262e-10
1.48086e-10
-5.12445e-10
1.46447e-10
-5.66934e-10
1.44615e-10
-6.20659e-10
1.42594e-10
-6.7355e-10
1.40388e-10
-7.25538e-10
1.38002e-10
-7.76559e-10
1.35442e-10
-8.26548e-10
1.32712e-10
-8.75443e-10
1.2982e-10
-9.23187e-10
1.26771e-10
-9.69721e-10
1.23571e-10
-1.01499e-09
1.20228e-10
-1.05895e-09
1.16748e-10
-1.10154e-09
1.13138e-10
-1.14273e-09
1.09406e-10
-1.18246e-09
1.0556e-10
-1.2207e-09
1.01607e-10
-1.25741e-09
9.75539e-11
-1.29255e-09
9.3409e-11
-1.3261e-09
8.91801e-11
-1.35802e-09
8.48748e-11
-1.38829e-09
8.05004e-11
-1.41689e-09
7.60644e-11
-1.4438e-09
7.15749e-11
-1.46899e-09
6.70395e-11
-1.49246e-09
6.24654e-11
-1.51419e-09
5.78598e-11
-1.53417e-09
5.32304e-11
-1.5524e-09
4.85837e-11
-1.56888e-09
4.39264e-11
-1.5836e-09
3.92653e-11
-1.59656e-09
3.46064e-11
-1.60777e-09
2.99565e-11
-1.61724e-09
2.53214e-11
-1.62496e-09
2.07064e-11
-1.63097e-09
1.61173e-11
-1.63525e-09
1.15596e-11
-1.63784e-09
7.03867e-12
-1.63874e-09
2.55988e-12
-1.63799e-09
-1.87174e-12
-1.63558e-09
-6.25156e-12
-1.63156e-09
-1.0576e-11
-1.62592e-09
-1.48407e-11
-1.61871e-09
-1.90423e-11
-1.60994e-09
-2.3177e-11
-1.59965e-09
-2.72423e-11
-1.58785e-09
-3.12354e-11
-1.57457e-09
-3.51541e-11
-1.55986e-09
-3.89963e-11
-1.54373e-09
-4.27597e-11
-1.52621e-09
-4.64423e-11
-1.50734e-09
-5.0042e-11
-1.48716e-09
-5.35567e-11
-1.46569e-09
-5.69848e-11
-1.44296e-09
-6.03256e-11
-1.41902e-09
-6.35768e-11
-1.39389e-09
-6.67376e-11
-1.3676e-09
-6.98076e-11
-1.3402e-09
-7.2787e-11
-1.31171e-09
-7.56752e-11
-1.28217e-09
-7.84719e-11
-1.25161e-09
-8.11776e-11
-1.22008e-09
-8.37919e-11
-1.1876e-09
-8.63148e-11
-1.15421e-09
-8.87473e-11
-1.11994e-09
-9.10884e-11
-1.08483e-09
-9.33368e-11
-1.04891e-09
-9.5492e-11
-1.01221e-09
-9.75546e-11
-9.74777e-10
-9.9527e-11
-9.3663e-10
-1.0141e-10
-8.9781e-10
-1.03208e-10
-8.58352e-10
-1.0492e-10
-8.18287e-10
-1.06544e-10
-7.77648e-10
-1.08082e-10
-7.36467e-10
-1.0953e-10
-6.94774e-10
-1.10889e-10
-6.52603e-10
-1.12163e-10
-6.09985e-10
-1.1335e-10
-5.66951e-10
-1.14453e-10
-5.23533e-10
-1.15474e-10
-4.79762e-10
-1.16413e-10
-4.35672e-10
-1.17272e-10
-3.91294e-10
-1.18048e-10
-3.46657e-10
-1.18741e-10
-3.0179e-10
-1.19349e-10
-2.5672e-10
-1.19877e-10
-2.11478e-10
-1.20325e-10
-1.66095e-10
-1.20688e-10
-1.20609e-10
-1.20923e-10
-7.52035e-11
-1.20597e-10
-3.14189e-11
-1.1601e-10
-8.31017e-11
3.19361e-11
-1.20991e-10
7.74159e-11
-1.59398e-10
1.23789e-10
-1.63279e-10
1.69546e-10
-1.6417e-10
2.14891e-10
-1.64756e-10
2.60042e-10
-1.64932e-10
3.05048e-10
-1.64746e-10
3.49905e-10
-1.64267e-10
3.94589e-10
-1.63574e-10
4.39061e-10
-1.62707e-10
4.8328e-10
-1.61691e-10
5.27207e-10
-1.60541e-10
5.70803e-10
-1.59264e-10
6.14031e-10
-1.57864e-10
6.56857e-10
-1.56345e-10
6.99245e-10
-1.54707e-10
7.41161e-10
-1.5295e-10
7.82572e-10
-1.51075e-10
8.23443e-10
-1.49081e-10
8.63742e-10
-1.46967e-10
9.03434e-10
-1.44732e-10
9.42486e-10
-1.42376e-10
9.80865e-10
-1.39899e-10
1.01854e-09
-1.37299e-10
1.05547e-09
-1.34575e-10
1.09162e-09
-1.31728e-10
1.12696e-09
-1.28756e-10
1.16146e-09
-1.25658e-10
1.19508e-09
-1.22436e-10
1.22779e-09
-1.19087e-10
1.25954e-09
-1.15613e-10
1.29032e-09
-1.12013e-10
1.32007e-09
-1.08286e-10
1.34877e-09
-1.04433e-10
1.37638e-09
-1.00453e-10
1.40287e-09
-9.63482e-11
1.4282e-09
-9.21181e-11
1.45233e-09
-8.77638e-11
1.47524e-09
-8.32861e-11
1.49689e-09
-7.8686e-11
1.51725e-09
-7.39648e-11
1.53628e-09
-6.91241e-11
1.55396e-09
-6.41657e-11
1.57024e-09
-5.9092e-11
1.5851e-09
-5.39054e-11
1.59851e-09
-4.86086e-11
1.61044e-09
-4.32048e-11
1.62085e-09
-3.76974e-11
1.62973e-09
-3.20901e-11
1.63705e-09
-2.63871e-11
1.64277e-09
-2.0593e-11
1.64689e-09
-1.47125e-11
1.64936e-09
-8.7508e-12
1.65018e-09
-2.71389e-12
1.64932e-09
3.39398e-12
1.64677e-09
9.56688e-12
1.6425e-09
1.57982e-11
1.6365e-09
2.20812e-11
1.62877e-09
2.84088e-11
1.61928e-09
3.47736e-11
1.60804e-09
4.1168e-11
1.59503e-09
4.75837e-11
1.58025e-09
5.40123e-11
1.5637e-09
6.04454e-11
1.54538e-09
6.68738e-11
1.52529e-09
7.32886e-11
1.50345e-09
7.96802e-11
1.47985e-09
8.60387e-11
1.45452e-09
9.23543e-11
1.42745e-09
9.86167e-11
1.39868e-09
1.04816e-10
1.36823e-09
1.10941e-10
1.3361e-09
1.16982e-10
1.30234e-09
1.22928e-10
1.26697e-09
1.28769e-10
1.23001e-09
1.34493e-10
1.19152e-09
1.40091e-10
1.15152e-09
1.45552e-10
1.11005e-09
1.50865e-10
1.06716e-09
1.56019e-10
1.02289e-09
1.61005e-10
9.77298e-10
1.65812e-10
9.30431e-10
1.70431e-10
8.82344e-10
1.74851e-10
8.33094e-10
1.79065e-10
7.8274e-10
1.83061e-10
7.31344e-10
1.86832e-10
6.78971e-10
1.90371e-10
6.25687e-10
1.93668e-10
5.7156e-10
1.96717e-10
5.16661e-10
1.99511e-10
4.61062e-10
2.02044e-10
4.04837e-10
2.04311e-10
3.4806e-10
2.06305e-10
2.90809e-10
2.08023e-10
2.3316e-10
2.09461e-10
1.75192e-10
2.10615e-10
1.16984e-10
2.11482e-10
5.8615e-11
2.12062e-10
1.66067e-13
2.12351e-10
-5.82832e-11
2.12351e-10
-1.16653e-10
2.12061e-10
-1.74862e-10
2.11481e-10
-2.32831e-10
2.10614e-10
-2.9048e-10
2.0946e-10
-3.47732e-10
2.08024e-10
-4.04509e-10
2.06306e-10
-4.60735e-10
2.04313e-10
-5.16335e-10
2.02047e-10
-5.71234e-10
1.99514e-10
-6.25362e-10
1.9672e-10
-6.78647e-10
1.93671e-10
-7.31021e-10
1.90374e-10
-7.82418e-10
1.86837e-10
-8.32774e-10
1.83067e-10
-8.82026e-10
1.79072e-10
-9.30115e-10
1.7486e-10
-9.76984e-10
1.7044e-10
-1.02258e-09
1.65822e-10
-1.06685e-09
1.61016e-10
-1.10974e-09
1.56031e-10
-1.15121e-09
1.50877e-10
-1.19121e-09
1.45565e-10
-1.22971e-09
1.40106e-10
-1.26667e-09
1.34509e-10
-1.30204e-09
1.28786e-10
-1.33581e-09
1.22946e-10
-1.36793e-09
1.17002e-10
-1.39839e-09
1.10962e-10
-1.42716e-09
1.04838e-10
-1.45423e-09
9.864e-11
-1.47957e-09
9.23791e-11
-1.50317e-09
8.60655e-11
-1.52502e-09
7.97086e-11
-1.5451e-09
7.33188e-11
-1.56342e-09
6.69056e-11
-1.57998e-09
6.04783e-11
-1.59476e-09
5.40464e-11
-1.60777e-09
4.76183e-11
-1.61902e-09
4.12031e-11
-1.6285e-09
3.48091e-11
-1.63624e-09
2.8444e-11
-1.64224e-09
2.21154e-11
-1.64651e-09
1.58309e-11
-1.64907e-09
9.59785e-12
-1.64993e-09
3.42336e-12
-1.64912e-09
-2.6858e-12
-1.64665e-09
-8.72307e-12
-1.64254e-09
-1.46841e-11
-1.63682e-09
-2.05626e-11
-1.62951e-09
-2.63541e-11
-1.62063e-09
-3.20538e-11
-1.61022e-09
-3.76578e-11
-1.59829e-09
-4.31622e-11
-1.58488e-09
-4.8563e-11
-1.57002e-09
-5.3857e-11
-1.55374e-09
-5.90418e-11
-1.53607e-09
-6.41145e-11
-1.51703e-09
-6.90719e-11
-1.49668e-09
-7.3912e-11
-1.47503e-09
-7.86332e-11
-1.45212e-09
-8.32337e-11
-1.42798e-09
-8.77113e-11
-1.40266e-09
-9.20648e-11
-1.37617e-09
-9.62932e-11
-1.34856e-09
-1.00396e-10
-1.31986e-09
-1.04373e-10
-1.29011e-09
-1.08224e-10
-1.25934e-09
-1.11948e-10
-1.22758e-09
-1.15547e-10
-1.19488e-09
-1.1902e-10
-1.16126e-09
-1.22367e-10
-1.12676e-09
-1.25588e-10
-1.09141e-09
-1.28681e-10
-1.05526e-09
-1.31649e-10
-1.01832e-09
-1.34489e-10
-9.80641e-10
-1.37206e-10
-9.42252e-10
-1.39801e-10
-9.03186e-10
-1.42274e-10
-8.63479e-10
-1.44628e-10
-8.23163e-10
-1.46861e-10
-7.8227e-10
-1.48973e-10
-7.40834e-10
-1.50965e-10
-6.98887e-10
-1.52837e-10
-6.56461e-10
-1.5459e-10
-6.13586e-10
-1.56226e-10
-5.70295e-10
-1.57745e-10
-5.26618e-10
-1.5915e-10
-4.82589e-10
-1.60442e-10
-4.38239e-10
-1.61622e-10
-3.93599e-10
-1.62689e-10
-3.487e-10
-1.63641e-10
-3.03569e-10
-1.64479e-10
-2.58235e-10
-1.65206e-10
-2.12727e-10
-1.65826e-10
-1.67078e-10
-1.66331e-10
-1.21332e-10
-1.66667e-10
-7.56932e-11
-1.66247e-10
-3.17056e-11
-1.59992e-10
-1.14808e-10
3.14478e-11
-1.52442e-10
7.6402e-11
-2.04347e-10
1.22917e-10
-2.0979e-10
1.69108e-10
-2.10361e-10
2.14894e-10
-2.10542e-10
2.60399e-10
-2.10437e-10
3.05681e-10
-2.10027e-10
3.50766e-10
-2.09351e-10
3.9564e-10
-2.08448e-10
4.40279e-10
-2.07345e-10
4.8465e-10
-2.06062e-10
5.2872e-10
-2.0461e-10
5.72454e-10
-2.02997e-10
6.15818e-10
-2.01227e-10
6.58777e-10
-1.99304e-10
7.01297e-10
-1.97228e-10
7.43346e-10
-1.94999e-10
7.8489e-10
-1.92619e-10
8.25896e-10
-1.90086e-10
8.66328e-10
-1.87399e-10
9.06156e-10
-1.84559e-10
9.45343e-10
-1.81564e-10
9.83857e-10
-1.78414e-10
1.02166e-09
-1.75106e-10
1.05873e-09
-1.71642e-10
1.09502e-09
-1.68019e-10
1.1305e-09
-1.64237e-10
1.16514e-09
-1.60295e-10
1.1989e-09
-1.56193e-10
1.23174e-09
-1.51931e-10
1.26364e-09
-1.47507e-10
1.29455e-09
-1.42922e-10
1.32444e-09
-1.38176e-10
1.35327e-09
-1.33268e-10
1.38102e-09
-1.282e-10
1.40764e-09
-1.22971e-10
1.4331e-09
-1.17582e-10
1.45737e-09
-1.12034e-10
1.48041e-09
-1.06328e-10
1.50219e-09
-1.00466e-10
1.52268e-09
-9.44498e-11
1.54184e-09
-8.82805e-11
1.55963e-09
-8.1961e-11
1.57603e-09
-7.54941e-11
1.59101e-09
-6.88828e-11
1.60453e-09
-6.21306e-11
1.61657e-09
-5.52414e-11
1.62709e-09
-4.82196e-11
1.63607e-09
-4.10701e-11
1.64348e-09
-3.3798e-11
1.64929e-09
-2.64089e-11
1.65349e-09
-1.8909e-11
1.65604e-09
-1.13045e-11
1.65693e-09
-3.60302e-12
1.65613e-09
4.19027e-12
1.65363e-09
1.20668e-11
1.64941e-09
2.00181e-11
1.64346e-09
2.80361e-11
1.63575e-09
3.61116e-11
1.62629e-09
4.42353e-11
1.61506e-09
5.23973e-11
1.60206e-09
6.05871e-11
1.58728e-09
6.87942e-11
1.57071e-09
7.70074e-11
1.55237e-09
8.52155e-11
1.53225e-09
9.34066e-11
1.51036e-09
1.01569e-10
1.48671e-09
1.09689e-10
1.46131e-09
1.17755e-10
1.43418e-09
1.25754e-10
1.40532e-09
1.33672e-10
1.37476e-09
1.41497e-10
1.34253e-09
1.49214e-10
1.30865e-09
1.56811e-10
1.27315e-09
1.64273e-10
1.23605e-09
1.71587e-10
1.19741e-09
1.7874e-10
1.15724e-09
1.85718e-10
1.1156e-09
1.92507e-10
1.07252e-09
1.99094e-10
1.02806e-09
2.05466e-10
9.82263e-10
2.11611e-10
9.35181e-10
2.17514e-10
8.86869e-10
2.23164e-10
8.37385e-10
2.28549e-10
7.86787e-10
2.33658e-10
7.35139e-10
2.38479e-10
6.82506e-10
2.43003e-10
6.28955e-10
2.47219e-10
5.74554e-10
2.51118e-10
5.19375e-10
2.54691e-10
4.63489e-10
2.5793e-10
4.06973e-10
2.60828e-10
3.499e-10
2.63378e-10
2.92349e-10
2.65575e-10
2.34396e-10
2.67414e-10
1.76122e-10
2.6889e-10
1.17606e-10
2.69999e-10
5.89279e-11
2.7074e-10
1.68699e-13
2.7111e-10
-5.85909e-11
2.7111e-10
-1.1727e-10
2.70739e-10
-1.75787e-10
2.69998e-10
-2.34061e-10
2.68888e-10
-2.92014e-10
2.67414e-10
-3.49566e-10
2.65576e-10
-4.06639e-10
2.6338e-10
-4.63157e-10
2.6083e-10
-5.19043e-10
2.57932e-10
-5.74223e-10
2.54693e-10
-6.28624e-10
2.5112e-10
-6.82176e-10
2.47222e-10
-7.3481e-10
2.43007e-10
-7.86458e-10
2.38486e-10
-8.37057e-10
2.33666e-10
-8.86543e-10
2.28558e-10
-9.34858e-10
2.23174e-10
-9.81942e-10
2.17525e-10
-1.02774e-09
2.11622e-10
-1.0722e-09
2.05479e-10
-1.11528e-09
1.99108e-10
-1.15693e-09
1.92522e-10
-1.19709e-09
1.85734e-10
-1.23574e-09
1.78757e-10
-1.27284e-09
1.71606e-10
-1.30835e-09
1.64293e-10
-1.34223e-09
1.56832e-10
-1.37446e-09
1.49237e-10
-1.40502e-09
1.4152e-10
-1.43388e-09
1.33697e-10
-1.46102e-09
1.2578e-10
-1.48642e-09
1.17783e-10
-1.51008e-09
1.09719e-10
-1.53197e-09
1.016e-10
-1.55209e-09
9.34394e-11
-1.57043e-09
8.52499e-11
-1.58699e-09
7.70429e-11
-1.60178e-09
6.88306e-11
-1.61478e-09
6.06244e-11
-1.62602e-09
5.24349e-11
-1.63548e-09
4.42732e-11
-1.64319e-09
3.61494e-11
-1.64914e-09
2.80731e-11
-1.65337e-09
2.00538e-11
-1.65587e-09
1.21011e-11
-1.65667e-09
4.22368e-12
-1.65579e-09
-3.5698e-12
-1.65324e-09
-1.12716e-11
-1.64905e-09
-1.88755e-11
-1.64323e-09
-2.6374e-11
-1.63583e-09
-3.3761e-11
-1.62685e-09
-4.10306e-11
-1.61633e-09
-4.81777e-11
-1.6043e-09
-5.5197e-11
-1.59078e-09
-6.20832e-11
-1.5758e-09
-6.88328e-11
-1.5594e-09
-7.54421e-11
-1.5416e-09
-8.19079e-11
-1.52245e-09
-8.82265e-11
-1.50196e-09
-9.43952e-11
-1.48019e-09
-1.00412e-10
-1.45715e-09
-1.06274e-10
-1.43288e-09
-1.11979e-10
-1.40742e-09
-1.17527e-10
-1.3808e-09
-1.22914e-10
-1.35305e-09
-1.28141e-10
-1.32421e-09
-1.33207e-10
-1.29432e-09
-1.38114e-10
-1.26341e-09
-1.42859e-10
-1.23152e-09
-1.47442e-10
-1.19867e-09
-1.51865e-10
-1.16491e-09
-1.56125e-10
-1.13027e-09
-1.60226e-10
-1.09479e-09
-1.64165e-10
-1.0585e-09
-1.67944e-10
-1.02142e-09
-1.71562e-10
-9.83605e-10
-1.75022e-10
-9.45079e-10
-1.78327e-10
-9.05878e-10
-1.81476e-10
-8.66034e-10
-1.84471e-10
-8.25582e-10
-1.87313e-10
-7.84555e-10
-1.9e-10
-7.42984e-10
-1.92535e-10
-7.00905e-10
-1.94918e-10
-6.58346e-10
-1.9715e-10
-6.1534e-10
-1.99232e-10
-5.71918e-10
-2.01167e-10
-5.28111e-10
-2.02955e-10
-4.83951e-10
-2.046e-10
-4.39472e-10
-2.06102e-10
-3.94701e-10
-2.07459e-10
-3.4967e-10
-2.08672e-10
-3.0441e-10
-2.09743e-10
-2.58949e-10
-2.10671e-10
-2.13316e-10
-2.11459e-10
-1.67545e-10
-2.121e-10
-1.21679e-10
-2.12528e-10
-7.59275e-11
-2.12003e-10
-3.18404e-11
-2.04077e-10
-1.46646e-10
3.13638e-11
-1.83809e-10
7.606e-11
-2.49043e-10
1.22574e-10
-2.563e-10
1.68968e-10
-2.56752e-10
2.15033e-10
-2.56606e-10
2.60811e-10
-2.56215e-10
3.06349e-10
-2.55565e-10
3.51661e-10
-2.54663e-10
3.9674e-10
-2.53526e-10
4.41565e-10
-2.5217e-10
4.8611e-10
-2.50607e-10
5.30345e-10
-2.48845e-10
5.74239e-10
-2.46891e-10
6.17759e-10
-2.44747e-10
6.60873e-10
-2.42418e-10
7.03548e-10
-2.39902e-10
7.45751e-10
-2.37202e-10
7.87449e-10
-2.34316e-10
8.28609e-10
-2.31245e-10
8.69197e-10
-2.27987e-10
9.0918e-10
-2.24542e-10
9.48525e-10
-2.20909e-10
9.87197e-10
-2.17086e-10
1.02516e-09
-2.13072e-10
1.06239e-09
-2.08867e-10
1.09884e-09
-2.04469e-10
1.13448e-09
-1.99878e-10
1.16928e-09
-1.95093e-10
1.2032e-09
-1.90112e-10
1.2362e-09
-1.84935e-10
1.26826e-09
-1.79563e-10
1.29933e-09
-1.73994e-10
1.32938e-09
-1.68228e-10
1.35838e-09
-1.62266e-10
1.38629e-09
-1.56108e-10
1.41307e-09
-1.49754e-10
1.4387e-09
-1.43205e-10
1.46312e-09
-1.36463e-10
1.48632e-09
-1.29528e-10
1.50826e-09
-1.22402e-10
1.5289e-09
-1.15088e-10
1.5482e-09
-1.07588e-10
1.56615e-09
-9.99042e-11
1.58269e-09
-9.20408e-11
1.59781e-09
-8.40013e-11
1.61147e-09
-7.57897e-11
1.62364e-09
-6.74109e-11
1.63429e-09
-5.88702e-11
1.64339e-09
-5.01733e-11
1.65091e-09
-4.13266e-11
1.65684e-09
-3.23365e-11
1.66114e-09
-2.32105e-11
1.66379e-09
-1.39562e-11
1.66477e-09
-4.58243e-12
1.66406e-09
4.90381e-12
1.66163e-09
1.44921e-11
1.65748e-09
2.41723e-11
1.65158e-09
3.39343e-11
1.64393e-09
4.37674e-11
1.6345e-09
5.36599e-11
1.6233e-09
6.35997e-11
1.61031e-09
7.35744e-11
1.59553e-09
8.35709e-11
1.57896e-09
9.35758e-11
1.5606e-09
1.03575e-10
1.54045e-09
1.13555e-10
1.51852e-09
1.235e-10
1.49482e-09
1.33395e-10
1.46935e-09
1.43224e-10
1.44213e-09
1.52972e-10
1.41318e-09
1.62623e-10
1.38252e-09
1.72161e-10
1.35016e-09
1.81568e-10
1.31615e-09
1.90829e-10
1.28049e-09
1.99927e-10
1.24324e-09
2.08844e-10
1.20441e-09
2.17566e-10
1.16406e-09
2.26074e-10
1.12221e-09
2.34353e-10
1.07892e-09
2.42386e-10
1.03423e-09
2.50158e-10
9.88189e-10
2.57651e-10
9.40852e-10
2.64851e-10
8.92273e-10
2.71743e-10
8.42511e-10
2.78312e-10
7.91625e-10
2.84544e-10
7.39678e-10
2.90426e-10
6.86736e-10
2.95945e-10
6.32867e-10
3.01089e-10
5.78139e-10
3.05846e-10
5.22624e-10
3.10205e-10
4.66397e-10
3.14157e-10
4.09532e-10
3.17693e-10
3.52105e-10
3.20805e-10
2.94194e-10
3.23487e-10
2.35878e-10
3.2573e-10
1.77236e-10
3.27531e-10
1.1835e-10
3.28885e-10
5.93001e-11
3.29789e-10
1.68697e-13
3.30241e-10
-5.89629e-11
3.30241e-10
-1.18013e-10
3.29788e-10
-1.76899e-10
3.28884e-10
-2.3554e-10
3.27531e-10
-2.93857e-10
3.25731e-10
-3.51769e-10
3.23488e-10
-4.09197e-10
3.20807e-10
-4.66064e-10
3.17695e-10
-5.22292e-10
3.14159e-10
-5.77807e-10
3.10207e-10
-6.32535e-10
3.05849e-10
-6.86405e-10
3.01093e-10
-7.39347e-10
2.95951e-10
-7.91294e-10
2.90434e-10
-8.42182e-10
2.84553e-10
-8.91946e-10
2.78322e-10
-9.40527e-10
2.71754e-10
-9.87866e-10
2.64863e-10
-1.03391e-09
2.57664e-10
-1.0786e-09
2.50172e-10
-1.12189e-09
2.42402e-10
-1.16374e-09
2.3437e-10
-1.2041e-09
2.26092e-10
-1.24292e-09
2.17585e-10
-1.28018e-09
2.08865e-10
-1.31584e-09
1.99949e-10
-1.34986e-09
1.90853e-10
-1.38221e-09
1.81593e-10
-1.41288e-09
1.72187e-10
-1.44183e-09
1.62651e-10
-1.46905e-09
1.53001e-10
-1.49452e-09
1.43254e-10
-1.51823e-09
1.33426e-10
-1.54017e-09
1.23533e-10
-1.56032e-09
1.1359e-10
-1.57868e-09
1.03612e-10
-1.59525e-09
9.36141e-11
-1.61003e-09
8.361e-11
-1.62302e-09
7.36142e-11
-1.63422e-09
6.36398e-11
-1.64365e-09
5.37001e-11
-1.65131e-09
4.38075e-11
-1.65721e-09
3.39742e-11
-1.66137e-09
2.42114e-11
-1.6638e-09
1.45304e-11
-1.66451e-09
4.94186e-12
-1.66354e-09
-4.54398e-12
-1.66089e-09
-1.39179e-11
-1.65659e-09
-2.31718e-11
-1.65067e-09
-3.2297e-11
-1.64315e-09
-4.12855e-11
-1.63405e-09
-5.01305e-11
-1.6234e-09
-5.88251e-11
-1.61123e-09
-6.73634e-11
-1.59757e-09
-7.57393e-11
-1.58246e-09
-8.39486e-11
-1.56591e-09
-9.19866e-11
-1.54797e-09
-9.98491e-11
-1.52866e-09
-1.07532e-10
-1.50803e-09
-1.15032e-10
-1.48609e-09
-1.22346e-10
-1.46289e-09
-1.29471e-10
-1.43847e-09
-1.36406e-10
-1.41285e-09
-1.43148e-10
-1.38606e-09
-1.49696e-10
-1.35816e-09
-1.56048e-10
-1.32916e-09
-1.62206e-10
-1.29911e-09
-1.68167e-10
-1.26803e-09
-1.73932e-10
-1.23598e-09
-1.795e-10
-1.20297e-09
-1.84871e-10
-1.16905e-09
-1.90046e-10
-1.13425e-09
-1.95025e-10
-1.0986e-09
-1.9981e-10
-1.06215e-09
-2.04399e-10