/*--------------------------------*- C++ -*----------------------------------*\
| =========                 |                                                 |
| \\      /  F ield         | OpenFOAM: The Open Source CFD Toolbox           |
|  \\    /   O peration     | Version:  2412                                  |
|   \\  /    A nd           | Website:  www.openfoam.com                      |
|    \\/     M anipulation  |                                                 |
\*---------------------------------------------------------------------------*/
FoamFile
{
    version     2.0;
    format      ascii;
    arch        "LSB;label=32;scalar=64";
    class       volVectorField;
    location    "1.11";
    object      U;
}
// * * * * * * * * * * * * * * * * * * * * * * * * * * * * * * * * * * * * * //

dimensions      [0 1 -1 0 0 0 0];

internalField   nonuniform List<vector> 
40000
(
(1.04989e-05 -7.84929e-06 0)
(3.45063e-05 -8.05131e-06 0)
(6.26688e-05 -1.061e-05 0)
(9.25674e-05 -1.17981e-05 0)
(0.000124607 -1.21666e-05 0)
(0.000156774 -1.22541e-05 0)
(0.000188898 -1.21813e-05 0)
(0.000220831 -1.20781e-05 0)
(0.000252529 -1.19632e-05 0)
(0.000283983 -1.1855e-05 0)
(0.000315172 -1.17516e-05 0)
(0.000346092 -1.16454e-05 0)
(0.000376737 -1.15359e-05 0)
(0.000407091 -1.14224e-05 0)
(0.00043714 -1.13037e-05 0)
(0.000466866 -1.11785e-05 0)
(0.00049625 -1.10456e-05 0)
(0.000525275 -1.0905e-05 0)
(0.000553918 -1.07566e-05 0)
(0.000582159 -1.06002e-05 0)
(0.000609976 -1.04355e-05 0)
(0.000637348 -1.02621e-05 0)
(0.000664251 -1.008e-05 0)
(0.000690663 -9.88904e-06 0)
(0.000716561 -9.68912e-06 0)
(0.000741921 -9.48033e-06 0)
(0.000766721 -9.26274e-06 0)
(0.000790936 -9.03636e-06 0)
(0.000814543 -8.80117e-06 0)
(0.00083752 -8.55709e-06 0)
(0.000859842 -8.3041e-06 0)
(0.000881487 -8.04219e-06 0)
(0.000902429 -7.77137e-06 0)
(0.000922645 -7.49165e-06 0)
(0.000942113 -7.20305e-06 0)
(0.000960808 -6.90561e-06 0)
(0.000978706 -6.59932e-06 0)
(0.000995785 -6.2842e-06 0)
(0.00101202 -5.96031e-06 0)
(0.00102739 -5.6277e-06 0)
(0.00104187 -5.2864e-06 0)
(0.00105544 -4.93651e-06 0)
(0.00106807 -4.57814e-06 0)
(0.00107974 -4.21145e-06 0)
(0.00109044 -3.83667e-06 0)
(0.00110013 -3.45407e-06 0)
(0.00110881 -3.06394e-06 0)
(0.00111644 -2.66652e-06 0)
(0.00112302 -2.26212e-06 0)
(0.00112851 -1.85103e-06 0)
(0.00113291 -1.43354e-06 0)
(0.0011362 -1.00982e-06 0)
(0.00113837 -5.79679e-07 0)
(0.00113939 -1.42504e-07 0)
(0.00113924 3.00388e-07 0)
(0.00113792 7.46712e-07 0)
(0.00113542 1.19528e-06 0)
(0.00113173 1.64642e-06 0)
(0.00112685 2.10018e-06 0)
(0.00112076 2.55626e-06 0)
(0.00111346 3.01426e-06 0)
(0.00110495 3.47365e-06 0)
(0.00109521 3.93381e-06 0)
(0.00108427 4.39406e-06 0)
(0.0010721 4.85375e-06 0)
(0.00105872 5.31224e-06 0)
(0.00104412 5.76885e-06 0)
(0.00102832 6.22287e-06 0)
(0.00101132 6.67356e-06 0)
(0.000993139 7.12016e-06 0)
(0.000973776 7.56193e-06 0)
(0.000953249 7.99822e-06 0)
(0.000931575 8.42839e-06 0)
(0.00090877 8.85178e-06 0)
(0.000884854 9.26763e-06 0)
(0.000859847 9.67517e-06 0)
(0.000833771 1.00736e-05 0)
(0.000806653 1.04622e-05 0)
(0.000778519 1.08404e-05 0)
(0.000749399 1.12073e-05 0)
(0.000719323 1.15623e-05 0)
(0.000688324 1.19045e-05 0)
(0.000656437 1.22333e-05 0)
(0.000623699 1.25479e-05 0)
(0.000590148 1.28477e-05 0)
(0.000555825 1.31323e-05 0)
(0.000520772 1.34009e-05 0)
(0.000485032 1.36528e-05 0)
(0.000448649 1.38876e-05 0)
(0.00041167 1.41046e-05 0)
(0.000374143 1.43035e-05 0)
(0.000336116 1.44837e-05 0)
(0.000297638 1.46449e-05 0)
(0.000258761 1.47868e-05 0)
(0.000219537 1.49091e-05 0)
(0.000180017 1.50118e-05 0)
(0.000140255 1.50946e-05 0)
(0.000100304 1.51573e-05 0)
(6.02172e-05 1.51995e-05 0)
(2.0051e-05 1.52206e-05 0)
(-2.01432e-05 1.52205e-05 0)
(-6.03094e-05 1.51993e-05 0)
(-0.000100396 1.51571e-05 0)
(-0.000140348 1.50944e-05 0)
(-0.000180111 1.50116e-05 0)
(-0.000219631 1.49087e-05 0)
(-0.000258855 1.4786e-05 0)
(-0.000297733 1.46437e-05 0)
(-0.000336211 1.44822e-05 0)
(-0.00037424 1.43019e-05 0)
(-0.000411768 1.41031e-05 0)
(-0.000448749 1.38865e-05 0)
(-0.000485134 1.36523e-05 0)
(-0.000520877 1.34008e-05 0)
(-0.000555933 1.31326e-05 0)
(-0.000590259 1.28484e-05 0)
(-0.000623813 1.25488e-05 0)
(-0.000656555 1.22344e-05 0)
(-0.000688445 1.19057e-05 0)
(-0.000719448 1.15635e-05 0)
(-0.000749528 1.12088e-05 0)
(-0.000778653 1.08421e-05 0)
(-0.000806792 1.0464e-05 0)
(-0.000833916 1.00753e-05 0)
(-0.000859998 9.67691e-06 0)
(-0.000885012 9.26954e-06 0)
(-0.000908936 8.85396e-06 0)
(-0.000931749 8.4306e-06 0)
(-0.00095343 8.00037e-06 0)
(-0.000973965 7.56422e-06 0)
(-0.000993336 7.12256e-06 0)
(-0.00101153 6.67598e-06 0)
(-0.00102854 6.22536e-06 0)
(-0.00104435 5.77175e-06 0)
(-0.00105896 5.31562e-06 0)
(-0.00107235 4.85753e-06 0)
(-0.00108453 4.39846e-06 0)
(-0.0010955 3.93888e-06 0)
(-0.00110524 3.47938e-06 0)
(-0.00111377 3.02052e-06 0)
(-0.00112109 2.56262e-06 0)
(-0.0011272 2.10646e-06 0)
(-0.0011321 1.65248e-06 0)
(-0.00113581 1.20083e-06 0)
(-0.00113832 7.51434e-07 0)
(-0.00113966 3.04132e-07 0)
(-0.00113981 -1.39821e-07 0)
(-0.0011388 -5.77786e-07 0)
(-0.00113665 -1.00816e-06 0)
(-0.00113337 -1.43168e-06 0)
(-0.00112898 -1.84834e-06 0)
(-0.0011235 -2.25827e-06 0)
(-0.00111694 -2.66133e-06 0)
(-0.00110933 -3.05717e-06 0)
(-0.00110068 -3.4459e-06 0)
(-0.00109101 -3.8274e-06 0)
(-0.00108035 -4.20138e-06 0)
(-0.0010687 -4.56767e-06 0)
(-0.0010561 -4.92604e-06 0)
(-0.00104257 -5.27631e-06 0)
(-0.00102812 -5.6183e-06 0)
(-0.00101277 -5.95152e-06 0)
(-0.000996567 -6.27591e-06 0)
(-0.000979517 -6.59115e-06 0)
(-0.000961648 -6.89699e-06 0)
(-0.000942985 -7.19376e-06 0)
(-0.00092355 -7.48177e-06 0)
(-0.000903369 -7.76087e-06 0)
(-0.000882465 -8.03086e-06 0)
(-0.000860861 -8.29218e-06 0)
(-0.00083858 -8.54535e-06 0)
(-0.000815644 -8.78975e-06 0)
(-0.000792078 -9.02497e-06 0)
(-0.000767908 -9.25037e-06 0)
(-0.000743161 -9.46562e-06 0)
(-0.000717861 -9.67087e-06 0)
(-0.000692032 -9.86706e-06 0)
(-0.000665696 -1.00553e-05 0)
(-0.000638876 -1.02351e-05 0)
(-0.000611592 -1.04076e-05 0)
(-0.000583868 -1.05727e-05 0)
(-0.000555725 -1.07293e-05 0)
(-0.000527188 -1.08771e-05 0)
(-0.000498281 -1.10146e-05 0)
(-0.000469026 -1.11413e-05 0)
(-0.00043945 -1.12582e-05 0)
(-0.000409576 -1.13665e-05 0)
(-0.000379423 -1.14675e-05 0)
(-0.000349013 -1.15617e-05 0)
(-0.000318364 -1.16491e-05 0)
(-0.000287498 -1.17287e-05 0)
(-0.000256438 -1.17994e-05 0)
(-0.000225204 -1.18606e-05 0)
(-0.000193823 -1.19121e-05 0)
(-0.000162321 -1.19534e-05 0)
(-0.000130722 -1.19826e-05 0)
(-9.90446e-05 -1.19893e-05 0)
(-6.73704e-05 -1.19411e-05 0)
(-3.65505e-05 -1.15332e-05 0)
(-9.12143e-06 -9.13366e-06 0)
(1.50735e-05 -3.85985e-05 0)
(5.57064e-05 -4.66305e-05 0)
(9.75117e-05 -5.06481e-05 0)
(0.000139042 -5.29008e-05 0)
(0.000181676 -5.4035e-05 0)
(0.000224598 -5.42729e-05 0)
(0.000267691 -5.41067e-05 0)
(0.000310795 -5.37882e-05 0)
(0.000353799 -5.34e-05 0)
(0.000396628 -5.29885e-05 0)
(0.000439218 -5.25599e-05 0)
(0.000481527 -5.21088e-05 0)
(0.000523518 -5.16345e-05 0)
(0.000565156 -5.11345e-05 0)
(0.00060641 -5.06063e-05 0)
(0.000647246 -5.00472e-05 0)
(0.000687635 -4.94549e-05 0)
(0.000727545 -4.88283e-05 0)
(0.000766946 -4.81665e-05 0)
(0.000805805 -4.74685e-05 0)
(0.000844091 -4.67333e-05 0)
(0.000881774 -4.59602e-05 0)
(0.000918821 -4.51485e-05 0)
(0.0009552 -4.42979e-05 0)
(0.00099088 -4.3408e-05 0)
(0.00102583 -4.24789e-05 0)
(0.00106001 -4.15105e-05 0)
(0.00109339 -4.05025e-05 0)
(0.00112595 -3.94548e-05 0)
(0.00115764 -3.83673e-05 0)
(0.00118843 -3.72399e-05 0)
(0.0012183 -3.60724e-05 0)
(0.0012472 -3.4865e-05 0)
(0.0012751 -3.36175e-05 0)
(0.00130198 -3.23298e-05 0)
(0.00132779 -3.10022e-05 0)
(0.00135251 -2.96348e-05 0)
(0.00137611 -2.82276e-05 0)
(0.00139854 -2.6781e-05 0)
(0.00141978 -2.52953e-05 0)
(0.00143979 -2.37706e-05 0)
(0.00145855 -2.22074e-05 0)
(0.00147603 -2.06063e-05 0)
(0.00149218 -1.89679e-05 0)
(0.00150699 -1.72931e-05 0)
(0.00152042 -1.55831e-05 0)
(0.00153245 -1.38391e-05 0)
(0.00154305 -1.20621e-05 0)
(0.00155218 -1.02534e-05 0)
(0.00155983 -8.4143e-06 0)
(0.00156598 -6.54625e-06 0)
(0.00157059 -4.65054e-06 0)
(0.00157365 -2.72821e-06 0)
(0.00157513 -7.7965e-07 0)
(0.00157503 1.19218e-06 0)
(0.00157332 3.18261e-06 0)
(0.00156999 5.18872e-06 0)
(0.00156501 7.20951e-06 0)
(0.00155838 9.2435e-06 0)
(0.00155009 1.12887e-05 0)
(0.00154012 1.3343e-05 0)
(0.00152847 1.54037e-05 0)
(0.00151513 1.74683e-05 0)
(0.00150011 1.95338e-05 0)
(0.0014834 2.15974e-05 0)
(0.00146501 2.36561e-05 0)
(0.00144493 2.57069e-05 0)
(0.00142319 2.77466e-05 0)
(0.00139978 2.97719e-05 0)
(0.00137472 3.17796e-05 0)
(0.00134803 3.37664e-05 0)
(0.00131972 3.57293e-05 0)
(0.00128981 3.76649e-05 0)
(0.00125833 3.95701e-05 0)
(0.00122531 4.14414e-05 0)
(0.00119077 4.32753e-05 0)
(0.00115474 4.50686e-05 0)
(0.00111727 4.68178e-05 0)
(0.00107837 4.85197e-05 0)
(0.00103811 5.01709e-05 0)
(0.000996516 5.1768e-05 0)
(0.000953637 5.33075e-05 0)
(0.000909522 5.47864e-05 0)
(0.00086422 5.62018e-05 0)
(0.000817787 5.75507e-05 0)
(0.000770276 5.88305e-05 0)
(0.000721747 6.00381e-05 0)
(0.000672258 6.11709e-05 0)
(0.000621873 6.22263e-05 0)
(0.000570656 6.3202e-05 0)
(0.000518671 6.40959e-05 0)
(0.000465988 6.49062e-05 0)
(0.000412675 6.5631e-05 0)
(0.000358804 6.6269e-05 0)
(0.000304446 6.68187e-05 0)
(0.000249674 6.72791e-05 0)
(0.000194563 6.76492e-05 0)
(0.000139186 6.79279e-05 0)
(8.36191e-05 6.81143e-05 0)
(2.79406e-05 6.82077e-05 0)
(-2.77798e-05 6.82078e-05 0)
(-8.34583e-05 6.81147e-05 0)
(-0.000139025 6.79284e-05 0)
(-0.000194402 6.76497e-05 0)
(-0.000249514 6.72796e-05 0)
(-0.000304287 6.68191e-05 0)
(-0.000358646 6.62692e-05 0)
(-0.000412518 6.56308e-05 0)
(-0.000465832 6.49058e-05 0)
(-0.000518517 6.40959e-05 0)
(-0.000570502 6.32027e-05 0)
(-0.000621722 6.2228e-05 0)
(-0.000672109 6.11737e-05 0)
(-0.0007216 6.00419e-05 0)
(-0.000770132 5.88352e-05 0)
(-0.000817645 5.75562e-05 0)
(-0.000864082 5.62075e-05 0)
(-0.000909386 5.47923e-05 0)
(-0.000953504 5.33136e-05 0)
(-0.000996385 5.17741e-05 0)
(-0.00103798 5.01776e-05 0)
(-0.00107825 4.85274e-05 0)
(-0.00111714 4.68262e-05 0)
(-0.00115463 4.50778e-05 0)
(-0.00119066 4.32854e-05 0)
(-0.0012252 4.14525e-05 0)
(-0.00125823 3.95826e-05 0)
(-0.00128971 3.76785e-05 0)
(-0.00131962 3.57437e-05 0)
(-0.00134794 3.37819e-05 0)
(-0.00137464 3.17961e-05 0)
(-0.0013997 2.97893e-05 0)
(-0.00142312 2.7765e-05 0)
(-0.00144487 2.5727e-05 0)
(-0.00146496 2.36783e-05 0)
(-0.00148336 2.16216e-05 0)
(-0.00150008 1.95602e-05 0)
(-0.00151511 1.74967e-05 0)
(-0.00152845 1.54339e-05 0)
(-0.00154011 1.33743e-05 0)
(-0.00155009 1.13201e-05 0)
(-0.00155839 9.27393e-06 0)
(-0.00156503 7.23823e-06 0)
(-0.00157002 5.21497e-06 0)
(-0.00157336 3.20585e-06 0)
(-0.00157508 1.21243e-06 0)
(-0.00157519 -7.62017e-07 0)
(-0.00157371 -2.7119e-06 0)
(-0.00157066 -4.63365e-06 0)
(-0.00156606 -6.5273e-06 0)
(-0.00155993 -8.39178e-06 0)
(-0.00155229 -1.02262e-05 0)
(-0.00154316 -1.20298e-05 0)
(-0.00153258 -1.38014e-05 0)
(-0.00152056 -1.55408e-05 0)
(-0.00150714 -1.72473e-05 0)
(-0.00149235 -1.89195e-05 0)
(-0.00147621 -2.05568e-05 0)
(-0.00145875 -2.21581e-05 0)
(-0.00144 -2.37224e-05 0)
(-0.00142 -2.52483e-05 0)
(-0.00139878 -2.67348e-05 0)
(-0.00137636 -2.81812e-05 0)
(-0.00135279 -2.95866e-05 0)
(-0.00132808 -3.09507e-05 0)
(-0.00130229 -3.22746e-05 0)
(-0.00127543 -3.35588e-05 0)
(-0.00124754 -3.4803e-05 0)
(-0.00121865 -3.60074e-05 0)
(-0.00118881 -3.71723e-05 0)
(-0.00115804 -3.82984e-05 0)
(-0.00112636 -3.93841e-05 0)
(-0.00109383 -4.04289e-05 0)
(-0.00106047 -4.14311e-05 0)
(-0.00102632 -4.23894e-05 0)
(-0.000991402 -4.33056e-05 0)
(-0.000955751 -4.41812e-05 0)
(-0.000919398 -4.50194e-05 0)
(-0.000882378 -4.58209e-05 0)
(-0.000844727 -4.65866e-05 0)
(-0.000806476 -4.73162e-05 0)
(-0.000767657 -4.80063e-05 0)
(-0.0007283 -4.86558e-05 0)
(-0.000688432 -4.92626e-05 0)
(-0.000648086 -4.98264e-05 0)
(-0.000607293 -5.0351e-05 0)
(-0.000566084 -5.08387e-05 0)
(-0.000524491 -5.12922e-05 0)
(-0.000482543 -5.17126e-05 0)
(-0.000440271 -5.20986e-05 0)
(-0.000397705 -5.24488e-05 0)
(-0.000354874 -5.27607e-05 0)
(-0.000311806 -5.30328e-05 0)
(-0.000268532 -5.32656e-05 0)
(-0.000225084 -5.34575e-05 0)
(-0.000181488 -5.36037e-05 0)
(-0.000137737 -5.36723e-05 0)
(-9.3893e-05 -5.34364e-05 0)
(-5.10974e-05 -5.11936e-05 0)
(-1.14756e-05 -3.6522e-05 0)
(1.31981e-05 -7.19429e-05 0)
(5.60173e-05 -9.04695e-05 0)
(0.000102102 -9.33281e-05 0)
(0.000146777 -9.52955e-05 0)
(0.000191402 -9.6619e-05 0)
(0.000236001 -9.71557e-05 0)
(0.000280628 -9.71921e-05 0)
(0.000325225 -9.69421e-05 0)
(0.000369719 -9.6515e-05 0)
(0.000414048 -9.59725e-05 0)
(0.000458157 -9.53415e-05 0)
(0.000501996 -9.46332e-05 0)
(0.000545526 -9.38543e-05 0)
(0.000588706 -9.30076e-05 0)
(0.0006315 -9.20941e-05 0)
(0.000673873 -9.11138e-05 0)
(0.000715791 -9.00661e-05 0)
(0.00075722 -8.89504e-05 0)
(0.000798126 -8.7766e-05 0)
(0.000838476 -8.65121e-05 0)
(0.000878237 -8.51878e-05 0)
(0.000917376 -8.37925e-05 0)
(0.00095586 -8.23258e-05 0)
(0.000993654 -8.07872e-05 0)
(0.00103073 -7.91763e-05 0)
(0.00106704 -7.7493e-05 0)
(0.00110256 -7.57367e-05 0)
(0.00113726 -7.39073e-05 0)
(0.0011711 -7.20044e-05 0)
(0.00120405 -7.00279e-05 0)
(0.00123607 -6.79779e-05 0)
(0.00126712 -6.58542e-05 0)
(0.00129718 -6.36567e-05 0)
(0.0013262 -6.13853e-05 0)
(0.00135416 -5.904e-05 0)
(0.00138101 -5.6621e-05 0)
(0.00140673 -5.41287e-05 0)
(0.00143128 -5.15636e-05 0)
(0.00145462 -4.89262e-05 0)
(0.00147673 -4.62171e-05 0)
(0.00149757 -4.34368e-05 0)
(0.0015171 -4.05863e-05 0)
(0.0015353 -3.76665e-05 0)
(0.00155213 -3.46789e-05 0)
(0.00156756 -3.16251e-05 0)
(0.00158156 -2.85067e-05 0)
(0.00159411 -2.53258e-05 0)
(0.00160516 -2.20843e-05 0)
(0.0016147 -1.87844e-05 0)
(0.0016227 -1.54287e-05 0)
(0.00162913 -1.20198e-05 0)
(0.00163397 -8.56043e-06 0)
(0.0016372 -5.05372e-06 0)
(0.00163879 -1.50308e-06 0)
(0.00163872 2.08835e-06 0)
(0.00163699 5.71729e-06 0)
(0.00163356 9.3799e-06 0)
(0.00162842 1.30722e-05 0)
(0.00162156 1.67901e-05 0)
(0.00161297 2.05295e-05 0)
(0.00160263 2.42859e-05 0)
(0.00159055 2.80546e-05 0)
(0.00157671 3.18305e-05 0)
(0.00156112 3.56086e-05 0)
(0.00154377 3.93837e-05 0)
(0.00152466 4.31502e-05 0)
(0.00150381 4.69026e-05 0)
(0.00148121 5.06351e-05 0)
(0.00145688 5.43418e-05 0)
(0.00143083 5.80167e-05 0)
(0.00140308 6.16538e-05 0)
(0.00137365 6.52473e-05 0)
(0.00134255 6.8791e-05 0)
(0.00130982 7.22788e-05 0)
(0.00127547 7.57045e-05 0)
(0.00123954 7.90619e-05 0)
(0.00120206 8.2345e-05 0)
(0.00116307 8.55477e-05 0)
(0.00112261 8.86638e-05 0)
(0.00108072 9.16871e-05 0)
(0.00103744 9.46113e-05 0)
(0.000992816 9.74306e-05 0)
(0.000946907 0.000100139 0)
(0.000899762 0.000102732 0)
(0.000851437 0.000105203 0)
(0.000801988 0.000107546 0)
(0.000751476 0.000109758 0)
(0.000699963 0.000111833 0)
(0.000647515 0.000113765 0)
(0.000594199 0.000115552 0)
(0.000540083 0.000117189 0)
(0.000485237 0.000118672 0)
(0.000429734 0.000119999 0)
(0.000373648 0.000121167 0)
(0.000317054 0.000122172 0)
(0.000260028 0.000123014 0)
(0.000202647 0.000123689 0)
(0.000144988 0.000124198 0)
(8.71315e-05 0.000124537 0)
(2.9158e-05 0.000124707 0)
(-2.88599e-05 0.000124707 0)
(-8.68336e-05 0.000124537 0)
(-0.000144691 0.000124198 0)
(-0.00020235 0.000123689 0)
(-0.000259731 0.000123013 0)
(-0.000316758 0.00012217 0)
(-0.000373353 0.000121164 0)
(-0.00042944 0.000119996 0)
(-0.000484944 0.000118668 0)
(-0.000539791 0.000117185 0)
(-0.000593908 0.000115549 0)
(-0.000647226 0.000113763 0)
(-0.000699675 0.000111831 0)
(-0.000751189 0.000109758 0)
(-0.000801703 0.000107548 0)
(-0.000851153 0.000105206 0)
(-0.000899481 0.000102737 0)
(-0.000946628 0.000100146 0)
(-0.000992539 9.7438e-05 0)
(-0.00103716 9.46198e-05 0)
(-0.00108044 9.16965e-05 0)
(-0.00112234 8.86743e-05 0)
(-0.0011628 8.55592e-05 0)
(-0.0012018 8.23574e-05 0)
(-0.00123928 7.9075e-05 0)
(-0.00127521 7.57181e-05 0)
(-0.00130956 7.2293e-05 0)
(-0.0013423 6.8806e-05 0)
(-0.0013734 6.52628e-05 0)
(-0.00140284 6.16698e-05 0)
(-0.00143059 5.80333e-05 0)
(-0.00145664 5.43594e-05 0)
(-0.00148097 5.06538e-05 0)
(-0.00150357 4.69228e-05 0)
(-0.00152443 4.31726e-05 0)
(-0.00154354 3.94081e-05 0)
(-0.00156089 3.5635e-05 0)
(-0.00157649 3.18588e-05 0)
(-0.00159033 2.80843e-05 0)
(-0.00160242 2.43168e-05 0)
(-0.00161276 2.05609e-05 0)
(-0.00162135 1.6821e-05 0)
(-0.00162821 1.31017e-05 0)
(-0.00163335 9.4074e-06 0)
(-0.00163679 5.74227e-06 0)
(-0.00163853 2.11078e-06 0)
(-0.0016386 -1.48287e-06 0)
(-0.00163702 -5.03477e-06 0)
(-0.0016338 -8.54095e-06 0)
(-0.00162897 -1.19984e-05 0)
(-0.00162254 -1.54043e-05 0)
(-0.00161455 -1.87558e-05 0)
(-0.00160501 -2.20507e-05 0)
(-0.00159396 -2.52869e-05 0)
(-0.00158142 -2.84631e-05 0)
(-0.00156742 -3.15776e-05 0)
(-0.00155199 -3.46284e-05 0)
(-0.00153516 -3.7614e-05 0)
(-0.00151697 -4.0533e-05 0)
(-0.00149744 -4.33835e-05 0)
(-0.0014766 -4.61641e-05 0)
(-0.0014545 -4.88739e-05 0)
(-0.00143116 -5.15111e-05 0)
(-0.00140662 -5.4075e-05 0)
(-0.0013809 -5.65652e-05 0)
(-0.00135406 -5.89823e-05 0)
(-0.0013261 -6.13258e-05 0)
(-0.00129708 -6.35952e-05 0)
(-0.00126703 -6.57906e-05 0)
(-0.00123598 -6.79121e-05 0)
(-0.00120397 -6.996e-05 0)
(-0.00117102 -7.19343e-05 0)
(-0.00113719 -7.38347e-05 0)
(-0.0011025 -7.56597e-05 0)
(-0.00106698 -7.74083e-05 0)
(-0.00103067 -7.9082e-05 0)
(-0.0009936 -8.06823e-05 0)
(-0.000955799 -8.22111e-05 0)
(-0.000917307 -8.36713e-05 0)
(-0.000878161 -8.50624e-05 0)
(-0.000838396 -8.63836e-05 0)
(-0.000798043 -8.76332e-05 0)
(-0.000757132 -8.88092e-05 0)
(-0.000715691 -8.99112e-05 0)
(-0.000673754 -9.09402e-05 0)
(-0.000631353 -9.18988e-05 0)
(-0.00058852 -9.27898e-05 0)
(-0.000545288 -9.3616e-05 0)
(-0.00050169 -9.43792e-05 0)
(-0.000457758 -9.50787e-05 0)
(-0.000413521 -9.57129e-05 0)
(-0.000369009 -9.62784e-05 0)
(-0.000324251 -9.67738e-05 0)
(-0.000279277 -9.72009e-05 0)
(-0.000234121 -9.75606e-05 0)
(-0.000188807 -9.7848e-05 0)
(-0.000143331 -9.80263e-05 0)
(-9.77805e-05 -9.77432e-05 0)
(-5.34141e-05 -9.3984e-05 0)
(-1.19021e-05 -6.72551e-05 0)
(1.20203e-05 -0.000105554 0)
(5.43008e-05 -0.000136984 0)
(0.000101001 -0.000140062 0)
(0.000146885 -0.000141154 0)
(0.000192327 -0.000141927 0)
(0.000237506 -0.000142208 0)
(0.000282551 -0.000142094 0)
(0.000327474 -0.000141708 0)
(0.000372248 -0.000141121 0)
(0.000416833 -0.000140377 0)
(0.000461187 -0.000139501 0)
(0.000505269 -0.000138505 0)
(0.000549038 -0.0001374 0)
(0.000592457 -0.000136189 0)
(0.000635491 -0.000134875 0)
(0.000678104 -0.000133458 0)
(0.000720263 -0.00013194 0)
(0.000761932 -0.000130319 0)
(0.000803079 -0.000128596 0)
(0.000843669 -0.000126769 0)
(0.00088367 -0.000124839 0)
(0.000923047 -0.000122803 0)
(0.000961768 -0.000120663 0)
(0.000999797 -0.000118417 0)
(0.0010371 -0.000116065 0)
(0.00107365 -0.000113605 0)
(0.0011094 -0.000111039 0)
(0.00114433 -0.000108365 0)
(0.0011784 -0.000105582 0)
(0.00121156 -0.000102692 0)
(0.0012438 -9.96928e-05 0)
(0.00127507 -9.65852e-05 0)
(0.00130534 -9.33689e-05 0)
(0.00133457 -9.00438e-05 0)
(0.00136273 -8.66099e-05 0)
(0.00138978 -8.30677e-05 0)
(0.0014157 -7.94177e-05 0)
(0.00144044 -7.56606e-05 0)
(0.00146396 -7.17972e-05 0)
(0.00148625 -6.78282e-05 0)
(0.00150726 -6.37549e-05 0)
(0.00152696 -5.95784e-05 0)
(0.00154532 -5.53005e-05 0)
(0.0015623 -5.09231e-05 0)
(0.00157787 -4.64485e-05 0)
(0.00159201 -4.1879e-05 0)
(0.00160469 -3.72174e-05 0)
(0.00161586 -3.24666e-05 0)
(0.00162552 -2.76299e-05 0)
(0.00163362 -2.2711e-05 0)
(0.00164014 -1.77136e-05 0)
(0.00164506 -1.2642e-05 0)
(0.00164836 -7.50072e-06 0)
(0.00165001 -2.29465e-06 0)
(0.00164999 2.9717e-06 0)
(0.00164829 8.29386e-06 0)
(0.00164488 1.36666e-05 0)
(0.00163975 1.90838e-05 0)
(0.00163289 2.45394e-05 0)
(0.00162428 3.0027e-05 0)
(0.00161392 3.554e-05 0)
(0.00160179 4.10712e-05 0)
(0.00158789 4.66134e-05 0)
(0.00157223 5.21591e-05 0)
(0.00155479 5.77006e-05 0)
(0.00153559 6.32299e-05 0)
(0.00151462 6.87388e-05 0)
(0.0014919 7.42189e-05 0)
(0.00146743 7.96615e-05 0)
(0.00144123 8.50578e-05 0)
(0.00141331 9.03991e-05 0)
(0.0013837 9.56766e-05 0)
(0.0013524 0.000100881 0)
(0.00131945 0.000106004 0)
(0.00128488 0.000111036 0)
(0.00124871 0.000115968 0)
(0.00121098 0.000120791 0)
(0.00117173 0.000125496 0)
(0.00113099 0.000130074 0)
(0.0010888 0.000134516 0)
(0.00104522 0.000138812 0)
(0.00100028 0.000142954 0)
(0.000954042 0.000146934 0)
(0.000906557 0.000150743 0)
(0.00085788 0.000154373 0)
(0.000808069 0.000157817 0)
(0.000757185 0.000161066 0)
(0.00070529 0.000164114 0)
(0.000652452 0.000166954 0)
(0.000598736 0.00016958 0)
(0.000544213 0.000171986 0)
(0.000488954 0.000174167 0)
(0.000433031 0.000176117 0)
(0.000376519 0.000177834 0)
(0.000319494 0.000179313 0)
(0.000262033 0.00018055 0)
(0.000204214 0.000181543 0)
(0.000146114 0.000182289 0)
(8.78147e-05 0.000182788 0)
(2.93972e-05 0.000183038 0)
(-2.90651e-05 0.000183038 0)
(-8.74831e-05 0.000182788 0)
(-0.000145783 0.000182289 0)
(-0.000203884 0.000181542 0)
(-0.000261704 0.000180549 0)
(-0.000319166 0.000179312 0)
(-0.000376191 0.000177833 0)
(-0.000432704 0.000176116 0)
(-0.000488627 0.000174165 0)
(-0.000543887 0.000171984 0)
(-0.000598411 0.000169578 0)
(-0.000652128 0.000166953 0)
(-0.000704967 0.000164114 0)
(-0.000756862 0.000161067 0)
(-0.000807747 0.000157819 0)
(-0.00085756 0.000154378 0)
(-0.000906239 0.00015075 0)
(-0.000953726 0.000146942 0)
(-0.000999965 0.000142964 0)
(-0.0010449 0.000138823 0)
(-0.00108849 0.000134528 0)
(-0.00113068 0.000130088 0)
(-0.00117142 0.000125511 0)
(-0.00121068 0.000120807 0)
(-0.00124841 0.000115985 0)
(-0.00128458 0.000111054 0)
(-0.00131916 0.000106022 0)
(-0.00135211 0.0001009 0)
(-0.0013834 9.56951e-05 0)
(-0.00141302 9.04176e-05 0)
(-0.00144095 8.50764e-05 0)
(-0.00146715 7.96807e-05 0)
(-0.00149162 7.42393e-05 0)
(-0.00151435 6.87605e-05 0)
(-0.00153532 6.32533e-05 0)
(-0.00155452 5.77259e-05 0)
(-0.00157196 5.21861e-05 0)
(-0.00158762 4.66421e-05 0)
(-0.00160152 4.11012e-05 0)
(-0.00161365 3.55712e-05 0)
(-0.00162401 3.00593e-05 0)
(-0.00163262 2.45718e-05 0)
(-0.00163949 1.91155e-05 0)
(-0.00164462 1.36968e-05 0)
(-0.00164803 8.32228e-06 0)
(-0.00164974 2.99823e-06 0)
(-0.00164977 -2.26952e-06 0)
(-0.00164812 -7.47643e-06 0)
(-0.00164483 -1.26171e-05 0)
(-0.00163991 -1.76867e-05 0)
(-0.00163339 -2.26811e-05 0)
(-0.00162529 -2.75962e-05 0)
(-0.00161564 -3.24285e-05 0)
(-0.00160447 -3.7175e-05 0)
(-0.0015918 -4.18324e-05 0)
(-0.00157766 -4.63983e-05 0)
(-0.00156208 -5.08704e-05 0)
(-0.0015451 -5.52461e-05 0)
(-0.00152674 -5.9523e-05 0)
(-0.00150704 -6.36991e-05 0)
(-0.00148603 -6.77728e-05 0)
(-0.00146375 -7.17429e-05 0)
(-0.00144022 -7.56069e-05 0)
(-0.00141549 -7.93639e-05 0)
(-0.00138958 -8.30132e-05 0)
(-0.00136253 -8.65544e-05 0)
(-0.00133437 -8.99869e-05 0)
(-0.00130514 -9.33107e-05 0)
(-0.00127487 -9.65253e-05 0)
(-0.0012436 -9.96311e-05 0)
(-0.00121136 -0.000102628 0)
(-0.00117819 -0.000105516 0)
(-0.00114413 -0.000108296 0)
(-0.0011092 -0.000110966 0)
(-0.00107345 -0.000113527 0)
(-0.0010369 -0.000115977 0)
(-0.000999586 -0.000118321 0)
(-0.000961543 -0.000120561 0)
(-0.000922807 -0.000122696 0)
(-0.000883414 -0.000124729 0)
(-0.000843399 -0.000126658 0)
(-0.000802793 -0.000128482 0)
(-0.000761627 -0.0001302 0)
(-0.000719931 -0.000131813 0)
(-0.000677738 -0.000133324 0)
(-0.00063508 -0.000134733 0)
(-0.000591991 -0.000136043 0)
(-0.000548504 -0.000137257 0)
(-0.00050465 -0.000138376 0)
(-0.000460458 -0.000139399 0)
(-0.000415959 -0.000140324 0)
(-0.000371182 -0.000141147 0)
(-0.000326159 -0.000141869 0)
(-0.000280922 -0.000142493 0)
(-0.000235504 -0.000143023 0)
(-0.000189923 -0.000143455 0)
(-0.000144181 -0.00014374 0)
(-9.83842e-05 -0.000143371 0)
(-5.38315e-05 -0.000137955 0)
(-1.19977e-05 -9.89189e-05 0)
(1.18265e-05 -0.000136987 0)
(5.34646e-05 -0.000182055 0)
(9.98583e-05 -0.000186566 0)
(0.000146205 -0.000187237 0)
(0.000192133 -0.000187581 0)
(0.000237727 -0.000187593 0)
(0.000283087 -0.000187288 0)
(0.000328252 -0.000186722 0)
(0.000373225 -0.000185937 0)
(0.000417982 -0.000184964 0)
(0.000462491 -0.000183825 0)
(0.000506717 -0.000182531 0)
(0.000550625 -0.000181091 0)
(0.000594179 -0.00017951 0)
(0.000637347 -0.000177792 0)
(0.000680092 -0.000175937 0)
(0.000722383 -0.000173946 0)
(0.000764185 -0.00017182 0)
(0.000805465 -0.000169557 0)
(0.00084619 -0.000167158 0)
(0.000886325 -0.000164621 0)
(0.000925837 -0.000161946 0)
(0.000964693 -0.000159132 0)
(0.00100286 -0.000156178 0)
(0.0010403 -0.000153084 0)
(0.00107699 -0.000149849 0)
(0.00111288 -0.000146473 0)
(0.00114794 -0.000142953 0)
(0.00118214 -0.000139291 0)
(0.00121545 -0.000135486 0)
(0.00124782 -0.000131538 0)
(0.00127923 -0.000127445 0)
(0.00130964 -0.000123209 0)
(0.001339 -0.000118829 0)
(0.0013673 -0.000114306 0)
(0.00139449 -0.000109639 0)
(0.00142054 -0.00010483 0)
(0.00144541 -9.98795e-05 0)
(0.00146907 -9.47881e-05 0)
(0.00149149 -8.95574e-05 0)
(0.00151262 -8.41887e-05 0)
(0.00153245 -7.86839e-05 0)
(0.00155093 -7.30452e-05 0)
(0.00156803 -6.72752e-05 0)
(0.00158373 -6.13765e-05 0)
(0.00159798 -5.53525e-05 0)
(0.00161076 -4.92065e-05 0)
(0.00162205 -4.29424e-05 0)
(0.0016318 -3.65647e-05 0)
(0.00164 -3.0078e-05 0)
(0.00164661 -2.34872e-05 0)
(0.00165162 -1.67979e-05 0)
(0.001655 -1.00157e-05 0)
(0.00165672 -3.14684e-06 0)
(0.00165677 3.8023e-06 0)
(0.00165513 1.08254e-05 0)
(0.00165177 1.79154e-05 0)
(0.00164669 2.50648e-05 0)
(0.00163986 3.22654e-05 0)
(0.00163128 3.95088e-05 0)
(0.00162094 4.6786e-05 0)
(0.00160882 5.40877e-05 0)
(0.00159493 6.14044e-05 0)
(0.00157925 6.87263e-05 0)
(0.0015618 7.6043e-05 0)
(0.00154257 8.33442e-05 0)
(0.00152156 9.0619e-05 0)
(0.00149879 9.78563e-05 0)
(0.00147427 0.000105045 0)
(0.00144799 0.000112173 0)
(0.00142 0.000119228 0)
(0.00139029 0.000126201 0)
(0.00135889 0.000133077 0)
(0.00132583 0.000139846 0)
(0.00129113 0.000146495 0)
(0.00125483 0.000153013 0)
(0.00121695 0.000159386 0)
(0.00117754 0.000165604 0)
(0.00113663 0.000171654 0)
(0.00109426 0.000177524 0)
(0.00105049 0.000183201 0)
(0.00100535 0.000188676 0)
(0.000958902 0.000193936 0)
(0.000911196 0.00019897 0)
(0.000862289 0.000203768 0)
(0.000812239 0.000208319 0)
(0.000761107 0.000212614 0)
(0.000708957 0.000216643 0)
(0.000655855 0.000220398 0)
(0.000601868 0.000223871 0)
(0.000547068 0.000227053 0)
(0.000491525 0.000229937 0)
(0.000435313 0.000232518 0)
(0.000378508 0.000234789 0)
(0.000321185 0.000236746 0)
(0.000263422 0.000238383 0)
(0.000205297 0.000239698 0)
(0.000146891 0.000240686 0)
(8.82825e-05 0.000241346 0)
(2.95551e-05 0.000241676 0)
(-2.92176e-05 0.000241676 0)
(-8.79456e-05 0.000241346 0)
(-0.000146555 0.000240686 0)
(-0.000204962 0.000239698 0)
(-0.000263087 0.000238385 0)
(-0.000320851 0.000236748 0)
(-0.000378174 0.000234792 0)
(-0.000434981 0.000232521 0)
(-0.000491194 0.00022994 0)
(-0.000546737 0.000227056 0)
(-0.000601538 0.000223874 0)
(-0.000655525 0.000220402 0)
(-0.000708627 0.000216647 0)
(-0.000760778 0.000212619 0)
(-0.00081191 0.000208326 0)
(-0.000861962 0.000203776 0)
(-0.000910871 0.000198979 0)
(-0.000958579 0.000193946 0)
(-0.00100503 0.000188687 0)
(-0.00105017 0.000183214 0)
(-0.00109394 0.000177537 0)
(-0.00113631 0.000171669 0)
(-0.00117722 0.000165621 0)
(-0.00121664 0.000159404 0)
(-0.00125452 0.000153032 0)
(-0.00129083 0.000146516 0)
(-0.00132553 0.000139867 0)
(-0.00135859 0.000133099 0)
(-0.00138999 0.000126223 0)
(-0.0014197 0.000119251 0)
(-0.0014477 0.000112196 0)
(-0.00147397 0.000105068 0)
(-0.0014985 9.78812e-05 0)
(-0.00152128 9.06452e-05 0)
(-0.00154228 8.33717e-05 0)
(-0.00156152 7.60721e-05 0)
(-0.00157897 6.87567e-05 0)
(-0.00159465 6.14363e-05 0)
(-0.00160854 5.41209e-05 0)
(-0.00162066 4.68203e-05 0)
(-0.001631 3.95442e-05 0)
(-0.00163959 3.23013e-05 0)
(-0.00164642 2.51004e-05 0)
(-0.0016515 1.795e-05 0)
(-0.00165486 1.08586e-05 0)
(-0.00165651 3.83419e-06 0)
(-0.00165647 -3.11562e-06 0)
(-0.00165475 -9.98445e-06 0)
(-0.00165138 -1.67659e-05 0)
(-0.00164637 -2.34534e-05 0)
(-0.00163976 -3.00416e-05 0)
(-0.00163157 -3.65253e-05 0)
(-0.00162181 -4.29e-05 0)
(-0.00161053 -4.9161e-05 0)
(-0.00159775 -5.53039e-05 0)
(-0.00158349 -6.13252e-05 0)
(-0.0015678 -6.72221e-05 0)
(-0.0015507 -7.29913e-05 0)
(-0.00153222 -7.86295e-05 0)
(-0.00151239 -8.41342e-05 0)
(-0.00149126 -8.95037e-05 0)
(-0.00146884 -9.47358e-05 0)
(-0.00144518 -9.98281e-05 0)
(-0.00142032 -0.000104779 0)
(-0.00139427 -0.000109587 0)
(-0.00136708 -0.000114253 0)
(-0.00133879 -0.000118774 0)
(-0.00130942 -0.000123153 0)
(-0.00127901 -0.000127387 0)
(-0.0012476 -0.000131478 0)
(-0.00121522 -0.000135424 0)
(-0.00118192 -0.000139228 0)
(-0.00114771 -0.000142888 0)
(-0.00111265 -0.000146403 0)
(-0.00107676 -0.000149776 0)
(-0.00104007 -0.000153004 0)
(-0.00100262 -0.000156091 0)
(-0.000964439 -0.00015904 0)
(-0.000925567 -0.00016185 0)
(-0.000886039 -0.000164524 0)
(-0.000845888 -0.000167061 0)
(-0.000805146 -0.00016946 0)
(-0.000763844 -0.000171724 0)
(-0.000722013 -0.000173851 0)
(-0.000679687 -0.000175845 0)
(-0.000636898 -0.000177706 0)
(-0.000593679 -0.000179435 0)
(-0.000550063 -0.000181035 0)
(-0.000506081 -0.000182507 0)
(-0.000461759 -0.000183851 0)
(-0.000417128 -0.000185063 0)
(-0.000372216 -0.000186144 0)
(-0.000327061 -0.000187093 0)
(-0.000281698 -0.000187916 0)
(-0.000236156 -0.000188617 0)
(-0.000190451 -0.000189191 0)
(-0.000144587 -0.000189576 0)
(-9.86741e-05 -0.000189109 0)
(-5.40254e-05 -0.000182022 0)
(-1.2057e-05 -0.000130718 0)
(1.17884e-05 -0.000168225 0)
(5.33286e-05 -0.000226791 0)
(9.93776e-05 -0.000233083 0)
(0.000145916 -0.000233538 0)
(0.000192125 -0.00023351 0)
(0.000238013 -0.000233241 0)
(0.000283644 -0.000232712 0)
(0.000329051 -0.000231931 0)
(0.000374237 -0.000230919 0)
(0.000419186 -0.000229698 0)
(0.000463873 -0.000228282 0)
(0.000508266 -0.000226681 0)
(0.000552335 -0.000224902 0)
(0.000596046 -0.000222949 0)
(0.000639368 -0.000220825 0)
(0.000682268 -0.000218531 0)
(0.000724712 -0.000216068 0)
(0.000766668 -0.000213437 0)
(0.000808102 -0.000210635 0)
(0.000848982 -0.000207664 0)
(0.000889272 -0.000204522 0)
(0.000928941 -0.000201208 0)
(0.000967954 -0.000197722 0)
(0.00100628 -0.000194062 0)
(0.00104388 -0.000190227 0)
(0.00108072 -0.000186217 0)
(0.00111677 -0.000182031 0)
(0.001152 -0.000177668 0)