/*--------------------------------*- C++ -*----------------------------------*\
| =========                 |                                                 |
| \\      /  F ield         | OpenFOAM: The Open Source CFD Toolbox           |
|  \\    /   O peration     | Version:  2412                                  |
|   \\  /    A nd           | Website:  www.openfoam.com                      |
|    \\/     M anipulation  |                                                 |
\*---------------------------------------------------------------------------*/
FoamFile
{
    version     2.0;
    format      ascii;
    arch        "LSB;label=32;scalar=64";
    class       surfaceScalarField;
    location    "1.2";
    object      alphaPhi0.water;
}
// * * * * * * * * * * * * * * * * * * * * * * * * * * * * * * * * * * * * * //

dimensions      [0 3 -1 0 0 0 0];

oriented        oriented;

internalField   nonuniform List<scalar> 
79600
(
6.31868e-197
-2.07861e-193
2.91848e-187
-3.6842e-184
4.4877e-186
-3.44669e-183
8.28265e-186
-4.47404e-183
1.08347e-185
-4.47997e-183
1.26403e-185
-4.22864e-183
1.37658e-185
-3.86901e-183
1.42446e-185
-3.45506e-183
1.41356e-185
-3.01848e-183
1.3524e-185
-2.58182e-183
1.25114e-185
-2.16166e-183
1.12097e-185
-1.77042e-183
9.73429e-186
-1.41716e-183
8.19455e-186
-1.10752e-183
6.68631e-186
-8.44069e-184
5.2855e-186
-6.26538e-184
4.0449e-186
-4.5234e-184
2.99458e-186
-3.17236e-184
2.14313e-186
-2.15865e-184
1.48115e-186
-1.42313e-184
9.87514e-187
-9.07776e-185
6.34509e-187
-5.59516e-185
3.92457e-187
-3.32783e-185
2.33244e-187
-1.90617e-185
1.3278e-187
-1.04809e-185
7.20562e-188
-5.50504e-186
3.70599e-188
-2.74627e-186
1.79299e-188
-1.2916e-186
8.10378e-189
-5.6884e-187
3.4007e-189
-2.3315e-187
1.31928e-189
-8.85188e-188
4.72288e-190
-3.10569e-188
1.56392e-190
-1.00877e-188
4.80858e-191
-3.04392e-189
1.36942e-191
-8.51234e-190
3.5554e-192
-2.1723e-190
8.2405e-193
-4.95567e-191
1.67887e-193
-9.94899e-192
2.99437e-194
-1.74916e-192
4.69544e-195
-2.70282e-193
6.47247e-196
-3.66835e-194
7.77202e-197
-4.33115e-195
8.03905e-198
-4.39548e-196
7.11183e-199
-3.80348e-197
5.36401e-200
-2.79433e-198
3.44505e-201
-1.73839e-199
1.88303e-202
-9.13471e-201
8.75439e-204
-4.04058e-202
3.45696e-205
-1.49565e-203
1.15525e-206
-4.57821e-205
3.23864e-208
-1.1286e-206
7.46223e-210
-2.08975e-208
1.34216e-211
-2.20068e-210
1.83576e-213
5.78237e-217
2.47106e-215
3.34067e-218
3.27158e-217
7.8402e-220
4.25795e-219
1.47035e-221
5.44475e-221
2.46375e-223
6.83676e-223
3.83909e-225
8.42483e-225
5.6677e-227
1.01818e-226
8.00697e-229
1.20591e-228
1.08873e-230
1.39853e-230
1.42978e-232
1.58668e-232
1.8172e-234
1.75926e-234
2.23783e-236
1.90425e-236
2.67166e-238
2.00992e-238
3.09252e-240
2.0662e-240
3.47008e-242
2.06616e-242
3.77284e-244
2.00719e-244
3.97217e-246
1.89172e-246
4.0464e-248
1.7272e-248
3.98459e-250
1.52542e-250
3.78881e-252
1.30109e-252
3.47457e-254
1.06993e-254
3.06897e-256
8.46708e-257
2.60694e-258
6.4357e-259
2.12619e-260
4.68834e-261
1.66196e-262
3.26591e-263
1.24257e-264
2.17002e-265
8.86667e-267
1.37153e-267
6.02407e-269
8.22092e-270
3.88648e-271
4.65751e-272
2.374e-273
2.4848e-274
1.36848e-275
1.24313e-276
7.41727e-278
5.80478e-279
3.7645e-280
2.51626e-281
1.78074e-282
1.0063e-283
7.80908e-285
3.68604e-286
3.15517e-287
1.22608e-288
1.16609e-289
3.6654e-291
3.90855e-292
9.72392e-294
1.17596e-294
2.25277e-296
3.13585e-297
4.4634e-299
7.29362e-300
7.35071e-302
1.44905e-302
9.65741e-305
2.39011e-305
9.48699e-308
3.1413e-308
6.19335e-311
3.08339e-311
2.0161e-314
2.00894e-314
1.51728e-320
6.51907e-318
-2.41857e-314
7.84954e-318
-7.43706e-311
2.42121e-314
-1.1378e-307
3.71119e-311
-1.15605e-304
3.77333e-308
-8.78023e-302
2.86447e-305
-5.31929e-299
1.73248e-302
-2.67854e-296
8.6991e-300
-1.15349e-293
3.73108e-297
-4.33806e-291
1.39583e-294
-1.44781e-288
4.62839e-292
-4.34294e-286
1.37766e-289
-1.18306e-283
3.7192e-287
-2.95192e-281
9.18482e-285
-6.7956e-279
2.08997e-282
-1.45236e-276
4.40893e-280
-2.8972e-274
8.6691e-278
-5.41991e-272
1.59621e-275
-9.54831e-270
2.7636e-273
-1.59e-267
4.51561e-271
-2.51106e-265
6.98608e-269
-3.77236e-263
1.02637e-266
-5.40579e-261
1.43576e-264
-7.40765e-259
1.91698e-262
-9.72917e-257
2.44821e-260
-1.22734e-254
2.99664e-258
-1.49005e-252
3.52179e-256
-1.7441e-250
3.98064e-254
-1.97161e-248
4.3336e-252
-2.15598e-246
4.55022e-250
-2.28399e-244
4.6135e-248
-2.34743e-242
4.52182e-246
-2.34385e-240
4.28841e-244
-2.27652e-238
3.93841e-242
-2.15356e-236
3.50467e-240
-1.98656e-234
3.02325e-238
-1.78895e-232
2.52873e-236
-1.5744e-230
2.05056e-234
-1.35545e-228
1.6111e-232
-1.14262e-226
1.22507e-230
-9.43915e-225
8.99706e-229
-7.64704e-223
6.35941e-227
-6.07951e-221
4.30138e-225
-4.74584e-219
2.75644e-223
-3.6397e-217
1.64269e-221
-2.74386e-215
8.74984e-220
-2.03443e-213
3.72898e-218
-1.48443e-211
6.54394e-217
-8.24219e-210
-2.42232e-210
-3.56702e-208
-2.30675e-208
-1.26732e-206
-1.24334e-206
-3.77335e-205
-5.02477e-205
-9.49998e-204
-1.63345e-203
-2.03018e-202
-4.38726e-202
-3.68863e-201
-9.85337e-201
-5.70238e-200
-1.86196e-199
-7.50648e-199
-2.9713e-198
-8.42625e-198
-4.0149e-197
-8.09296e-197
-4.60694e-196
-6.69968e-196
-4.50919e-195
-4.83513e-195
-3.79613e-194
-3.06923e-194
-2.78242e-193
-1.71336e-193
-1.79232e-192
-8.37535e-193
-1.01499e-191
-3.60088e-192
-5.03506e-191
-1.38299e-191
-2.19932e-190
-4.8452e-191
-8.59359e-190
-1.57308e-190
-3.06591e-189
-4.74306e-190
-1.01428e-188
-1.32301e-189
-3.11775e-188
-3.40593e-189
-8.87336e-188
-8.10726e-189
-2.33413e-187
-1.79205e-188
-5.68833e-187
-3.701e-188
-1.2903e-186
-7.19039e-188
-2.74118e-186
-1.32406e-187
-5.49045e-186
-2.3245e-187
-1.04453e-185
-3.90967e-187
-1.8985e-185
-6.31981e-187
-3.31296e-185
-9.83545e-187
-5.56867e-185
-1.47529e-186
-9.03353e-185
-2.13492e-186
-1.41615e-184
-2.98356e-186
-2.14808e-184
-4.03065e-186
-3.15683e-184
-5.26774e-186
-4.50128e-184
-6.66545e-186
-6.23472e-184
-8.172e-186
-8.39942e-184
-9.71303e-186
-1.10223e-183
-1.11945e-185
-1.41069e-183
-1.25091e-185
-1.76296e-183
-1.35434e-185
-2.15378e-183
-1.4189e-185
-2.57462e-183
-1.4353e-185
-3.01396e-183
-1.39681e-185
-3.45815e-183
-1.29988e-185
-3.89156e-183
-1.14144e-185
-4.2971e-183
-9.02808e-186
-4.64289e-183
-4.97889e-186
-4.7683e-183
-2.97851e-187
-3.71694e-183
-4.75819e-197
-3.6666e-184
-1.58671e-193
3.86019e-193
-6.76375e-190
1.04231e-183
-7.08686e-181
1.44642e-182
-6.12873e-180
2.54944e-182
-7.73059e-180
3.25422e-182
-7.64063e-180
3.75558e-182
-7.18801e-180
4.07992e-182
-6.59267e-180
4.23018e-182
-5.91818e-180
4.21659e-182
-5.20512e-180
4.05837e-182
-4.48607e-180
3.78145e-182
-3.78751e-180
3.41601e-182
-3.1305e-180
2.99406e-182
-2.53098e-180
2.54662e-182
-1.99954e-180
2.10163e-182
-1.54188e-180
1.68206e-182
-1.1591e-180
1.3047e-182
-8.48307e-181
9.80057e-183
-6.03691e-181
7.12444e-183
-4.17246e-181
5.00684e-183
-2.79685e-181
3.3982e-183
-1.81574e-181
2.22521e-183
-1.1402e-181
1.40431e-183
-6.91657e-182
8.52648e-184
-4.04526e-182
4.96569e-184
-2.27395e-182
2.7611e-184
-1.22281e-182
1.45768e-184
-6.25569e-183
7.25433e-185
-3.02303e-183
3.38104e-185
-1.37126e-183
1.46695e-185
-5.80306e-184
5.8987e-186
-2.28011e-184
2.19353e-186
-8.29492e-185
7.55922e-187
-2.79819e-185
2.42308e-187
-8.78204e-186
7.2097e-188
-2.55889e-186
1.96131e-188
-6.8181e-187
4.78044e-189
-1.62821e-187
1.02814e-189
-3.43078e-188
1.94264e-190
-6.34581e-189
3.23834e-191
-1.03417e-189
4.76316e-192
-1.48383e-190
6.12799e-193
-1.85538e-191
6.82142e-194
-1.99655e-192
6.52669e-195
-1.83387e-193
5.35493e-196
-1.43188e-194
3.76739e-197
-9.47991e-196
2.27551e-198
-5.31003e-197
1.18246e-199
-2.50963e-198
5.30146e-201
-9.96342e-200
2.05722e-202
-3.29306e-201
6.93016e-204
-8.87913e-203
2.03085e-205
-1.85301e-204
5.17687e-207
-2.47937e-206
1.15231e-208
1.6101e-212
2.51288e-210
4.47244e-213
5.36763e-212
1.84475e-214
1.12264e-213
5.74298e-216
2.29791e-215
1.56729e-217
4.60066e-217
3.93623e-219
9.00421e-219
9.29772e-221
1.72165e-220
2.08931e-222
3.21396e-222
4.49606e-224
5.85379e-224
9.30284e-226
1.03949e-225
1.85544e-227
1.79826e-227
3.57271e-229
3.02808e-229
6.64753e-231
4.95877e-231
1.1957e-232
7.88948e-233
2.07928e-234
1.21825e-234
3.49504e-236
1.82369e-236
5.67613e-238
2.64341e-238
8.90115e-240
3.70522e-240
1.34676e-241
5.01524e-242
1.96411e-243
6.54553e-244
2.75804e-245
8.22368e-246
3.72428e-247
9.92875e-248
4.82925e-249
1.14975e-249
6.0038e-251
1.27436e-251
7.14368e-253
1.34892e-253
8.11946e-255
1.36023e-255
8.79653e-257
1.30317e-257
9.06252e-259
1.18263e-259
8.85527e-261
1.01326e-261
8.1829e-263
8.1661e-264
7.12782e-265
6.16492e-266
5.8314e-267
4.33931e-268
4.46249e-269
2.83246e-270
3.17943e-271
1.704e-272
2.09786e-273
9.37991e-275
1.27404e-275
4.68414e-277
7.07037e-278
2.1003e-279
3.55506e-280
8.34904e-282
1.60297e-282
2.89559e-284
6.39986e-285
8.5804e-287
2.22653e-287
2.11151e-289
6.61045e-290
4.14141e-292
1.6279e-292
6.06805e-295
3.19136e-295
5.9033e-298
4.66826e-298
2.8613e-301
4.52859e-301
3.36173e-307
2.18617e-304
-3.35005e-301
2.56475e-304
-6.93152e-298
5.32811e-301
-7.12823e-295
5.4948e-298
-4.86343e-292
3.7551e-295
-2.47793e-289
1.91408e-292
-1.00605e-286
7.76536e-290
-3.39162e-284
2.61279e-287
-9.76855e-282
7.50164e-285
-2.45457e-279
1.87672e-282
-5.46777e-277
4.15712e-280
-1.09359e-274
8.25753e-278
-1.98425e-272
1.4861e-275
-3.29424e-270
2.444e-273
-5.04051e-268
3.6994e-271
-7.15225e-266
5.18579e-269
-9.46215e-264
6.76807e-267
-1.17262e-261
8.26233e-265
-1.36692e-259
9.47342e-263
-1.50437e-257
1.0239e-260
-1.5683e-255
1.04655e-258
-1.55333e-253
1.01457e-256
-1.46566e-251
9.35314e-255
-1.3207e-249
8.21895e-253
-1.13909e-247
6.89896e-251
-9.42301e-246
5.54241e-249
-7.49078e-244
4.26896e-247
-5.73232e-242
3.15748e-245
-4.22966e-240
2.24577e-243
-3.01374e-238
1.53795e-241
-2.07653e-236
1.0152e-239
-1.38536e-234
6.46566e-238
-8.95999e-233
3.97616e-236
-5.62416e-231
2.36251e-234
-3.42978e-229
1.35682e-232
-2.03403e-227
7.53355e-231
-1.17414e-225
4.04365e-229
-6.60263e-224
2.09729e-227
-3.61985e-222
1.05015e-225
-1.93623e-220
5.06854e-224
-1.01113e-218
2.35223e-222
-5.15848e-217
1.0454e-220
-2.57257e-215
4.41983e-219
-1.25487e-213
1.75756e-217
-5.99026e-212
6.4328e-216
-2.79974e-210
2.06478e-214
-1.28164e-208
5.00981e-213
-5.74747e-207
1.90826e-212
-2.24988e-205
-2.75274e-206
-7.65354e-204
-2.05842e-204
-2.26261e-202
-9.83838e-203
-5.80119e-201
-3.63415e-201
-1.28626e-199
-1.09375e-199
-2.45885e-198
-2.73766e-198
-4.04195e-197
-5.75164e-197
-5.70286e-196
-1.01905e-195
-6.89949e-195
-1.52723e-194
-7.15932e-194
-1.94079e-193
-6.38799e-193
-2.09707e-192
-4.93486e-192
-1.93508e-191
-3.33726e-191
-1.53778e-190
-1.99252e-190
-1.06592e-189
-1.04987e-189
-6.50899e-189
-4.86141e-189
-3.50315e-188
-1.98754e-188
-1.65564e-187
-7.28545e-188
-6.90849e-187
-2.44296e-187
-2.58539e-186
-7.60785e-187
-8.85249e-186
-2.20417e-186
-2.8156e-185
-5.91871e-186
-8.3333e-185
-1.47e-185
-2.28732e-184
-3.38427e-185
-5.81378e-184
-7.25437e-185
-1.37224e-183
-1.45655e-184
-3.02228e-183
-2.75706e-184
-6.24918e-183
-4.95544e-184
-1.22068e-182
-8.50476e-184
-2.26857e-182
-1.40028e-183
-4.03364e-182
-2.21844e-183
-6.89419e-182
-3.38764e-183
-1.13627e-181
-4.99145e-183
-1.80927e-181
-7.10338e-183
-2.78681e-181
-9.77337e-183
-4.15765e-181
-1.30138e-182
-6.01614e-181
-1.67828e-182
-8.45516e-181
-2.09773e-182
-1.15553e-180
-2.54325e-182
-1.53757e-180
-2.99229e-182
-1.99475e-180
-3.41735e-182
-2.52629e-180
-3.78791e-182
-3.12711e-180
-4.07254e-182
-3.7874e-180
-4.24173e-182
-4.49246e-180
-4.27095e-182
-5.22335e-180
-4.14299e-182
-5.9576e-180
-3.84945e-182
-6.67103e-180
-3.38307e-182
-7.33734e-180
-2.69012e-182
-7.90728e-180
-1.51259e-182
-8.12376e-180
-9.88619e-184
-6.40518e-180
-2.84707e-193
-6.80686e-181
-5.22565e-190
4.88388e-190
-7.50775e-187
8.06156e-181
-4.72897e-178
1.06022e-179
-3.87824e-177
1.83602e-179
-4.8226e-177
2.31897e-179
-4.73212e-177
2.66427e-179
-4.44347e-177
2.89448e-179
-4.08335e-177
3.00984e-179
-3.68131e-177
3.01455e-179
-3.25649e-177
2.91927e-179
-2.82597e-177
2.73984e-179
-2.40463e-177
2.49559e-179
-2.00492e-177
2.20766e-179
-1.63664e-177
1.89704e-179
-1.3067e-177
1.58321e-179
-1.01927e-177
1.28268e-179
-7.75816e-178
1.00812e-179
-5.75456e-178
7.68109e-180
-4.15457e-178
5.6693e-180
-2.91601e-178
4.04937e-180
-1.9869e-178
2.7961e-180
-1.31248e-178
1.86464e-180
-8.39407e-179
1.19968e-180
-5.19123e-179
7.43436e-181
-3.09874e-179
4.42447e-181
-1.77989e-179
2.51756e-181
-9.79358e-180
1.36235e-181
-5.13499e-180
6.96284e-182
-2.54825e-180
3.34056e-182
-1.18992e-180
1.49566e-182
-5.19716e-181
6.22039e-183
-2.11246e-181
2.39701e-183
-7.96482e-182
8.57326e-184
-2.78866e-182
2.85632e-184
-9.09529e-183
8.84826e-185
-2.75827e-183
2.51107e-185
-7.66385e-184
6.40092e-186
-1.9134e-184
1.44341e-186
-4.22582e-185
2.86609e-187
-8.21041e-186
5.03267e-188
-1.40847e-186
7.8144e-189
-2.13131e-187
1.06298e-189
-2.81398e-188
1.25225e-190
-3.19862e-189
1.26894e-191
-3.1037e-190
1.10347e-192
-2.55987e-191
8.2344e-194
-1.78966e-192
5.27936e-195
-1.05783e-193
2.91491e-196
-5.27085e-195
1.39075e-197
-2.20435e-196
5.75862e-199
-7.6737e-198
2.07947e-200
-2.18297e-199
6.58233e-202
-4.8419e-201
1.83568e-203
-7.1331e-203
4.53129e-205
-2.84496e-206
1.09138e-206
2.69672e-209
2.5685e-208
1.28718e-210
5.90543e-210
4.48096e-212
1.32612e-211
1.35343e-213
2.90759e-213
3.74257e-215
6.22214e-215
9.7013e-217
1.299e-216
2.38657e-218
2.64439e-218
5.61166e-220
5.24607e-220
1.2667e-221
1.01359e-221
2.75235e-223
1.90589e-223
5.76664e-225
3.48505e-225
1.1662e-226
6.19191e-227
2.27762e-228
1.06793e-228
4.2965e-230
1.78622e-230
7.82739e-232
2.89417e-232
1.37666e-233
4.53738e-234
2.33614e-235
6.87432e-236
3.82214e-237
1.00509e-237
6.02359e-239
1.41608e-239
9.13441e-241
1.91951e-241
1.33122e-242
2.49895e-243
1.86192e-244
3.1187e-245
2.4954e-246
3.72351e-247
3.19919e-248
4.24349e-249
3.91586e-250
4.60495e-251
4.56651e-252
4.74559e-253
5.06165e-254
4.63052e-255
5.3189e-256
4.26397e-257
5.28346e-258
3.69186e-259
4.94515e-260
2.99313e-261
4.34544e-262
2.26165e-263
3.57032e-264
1.58422e-265
2.73014e-266
1.02239e-267
1.93267e-268
6.03516e-270
1.2588e-270
3.23087e-272
7.48966e-273
1.5525e-274
4.03615e-275
6.61166e-277
1.94986e-277
2.45585e-279
8.33816e-280
7.79172e-282
3.1061e-282
2.05237e-284
9.87128e-285
4.30755e-287
2.60135e-287
6.75213e-290
5.45578e-290
7.02598e-293
8.53558e-293
3.64233e-296
8.85422e-296
5.47493e-302
4.57052e-299
-4.26061e-296
5.35572e-299
-8.25221e-293
1.04181e-295
-7.93984e-290
1.00548e-292
-5.06636e-287
6.42812e-290
-2.41332e-284
3.06415e-287
-9.1574e-282
1.16213e-284
-2.88434e-279
3.65419e-282
-7.75907e-277
9.8015e-280
-1.82033e-274
2.29001e-277
-3.78473e-272
4.73572e-275
-7.06282e-270
8.77906e-273
-1.19527e-267
1.474e-270
-1.85019e-265
2.2607e-268
-2.63856e-263
3.19011e-266
-3.48821e-261
4.16735e-264
-4.29784e-259
5.06656e-262
-4.95842e-257
5.75944e-260
-5.37871e-255
6.14661e-258
-5.50622e-253
6.18091e-256
-5.33704e-251
5.87533e-254
-4.91256e-249
5.29459e-252
-4.30569e-247
4.53505e-250
-3.60219e-245
3.70082e-248
-2.88303e-243
2.88337e-246
-2.21196e-241
2.14891e-244
-1.62992e-239
1.53463e-242
-1.15549e-237
1.05178e-240
-7.89351e-236
6.92765e-239
-5.20378e-234
4.39053e-237
-3.31516e-232
2.68032e-235
-2.04349e-230
1.57757e-233
-1.2202e-228
8.95871e-232
-7.06564e-227
4.91139e-230
-3.97158e-225
2.60031e-228
-2.16904e-223
1.32973e-226
-1.15195e-221
6.56676e-225
-5.95377e-220
3.13012e-223
-2.99677e-218
1.43863e-221
-1.46992e-216
6.36465e-220
-7.03005e-215
2.70308e-218
-3.27996e-213
1.09727e-216
-1.49353e-211
4.22705e-215
-6.63985e-210
1.52651e-213
-2.88295e-208
5.04754e-212
-1.22281e-206
1.44859e-210
-5.06762e-205
3.03691e-209
-2.05003e-203
-2.20942e-206
-7.33337e-202
-7.9847e-203
-2.30884e-200
-5.41786e-201
-6.3654e-199
-2.4352e-199
-1.5289e-197
-8.52142e-198
-3.18402e-196
-2.43361e-196
-5.72562e-195
-5.77893e-195
-8.8621e-194
-1.15085e-193
-1.17822e-192
-1.931e-192
-1.34427e-191
-2.73873e-191
-1.31652e-190
-3.29289e-190
-1.10958e-189
-3.36648e-189
-8.10475e-189
-2.93961e-188
-5.19085e-188
-2.21168e-187
-2.94173e-187
-1.45326e-186
-1.47476e-186
-8.42895e-186
-6.51261e-186
-4.31817e-185
-2.54586e-185
-1.94692e-184
-8.94528e-185
-7.77041e-184
-2.88097e-184
-2.78857e-183
-8.63187e-184
-9.17365e-183
-2.40955e-183
-2.8076e-182
-6.24377e-183
-8.006e-182
-1.4993e-182
-2.12027e-181
-3.34488e-182
-5.20953e-181
-6.96523e-182
-1.1914e-180
-1.36178e-181
-2.54904e-180
-2.51489e-181
-5.13267e-180
-4.41736e-181
-9.78277e-180
-7.41916e-181
-1.77693e-179
-1.19687e-180
-3.0922e-179
-1.85994e-180
-5.17867e-179
-2.7888e-180
-8.37219e-179
-4.03881e-180
-1.30892e-178
-5.65508e-180
-1.98149e-178
-7.66318e-180
-2.90829e-178
-1.00603e-179
-4.14425e-178
-1.28044e-179
-5.74161e-178
-1.58111e-179
-7.74313e-178
-1.89559e-179
-1.0177e-177
-2.20758e-179
-1.3054e-177
-2.49784e-179
-1.63615e-177
-2.74564e-179
-2.00617e-177
-2.93007e-179
-2.40903e-177
-3.03204e-179
-2.83565e-177
-3.03598e-179
-3.27469e-177
-2.93152e-179
-3.71303e-177
-2.7141e-179
-4.13679e-177
-2.37973e-179
-4.53107e-177
-1.89245e-179
-4.8676e-177
-1.07414e-179
-4.99494e-177
-7.50487e-181
-3.96653e-177
-3.76345e-190
-4.48743e-178
-5.99288e-187
3.16984e-187
-4.68001e-184
3.18038e-178
-1.75919e-175
4.01683e-177
-1.37837e-174
6.9173e-177
-1.70183e-174
8.71196e-177
-1.66474e-174
1.00049e-176
-1.56284e-174
1.08896e-176
-1.43936e-174
1.13657e-176
-1.30293e-174
1.14421e-176
-1.15887e-174
1.11504e-176
-1.0123e-174
1.05422e-176
-8.6793e-175
9.68278e-177
-7.2988e-175
8.64574e-177
-6.0151e-175
7.50601e-177
-4.85307e-175
6.33512e-177
-3.82911e-175
5.19571e-177
-2.95097e-175
4.13787e-177
-2.21841e-175
3.19786e-177
-1.62489e-175
2.39648e-177
-1.15821e-175
1.73966e-177
-8.02232e-176
1.22203e-177
-5.39207e-176
8.29846e-178
-3.51223e-176
5.44224e-178
-2.21437e-176
3.44137e-178
-1.34891e-176
2.09237e-178
-7.91603e-177
1.21797e-178
-4.45617e-177
6.75356e-179
-2.39434e-177
3.54377e-179
-1.22011e-177
1.74982e-179
-5.86568e-178
8.08366e-180
-2.64481e-178
3.47697e-180
-1.11249e-178
1.38823e-180
-4.34888e-179
5.15185e-181
-1.58076e-179
1.78314e-181
-5.35813e-180
5.74708e-182
-1.69104e-180
1.70012e-182
-4.89942e-181
4.52891e-183
-1.27919e-181
1.06996e-183
-2.96286e-182
2.23053e-184
-6.05049e-183
4.12049e-185
-1.09309e-183
6.74331e-186
-1.74507e-184
9.67845e-187
-2.43379e-185
1.20336e-187
-2.92356e-186
1.28686e-188
-2.99812e-187
1.18067e-189
-2.61312e-188
9.2898e-191
-1.92954e-189
6.27321e-192
-1.2033e-190
3.64261e-193
-6.31605e-192
1.82451e-194
-2.77762e-193
7.91644e-196
-1.01506e-194
2.99053e-197
-3.02842e-196
9.89014e-199
-7.05688e-198
2.88004e-200
-1.10861e-199
7.42776e-202
-2.02505e-202
1.85667e-203
5.99491e-206
4.5296e-205
3.05938e-207
1.07842e-206
1.11406e-208
2.50517e-208
3.49858e-210
5.6768e-210
1.00294e-211
1.25444e-211
2.6901e-213
2.70211e-213
6.83824e-215
5.67112e-215
1.65961e-216
1.15909e-216
3.86293e-218
2.30562e-218
8.64789e-220
4.46057e-220
1.86536e-221
8.38696e-222
3.88101e-223
1.53135e-223
7.79302e-225
2.71278e-225
1.51054e-226
4.65803e-227
2.8261e-228
7.74423e-229
5.10179e-230
1.24522e-230
8.88189e-232
1.93404e-232
1.49013e-233
2.89771e-234
2.4071e-235
4.18198e-236
3.7399e-237
5.80445e-238
5.58211e-239
7.7348e-240
7.99309e-241
9.87727e-242
1.09633e-242
1.20626e-243
1.43794e-244
1.40573e-245
1.80005e-246
1.55942e-247
2.14616e-248
1.64233e-249
2.43143e-250
1.63724e-251
2.61071e-252
1.5399e-253
2.64912e-254
1.36146e-255
2.53218e-256
1.12684e-257
2.2718e-258
8.69026e-260
1.90526e-260
6.21148e-262
1.48676e-262
4.08949e-264
1.0738e-264
2.4622e-266
7.13408e-267
1.34415e-268
4.32876e-269
6.58508e-271
2.37849e-271
2.85865e-273
1.17134e-273
1.08216e-275
5.10515e-276
3.49853e-278
1.9379e-278
9.38844e-281
6.27466e-281
2.00717e-283
1.68438e-283
3.20437e-286
3.59791e-286
3.39549e-289
5.73209e-289
1.79246e-292
6.05426e-292
2.9765e-298
3.1819e-295
-2.1137e-292
3.75878e-295
-4.02231e-289
7.18484e-292
-3.80122e-286
6.81199e-289
-2.38189e-283
4.27721e-286
-1.11396e-280
2.00206e-283
-4.14926e-278
7.45469e-281
-1.28264e-275
2.30087e-278
-3.38569e-273
6.05663e-276
-7.79256e-271
1.38845e-273
-1.58916e-268
2.81671e-271
-2.90821e-266
5.12129e-269
-4.82541e-264
8.43161e-267
-7.32166e-262
1.26777e-264
-1.02326e-259
1.75345e-262
-1.3254e-257
2.24457e-260
-1.59961e-255
2.67343e-258
-1.80724e-253
2.97652e-256
-1.91932e-251
3.11046e-254
-1.92309e-249
3.06186e-252
-1.8239e-247
2.84831e-250
-1.64224e-245
2.51121e-248
-1.40756e-243
2.10376e-246
-1.15119e-241
1.67856e-244
-9.00408e-240
1.27827e-242
-6.74881e-238
9.3084e-241
-4.85643e-236
6.49285e-239
-3.36089e-234
4.34478e-237
-2.24038e-232
2.79297e-235
-1.44062e-230
1.72685e-233
-8.94794e-229
1.02798e-231
-5.375e-227
5.89725e-230
-3.12617e-225
3.26251e-228
-1.76231e-223
1.74152e-226
-9.63847e-222
8.97271e-225
-5.1189e-220
4.46249e-223
-2.64205e-218
2.14189e-221
-1.32624e-216
9.91588e-220
-6.47899e-215
4.42297e-218
-3.08217e-213
1.89744e-216
-1.42856e-211
7.80651e-215
-6.45399e-210
3.06636e-213
-2.84324e-208
1.14147e-211
-1.22178e-206
3.97586e-210
-5.12234e-205
1.26427e-208
-2.09566e-203
3.4681e-207
-8.36748e-202
6.79903e-206
-3.23904e-200
-2.16277e-202
-1.10931e-198
-1.25133e-199
-3.34158e-197
-7.95675e-198
-8.80226e-196
-3.40235e-196
-2.01647e-194
-1.13451e-194
-3.99767e-193
-3.08439e-193
-6.83101e-192
-6.96031e-192
-1.00317e-190
-1.31484e-190
-1.26411e-189
-2.08948e-189
-1.36624e-188
-2.8039e-188
-1.2673e-187
-3.18829e-187
-1.01163e-186
-3.08261e-186
-7.00119e-186
-2.54606e-185
-4.25354e-185
-1.8129e-184
-2.2909e-184
-1.12887e-183
-1.09378e-183
-6.21599e-183
-4.61005e-183
-3.02936e-182
-1.72441e-182
-1.30226e-181
-5.81243e-182
-4.96996e-181
-1.79917e-181
-1.71043e-180
-5.18879e-181
-5.40659e-180
-1.39592e-180
-1.59214e-179
-3.49107e-180
-4.373e-179
-8.10569e-180
-1.11702e-178
-1.75259e-179
-2.65206e-178
-3.54604e-179
-5.87516e-178
-6.75285e-179
-1.22095e-177
-1.21709e-178
-2.39422e-177
-2.08975e-178
-4.45315e-177
-3.43563e-178
-7.90649e-177
-5.43159e-178
-1.34672e-176
-8.28073e-178
-2.21014e-176
-1.2193e-177
-3.50492e-176
-1.73575e-177
-5.38029e-176
-2.3913e-177
-8.00474e-176
-3.19151e-177
-1.15578e-175
-4.13072e-177
-1.62177e-175
-5.18847e-177
-2.21474e-175
-6.32897e-177
-2.94712e-175
-7.50283e-177
-3.82579e-175
-8.64799e-177
-4.85164e-175
-9.69368e-177
-6.0177e-175
-1.05654e-176
-7.30872e-175
-1.119e-176
-8.70128e-175
-1.15022e-176
-1.01637e-174
-1.14503e-176
-1.16577e-174
-1.10015e-176
-1.31399e-174
-1.01439e-176
-1.45651e-174
-8.86644e-177
-1.58857e-174
-7.04189e-177
-1.7009e-174
-4.02231e-177
-1.74262e-174
-2.98001e-178
-1.39178e-174
-2.56996e-187
-1.66844e-175
-3.85856e-184
1.38418e-184
-1.97253e-181
8.29779e-176
-4.3673e-173
1.00525e-174
-3.27077e-172
1.72737e-174
-4.02238e-172
2.17664e-174
-3.93273e-172
2.50376e-174
-3.69624e-172
2.73326e-174
-3.41364e-172
2.86494e-174
-3.10313e-172
2.89979e-174
-2.77508e-172
2.84415e-174
-2.43996e-172
2.70909e-174
-2.10782e-172
2.50928e-174
-1.78776e-172
2.26167e-174
-1.48743e-172
1.98398e-174
-1.21276e-172
1.69359e-174
-9.67952e-173
1.40622e-174
-7.55359e-173
1.13493e-174
-5.75574e-173
8.89772e-175
-4.27766e-173
6.77106e-175
-3.09699e-173
4.99613e-175
-2.18095e-173
3.5707e-175
-1.49179e-173
2.4693e-175
-9.89778e-174
1.65075e-175
-6.36227e-174
1.06515e-175
-3.95532e-174
6.61589e-176
-2.37151e-174
3.93955e-176
-1.36578e-174
2.23829e-176
-7.52024e-175
1.20589e-176
-3.93548e-175
6.1295e-177
-1.94843e-175
2.92285e-177
-9.07386e-176
1.30083e-177
-3.95223e-176
5.38402e-178
-1.60286e-176
2.07399e-178
-6.05192e-177
7.45891e-179
-2.1326e-177
2.50136e-179
-7.00568e-178
7.7143e-180
-2.11708e-178
2.14853e-180
-5.78436e-179
5.32199e-181
-1.40661e-179
1.16579e-181
-3.02266e-180
2.26728e-182
-5.75677e-181
3.91321e-183
-9.70536e-182
5.93034e-184
-1.43147e-182
7.78838e-185
-1.81978e-183
8.79747e-186
-1.97556e-184
8.5237e-187
-1.82292e-185
7.07759e-188
-1.42448e-186
5.03713e-189
-9.39114e-188
3.07684e-190
-5.20273e-189
1.61744e-191
-2.41013e-190
7.34623e-193
-9.25854e-192
2.89686e-194
-2.89879e-193
9.9723e-196
-7.08822e-195
3.01437e-197
-1.17805e-196
8.0485e-199
-3.32306e-199
2.07228e-200
8.24311e-203
5.20207e-202
4.42956e-204
1.27316e-203
1.67013e-205
3.03753e-205
5.40583e-207
7.0633e-207
1.59362e-208
1.6004e-208
4.38908e-210
3.53216e-210
1.14432e-211
7.59032e-212
2.84578e-213
1.58737e-213
6.78184e-215
3.22886e-215
1.55331e-216
6.38411e-217
3.42563e-218
1.22609e-218
7.28256e-220
2.28547e-220
1.49335e-221
4.13127e-222
2.95441e-223
7.23493e-224
5.63886e-225
1.22626e-225
1.03798e-226
2.00926e-227
1.84181e-228
3.17885e-229
3.14814e-230
4.84962e-231
5.17897e-232
7.12401e-233
8.19152e-234
1.00611e-234
1.24423e-235
1.36373e-236
1.81246e-237
1.77081e-238
2.52816e-239
2.19839e-240
3.37115e-241
2.60356e-242
4.28911e-243
2.93433e-244
5.19599e-245
3.13887e-246
5.9796e-247
3.17746e-248
6.5202e-249
3.03394e-250
6.71718e-251
2.7225e-252
6.51715e-253
2.28651e-254
5.93348e-255
1.78894e-256
5.04866e-257
1.29694e-258
3.99622e-259
8.65902e-261
2.92705e-261
5.28582e-263
1.97176e-263
2.92512e-265
1.21285e-265
1.4524e-267
6.7545e-268
6.3891e-270
3.37088e-270
2.45047e-272
1.48855e-272
8.0251e-275
5.7241e-275
2.18121e-277
1.87722e-277
4.72238e-280
5.10323e-280
7.63362e-283
1.10375e-282
8.18919e-286
1.78027e-285
4.37615e-289
1.90339e-288
7.52918e-295
1.01251e-291
-5.22203e-289
1.21045e-291
-9.81751e-286
2.28613e-288
-9.16429e-283
2.14124e-285
-5.67122e-280
1.32798e-282
-2.619e-277
6.13871e-280
-9.63116e-275
2.25698e-277
-2.9389e-272
6.87732e-275
-7.65639e-270
1.78696e-272
-1.73892e-267
4.04293e-270
-3.49874e-265
8.09309e-268
-6.31588e-263
1.4517e-265
-1.03353e-260
2.3575e-263
-1.54631e-258
3.49577e-261
-2.1305e-256
4.76724e-259
-2.71994e-254
6.01575e-257
-3.23479e-252
7.06176e-255
-3.60056e-250
7.74719e-253
-3.76634e-248
7.97535e-251
-3.71607e-246
7.73204e-249
-3.46965e-244
7.08225e-247
-3.07471e-242
6.1465e-245
-2.59297e-240
5.06737e-243
-2.08599e-238
3.9778e-241
-1.60439e-236
2.97932e-239
-1.18213e-234
2.13315e-237
-8.3594e-233
1.46249e-235
-5.68305e-231
9.61579e-234
-3.72013e-229
6.07138e-232
-2.34818e-227
3.68566e-230
-1.43111e-225
2.15335e-228
-8.43164e-224
1.21188e-226
-4.80768e-222
6.57436e-225
-2.65577e-220
3.43966e-223
-1.42261e-218
1.73611e-221
-7.39597e-217
8.45405e-220
-3.73473e-215
3.97072e-218
-1.8331e-213
1.79771e-216
-8.75077e-212
7.8366e-215
-4.06522e-210
3.28312e-213
-1.83869e-208
1.31802e-211
-8.10025e-207
5.04686e-210
-3.47695e-205
1.82938e-208
-1.45452e-203
6.19525e-207
-5.93127e-202
1.91101e-205
-2.3579e-200
5.06196e-204
-9.13838e-199
9.42265e-203
-3.41605e-197
-3.66993e-199
-1.1267e-195
-1.34118e-196
-3.25908e-194
-8.05589e-195
-8.21959e-193
-3.28081e-193
-1.79768e-191
-1.04177e-191
-3.39333e-190
-2.69233e-190
-5.50785e-189
-5.76317e-189
-7.66903e-188
-1.03065e-187
-9.15117e-187
-1.54807e-186
-9.36021e-186
-1.96156e-185
-8.21584e-185
-2.10549e-184
-6.20649e-184
-1.92201e-183
-4.06685e-183
-1.49942e-182
-2.3423e-182
-1.00926e-181
-1.19806e-181
-5.94984e-181
-5.44306e-181
-3.10718e-180
-2.18788e-180
-1.43884e-179
-7.82746e-180
-5.89095e-179
-2.5307e-179
-2.14837e-178
-7.52832e-179
-7.08863e-178
-2.08943e-178
-2.15258e-177
-5.4152e-178
-6.09719e-177
-1.30641e-177
-1.61216e-176
-2.93151e-177
-3.96927e-176
-6.14068e-177
-9.10101e-176
-1.20697e-176
-1.95207e-175
-2.23865e-176
-3.93922e-175
-3.93774e-176
-7.52197e-175
-6.60945e-176
-1.36525e-174
-1.06367e-175
-2.36937e-174
-1.648e-175
-3.95013e-174
-2.46474e-175
-6.35214e-174
-3.56372e-175
-9.88031e-174
-4.98628e-175
-1.48901e-173
-6.75823e-175
-2.17687e-173
-8.88235e-175
-3.09146e-173
-1.13325e-174
-4.2708e-173
-1.4046e-174
-5.74804e-173
-1.69232e-174
-7.54608e-173
-1.98351e-174
-9.67405e-173
-2.26257e-174
-1.21275e-172
-2.51223e-174
-1.48844e-172
-2.71482e-174
-1.79049e-172
-2.85337e-174
-2.11326e-172
-2.91315e-174
-2.44935e-172
-2.88285e-174
-2.79017e-172
-2.75582e-174
-3.12615e-172
-2.53022e-174
-3.44741e-172
-2.2042e-174
-3.74386e-172
-1.74768e-174
-3.99498e-172
-1.00353e-174
-4.08574e-172
-7.86196e-176
-3.27945e-172
-1.16594e-184
-4.15766e-173
-1.67036e-181
4.49984e-182
-6.13999e-179
1.58747e-173
-7.89345e-171
1.83862e-172
-5.64181e-170
3.15311e-172
-6.91905e-170
3.97957e-172
-6.77106e-170
4.58938e-172
-6.37735e-170
5.02785e-172
-5.90919e-170
5.29427e-172
-5.39572e-170
5.38872e-172
-4.85222e-170
5.32017e-172
-4.29448e-170
5.10586e-172
-3.73821e-170
4.76968e-172
-3.19795e-170
4.33996e-172
-2.68638e-170
3.84715e-172
-2.21367e-170
3.32191e-172
-1.78747e-170
2.79284e-172
-1.41265e-170
2.28461e-172
-1.09125e-170
1.8173e-172
-8.23085e-171
1.4046e-172
-6.05408e-171
1.05366e-172
-4.33568e-171
7.66309e-173
-3.01877e-171
5.39766e-173
-2.04063e-171
3.67872e-173
-1.33761e-171
2.42236e-173
-8.48786e-172
1.53712e-173
-5.19993e-172
9.3635e-174
-3.06389e-172
5.45138e-174
-1.72895e-172
3.01591e-174
-9.29317e-173
1.57859e-174
-4.73993e-173
7.77404e-175
-2.28118e-173
3.58234e-175
-1.02961e-173
1.53811e-175
-4.33553e-174
6.15389e-176
-1.70161e-174
2.3006e-176
-6.23674e-175
8.02949e-177
-2.13317e-175
2.58253e-177
-6.72625e-176
7.52583e-178
-1.92482e-176
1.95686e-178
-4.92063e-177
4.50982e-179
-1.11423e-177
9.2444e-180
-2.23975e-178
1.68452e-180
-3.99201e-179
2.69902e-181
-6.23558e-180
3.75009e-182
-8.40392e-181
4.4825e-183
-9.67733e-182
4.59577e-184
-9.47474e-183
4.0361e-185
-7.85419e-184
3.03449e-186
-5.48796e-185
1.95449e-187
-3.21737e-186
1.08085e-188
-1.5741e-187
5.15041e-190
-6.37277e-189
2.12456e-191
-2.09875e-190
7.62716e-193
-5.39435e-192
2.39675e-194
-9.47666e-194
6.6318e-196
-3.48872e-196
1.76127e-197
8.24899e-200
4.55545e-199
4.66106e-201
1.14754e-200
1.82006e-202
2.81527e-202
6.0759e-204
6.72567e-204
1.84344e-205
1.56432e-205
5.21789e-207
3.54132e-207
1.39657e-208
7.80006e-209
3.56209e-210
1.67082e-210
8.69924e-212
3.47887e-212
2.04034e-213
7.03658e-214
4.60468e-215
1.38168e-215
1.00112e-216
2.63177e-217
2.09823e-218
4.85871e-219
4.24052e-220
8.68617e-221
8.26368e-222
1.50221e-222
1.55238e-223
2.51047e-224
2.80986e-225
4.04927e-226
4.89711e-227
6.29554e-228
8.21105e-229
9.42119e-230
1.32319e-230
1.35496e-231
2.04694e-232
1.86967e-233
3.03575e-234
2.47073e-235
4.30977e-236
3.1206e-237
5.8471e-238
3.75882e-239
7.56683e-240
4.30747e-241
9.32123e-242
4.68379e-243
1.09048e-243
4.8184e-245
1.20845e-245
4.67435e-247
1.26494e-247
4.26058e-249
1.24666e-249
3.63379e-251
1.15267e-251
2.88651e-253
9.9582e-254
2.1242e-255
8.00146e-256
1.4393e-257