/*--------------------------------*- C++ -*----------------------------------*\
| =========                 |                                                 |
| \\      /  F ield         | OpenFOAM: The Open Source CFD Toolbox           |
|  \\    /   O peration     | Version:  2412                                  |
|   \\  /    A nd           | Website:  www.openfoam.com                      |
|    \\/     M anipulation  |                                                 |
\*---------------------------------------------------------------------------*/
FoamFile
{
    version     2.0;
    format      ascii;
    arch        "LSB;label=32;scalar=64";
    class       volScalarField;
    location    "1.2";
    object      alpha.water;
}
// * * * * * * * * * * * * * * * * * * * * * * * * * * * * * * * * * * * * * //

dimensions      [0 0 0 0 0 0 0];

internalField   nonuniform List<scalar> 
40000
(
3.40118e-186
5.71242e-177
5.10538e-176
6.56512e-176
6.56773e-176
6.19896e-176
5.67045e-176
5.06156e-176
4.41944e-176
3.77761e-176
3.16054e-176
2.5864e-176
2.06844e-176
1.61486e-176
1.22935e-176
9.11432e-177
6.57189e-177
4.60292e-177
3.12785e-177
2.05933e-177
1.3119e-177
8.07631e-178
4.79817e-178
2.74545e-178
1.50797e-178
7.91153e-179
3.94135e-179
1.85029e-179
8.12834e-180
3.32066e-180
1.25601e-180
4.39028e-181
1.42145e-181
4.27896e-182
1.1946e-182
3.04421e-183
6.93366e-184
1.38982e-184
2.44156e-185
3.77524e-186
5.13709e-187
6.09569e-188
6.23724e-189
5.46409e-190
4.08527e-191
2.60353e-192
1.41351e-193
6.53397e-195
2.56797e-196
8.54971e-198
2.3903e-199
5.49804e-201
9.88175e-203
1.35202e-204
1.82238e-206
2.41854e-208
3.15859e-210
4.05724e-212
5.12313e-214
6.35562e-216
7.74147e-218
9.25163e-220
1.08391e-221
1.24381e-223
1.39664e-225
1.53296e-227
1.64292e-229
1.71729e-231
1.74861e-233
1.73232e-235
1.66758e-237
1.55768e-239
1.40988e-241
1.23465e-243
1.04441e-245
8.51966e-248
6.6896e-250
5.04606e-252
3.64884e-254
2.52352e-256
1.66502e-258
1.04519e-260
6.22326e-263
3.50299e-265
1.8571e-267
9.23406e-270
4.28606e-272
1.8471e-274
7.34495e-277
2.6755e-279
8.85135e-282
2.63215e-284
6.9468e-287
1.60127e-289
3.15698e-292
5.17417e-295
6.76591e-298
6.61598e-301
4.29971e-304
1.39357e-307
1.67799e-307
5.18213e-304
7.96307e-301
8.12715e-298
6.20101e-295
3.77444e-292
1.90981e-289
8.26523e-287
3.12418e-284
1.04811e-281
3.16079e-279
8.65753e-277
2.17236e-274
5.02989e-272
1.08137e-269
2.17029e-267
4.0855e-265
7.24381e-263
1.21424e-260
1.93067e-258
2.92073e-256
4.21551e-254
5.81934e-252
7.70125e-250
9.79119e-248
1.19826e-245
1.41416e-243
1.6122e-241
1.77833e-239
1.90075e-237
1.97142e-235
1.98684e-233
1.94822e-231
1.86099e-229
1.73378e-227
1.57719e-225
1.40245e-223
1.22027e-221
1.03992e-219
8.68786e-218
7.12093e-216
5.73036e-214
4.53023e-212
3.52047e-210
2.69062e-208
2.02351e-206
1.4983e-204
1.09288e-202
6.07246e-201
2.63254e-199
9.37858e-198
2.80283e-196
7.08997e-195
1.52385e-193
2.78736e-192
4.34253e-191
5.76663e-190
6.53679e-189
6.34647e-188
5.31654e-187
3.88686e-186
2.50211e-185
1.41806e-184
7.04552e-184
3.08239e-183
1.20612e-182
4.31031e-182
1.42932e-181
4.40756e-181
1.25911e-180
3.32447e-180
8.1284e-180
1.84848e-179
3.93409e-179
7.89055e-179
1.50282e-178
2.73432e-178
4.77651e-178
8.03767e-178
1.30546e-177
2.04913e-177
3.11237e-177
4.58024e-177
6.53952e-177
9.06924e-177
1.22328e-176
1.60702e-176
2.05882e-176
2.57536e-176
3.14888e-176
3.76691e-176
4.41266e-176
5.06581e-176
5.70358e-176
6.30097e-176
6.81222e-176
7.01247e-176
5.53087e-176
5.71085e-177
2.56988e-186
1.12043e-182
1.13316e-173
9.36294e-173
1.1694e-172
1.15445e-172
1.08592e-172
9.95798e-173
8.93624e-173
7.85598e-173
6.76698e-173
5.70954e-173
4.71564e-173
3.80938e-173
3.00673e-173
2.31623e-173
1.73934e-173
1.27155e-173
9.03856e-174
6.23998e-174
4.17822e-174
2.7099e-174
1.70029e-174
1.03072e-174
6.0252e-175
3.38557e-175
1.8199e-175
9.3058e-176
4.49341e-176
2.03534e-176
8.59596e-177
3.36961e-177
1.2233e-177
4.1212e-178
1.29314e-178
3.77118e-179
1.00675e-179
2.41088e-180
5.10024e-181
9.48976e-182
1.5595e-182
2.26375e-183
2.87726e-184
3.16751e-185
3.0003e-186
2.43947e-187
1.70252e-188
1.02111e-189
5.2742e-191
2.35273e-192
9.09278e-194
3.05373e-195
8.93037e-197
2.27405e-198
5.06154e-200
1.10486e-201
2.36477e-203
4.96106e-205
1.01966e-206
2.05211e-208
4.04169e-210
7.78556e-212
1.46593e-213
2.6962e-215
4.84069e-217
8.47724e-219
1.44693e-220
2.40499e-222
3.8891e-224
6.11261e-226
9.32788e-228
1.38046e-229
1.97886e-231
2.74402e-233
3.6756e-235
4.74874e-237
5.9078e-239
7.06486e-241
8.10549e-243
8.90332e-245
9.34195e-247
9.34033e-249
8.87456e-251
7.98898e-253
6.79132e-255
5.4316e-257
4.07012e-259
2.84413e-261
1.84341e-263
1.10138e-265
6.02205e-268
2.98763e-270
1.33106e-272
5.25825e-275
1.81256e-277
5.33917e-280
1.30626e-282
2.54749e-285
3.71191e-288
3.59155e-291
1.7316e-294
2.03146e-294
4.22563e-291
4.36912e-288
2.99747e-285
1.53587e-282
6.27186e-280
2.12695e-277
6.16332e-275
1.55832e-272
3.49348e-270
7.03295e-268
1.28465e-265
2.14746e-263
3.30904e-261
4.72944e-259
6.30349e-257
7.87151e-255
9.24799e-253
1.02602e-250
1.07851e-248
1.07735e-246
1.02548e-244
9.32418e-243
8.11692e-241
6.77908e-239
5.44226e-237
4.20712e-235
3.13687e-233
2.25929e-231
1.57408e-229
1.06226e-227
6.952e-226
4.41735e-224
2.72801e-222
1.63905e-220
9.58965e-219
5.46823e-217
3.04139e-215
1.6512e-213
8.75657e-212
4.53894e-210
2.30107e-208
1.1416e-206
5.54566e-205
2.63921e-203
1.23104e-201
5.62985e-200
2.52479e-198
9.89382e-197
3.37256e-195
1.00008e-193
2.57454e-192
5.73721e-191
1.10338e-189
1.82658e-188
2.59795e-187
3.17161e-186
3.32432e-185
2.99923e-184
2.34524e-183
1.60705e-182
9.73278e-182
5.20764e-181
2.4515e-180
1.02012e-179
3.81039e-179
1.3036e-178
4.14716e-178
1.22905e-177
3.3805e-177
8.61234e-177
2.03689e-176
4.49248e-176
9.29636e-176
1.81677e-175
3.3776e-175
6.00793e-175
1.0274e-174
1.69444e-174
2.70027e-174
4.16329e-174
6.21805e-174
9.00783e-174
1.26743e-173
1.73406e-173
2.30984e-173
2.99965e-173
3.80258e-173
4.71096e-173
5.71006e-173
6.77771e-173
7.88517e-173
8.99859e-173
1.0081e-172
1.10926e-172
1.1961e-172
1.23136e-172
9.81667e-173
1.09008e-173
8.5706e-183
1.27606e-179
7.87054e-171
6.17099e-170
7.59474e-170
7.44153e-170
6.98571e-170
6.41789e-170
5.78378e-170
5.11384e-170
4.43514e-170
3.77125e-170
3.14187e-170
2.56244e-170
2.04382e-170
1.5925e-170
1.21073e-170
8.96965e-171
6.46769e-171
4.53392e-171
3.08568e-171
2.03616e-171
1.30111e-171
8.04116e-172
4.79758e-172
2.75479e-172
1.51536e-172
7.94221e-173
3.93836e-173
1.8363e-173
8.00263e-174
3.24445e-174
1.2205e-174
4.26725e-175
1.3916e-175
4.22494e-176
1.17654e-176
2.9464e-177
6.53491e-178
1.27771e-178
2.21159e-179
3.38872e-180
4.55361e-181
5.30476e-182
5.32111e-183
4.58513e-184
3.39381e-185
2.16041e-186
1.18553e-187
5.62725e-189
2.32037e-190
8.35246e-192
2.63814e-193
7.34864e-195
1.81367e-196
4.37201e-198
1.03086e-199
2.37708e-201
5.35926e-203
1.18102e-204
2.54298e-206
5.3479e-208
1.09791e-209
2.19919e-211
4.29538e-213
8.17517e-215
1.51505e-216
2.73177e-218
4.78817e-220
8.15064e-222
1.34607e-223
2.15437e-225
3.33759e-227
4.9986e-229
7.22718e-231
1.00727e-232
1.35109e-234
1.74108e-236
2.15147e-238
2.54412e-240
2.87245e-242
3.08896e-244
3.15534e-246
3.05254e-248
2.78754e-250
2.39401e-252
1.92564e-254
1.44388e-256
1.00384e-258
6.43121e-261
3.76942e-263
2.00396e-265
9.56444e-268
4.0464e-270
1.49334e-272
4.70821e-275
1.23256e-277
2.57142e-280
4.00713e-283
4.14582e-286
2.13726e-289
2.50443e-289
4.87803e-286
4.72031e-283
3.02966e-280
1.45181e-277
5.54277e-275
1.75681e-272
4.7564e-270
1.12325e-267
2.35122e-265
4.41818e-263
7.53034e-261
1.17416e-258
1.68705e-256
2.2475e-254
2.79108e-252
3.24628e-250
3.55091e-248
3.66637e-246
3.58517e-244
3.33009e-242
2.94607e-240
2.48852e-238
2.01151e-236
1.55912e-234
1.161e-232
8.32035e-231
5.7478e-229
3.8332e-227
2.47127e-225
1.54216e-223
9.3263e-222
5.47184e-220
3.11777e-218
1.72684e-216
9.30539e-215
4.88246e-213
2.49622e-211
1.24439e-209
6.05237e-208
2.87356e-206
1.33244e-204
6.03659e-203
2.67302e-201
1.1572e-199
4.89906e-198
2.02856e-196
8.20759e-195
2.93945e-193
9.27469e-192
2.56511e-190
6.18681e-189
1.29509e-187
2.34323e-186
3.65282e-185
4.89612e-184
5.63741e-183
5.57742e-182
4.75355e-181
3.51485e-180
2.28124e-179
1.3115e-178
6.67724e-178
2.99797e-177
1.1929e-176
4.27144e-176
1.40366e-175
4.29656e-175
1.22692e-174
3.25672e-174
8.02226e-174
1.8387e-173
3.93975e-173
7.93891e-173
1.51375e-172
2.75032e-172
4.78767e-172
8.02208e-172
1.29778e-171
2.03074e-171
3.07746e-171
4.52223e-171
6.45211e-171
8.95025e-171
1.2085e-170
1.59022e-170
2.04202e-170
2.56204e-170
3.14436e-170
3.77894e-170
4.45148e-170
5.14409e-170
5.83613e-170
6.5055e-170
7.12879e-170
7.66275e-170
7.8791e-170
6.32556e-170
7.47073e-171
1.01011e-179
8.22507e-177
3.06688e-168
2.29898e-167
2.80824e-167
2.74245e-167
2.57356e-167
2.3694e-167
2.14383e-167
1.90572e-167
1.66357e-167
1.4252e-167
1.19744e-167
9.85833e-168
7.94488e-168
6.26087e-168
4.81871e-168
3.61751e-168
2.64587e-168
1.88325e-168
1.30263e-168
8.74455e-169
5.69001e-169
3.58448e-169
2.18224e-169
1.28013e-169
7.2037e-170
3.86866e-170
1.96953e-170
9.45094e-171
4.24967e-171
1.7818e-171
6.94468e-172
2.51928e-172
8.53474e-173
2.69584e-173
7.82523e-174
2.04785e-174
4.75833e-175
9.76718e-176
1.77852e-176
2.8721e-177
4.07197e-178
5.00632e-179
5.29937e-180
4.81758e-181
3.7597e-182
2.52067e-183
1.45462e-184
7.24808e-186
3.13168e-187
1.17922e-188
3.89121e-190
1.13175e-191
2.91821e-193
7.30033e-195
1.78428e-196
4.2603e-198
9.93579e-200
2.26282e-201
5.03101e-203
1.09159e-204
2.31034e-206
4.76749e-208
9.58636e-210
1.87713e-211
3.57692e-213
6.6277e-215
1.19313e-216
2.08492e-218
3.53293e-220
5.79902e-222
9.20969e-224
1.41338e-225
2.09317e-227
2.98705e-229
4.10094e-231
5.40723e-233
6.83444e-235
8.26381e-237
9.53759e-239
1.04813e-240
1.09383e-242
1.0808e-244
1.0078e-246
8.83575e-249
7.25358e-251
5.54968e-253
3.93611e-255
2.57197e-257
1.53719e-259
8.33183e-262
4.05342e-264
1.74768e-266
6.57213e-269
2.11097e-271
5.62909e-274
1.19603e-276
1.89792e-279
1.99929e-282
1.04937e-285
1.23962e-285
2.37262e-282
2.25545e-279
1.42182e-276
6.69065e-274
2.5079e-271
7.80285e-269
2.07335e-266
4.80457e-264
9.86659e-262
1.81856e-259
3.03962e-257
4.6469e-255
6.54481e-253
8.54486e-251
1.03971e-248
1.18456e-246
1.26891e-244
1.28274e-242
1.22773e-240
1.11588e-238
9.6571e-237
7.97726e-235
6.30385e-233
4.77518e-231
3.47393e-229
2.43135e-227
1.63969e-225
1.06709e-223
6.71051e-222
4.08294e-220
2.40634e-218
1.37522e-216
7.62876e-215
4.11145e-213
2.15457e-211
1.09871e-209
5.45594e-208
2.63991e-206
1.24533e-204
5.73028e-203
2.57302e-201
1.12784e-199
4.82738e-198
2.01807e-196
8.24122e-195
3.28787e-193
1.273e-191
4.36511e-190
1.31783e-188
3.48255e-187
8.01167e-186
1.5966e-184
2.74514e-183
4.06047e-182
5.1587e-181
5.62694e-180
5.27297e-179
4.25668e-178
2.98227e-177
1.83616e-176
1.00327e-175
4.86484e-175
2.08476e-174
7.93792e-174
2.72679e-173
8.61242e-173
2.53762e-172
6.9839e-172
1.78922e-171
4.2617e-171
9.46691e-171
1.971e-170
3.86867e-170
7.19924e-170
1.27866e-169
2.17884e-169
3.57788e-169
5.67855e-169
8.72614e-169
1.29989e-168
1.87946e-168
2.64105e-168
3.61193e-168
4.81299e-168
6.2563e-168
7.94379e-168
9.86435e-168
1.19931e-167
1.42916e-167
1.67075e-167
1.91775e-167
2.16298e-167
2.39893e-167
2.61774e-167
2.80457e-167
2.87924e-167
2.32496e-167
2.90796e-168
6.73436e-177
3.60503e-174
8.0198e-166
5.7501e-165
6.99397e-165
6.82548e-165
6.41181e-165
5.91903e-165
5.37774e-165
4.80611e-165
4.2225e-165
3.6445e-165
3.08797e-165
2.56628e-165
2.08973e-165
1.66557e-165
1.29782e-165
9.8736e-166
7.32585e-166
5.29489e-166
3.72266e-166
2.54252e-166
1.68477e-166
1.08187e-166
6.72075e-167
4.02747e-167
2.31838e-167
1.27572e-167
6.66814e-168
3.29379e-168
1.52874e-168
6.63204e-169
2.6795e-169
1.00894e-169
3.55151e-170
1.16719e-170
3.532e-171
9.66357e-172
2.3542e-172
5.07746e-173
9.73346e-174
1.65766e-174
2.48142e-175
3.22237e-176
3.6028e-177
3.45863e-178
2.84833e-179
2.01257e-180
1.2217e-181
6.38871e-183
2.88938e-184
1.13567e-185
3.90065e-187
1.17758e-188
3.14339e-190
8.09966e-192
2.03693e-193
4.99939e-195
1.19744e-196
2.79838e-198
6.37932e-200
1.41814e-201
3.0731e-203
6.48851e-205
1.33413e-206
2.66976e-208
5.19615e-210
9.82886e-212
1.80544e-213
3.21763e-215
5.55825e-217
9.2968e-219
1.50392e-220
2.35003e-222
3.5424e-224
5.14356e-226
7.18272e-228
9.63004e-230
1.23729e-231
1.52034e-233
1.78267e-235
1.98978e-237
2.10854e-239
2.11504e-241
2.00165e-243
1.78072e-245
1.48303e-247
1.15086e-249
8.27729e-252
5.48366e-254
3.32227e-256
1.82503e-258
8.99705e-261
3.93021e-263
1.49714e-265
4.8705e-268
1.31522e-270
2.8295e-273
4.54559e-276
4.84704e-279
2.57497e-282
3.07835e-282
5.82166e-279
5.46718e-276
3.40424e-273
1.58206e-270
5.85568e-268
1.79872e-265
4.71797e-263
1.07904e-260
2.18664e-258
3.97637e-256
6.55616e-254
9.8851e-252
1.37283e-249
1.76701e-247
2.1192e-245
2.37927e-243
2.51101e-241
2.50024e-239
2.3565e-237
2.10858e-235
1.79603e-233
1.4598e-231
1.13473e-229
8.45264e-228
6.04505e-226
4.15775e-224
2.75457e-222
1.76042e-220
1.08675e-218
6.48823e-217
3.75065e-215
2.10149e-213
1.14237e-211
6.03016e-210
3.0935e-208
1.54343e-206
7.49432e-205
3.54356e-203
1.63245e-201
7.3304e-200
3.20974e-198
1.37089e-196
5.71249e-195
2.32282e-193
9.21745e-192
3.5696e-190
1.3347e-188
4.40769e-187
1.27785e-185
3.23333e-184
7.10162e-183
1.34756e-181
2.20094e-180
3.08677e-179
3.71373e-178
3.83376e-177
3.39968e-176
2.5973e-175
1.72296e-174
1.00568e-173
5.21869e-173
2.40806e-172
9.84184e-172
3.58427e-171
1.18103e-170
3.58502e-170
1.01658e-169
2.69536e-169
6.6614e-169
1.53347e-168
3.30025e-168
6.675e-168
1.2761e-167
2.31765e-167
4.02414e-167
6.71247e-167
1.08023e-166
1.68194e-166
2.53801e-166
3.71605e-166
5.28598e-166
7.31491e-166
9.86159e-166
1.2967e-165
1.66489e-165
2.09007e-165
2.56851e-165
3.09338e-165
3.65482e-165
4.24005e-165
4.83399e-165
5.41994e-165
5.98063e-165
6.4984e-165
6.93882e-165
7.11127e-165
5.77183e-165
7.63119e-166
3.03466e-174
1.17263e-171
1.53548e-163
1.05146e-162
1.27499e-162
1.24525e-162
1.17215e-162
1.08556e-162
9.90626e-163
8.9019e-163
7.87194e-163
6.84549e-163
5.84953e-163
4.90749e-163
4.03815e-163
3.25556e-163
2.56851e-163
1.98055e-163
1.49095e-163
1.09447e-163
7.82282e-164
5.43685e-164
3.6694e-164
2.40216e-164
1.52282e-164
9.32273e-165
5.48979e-165
3.09537e-165
1.66138e-165
8.45049e-166
4.05044e-166
1.81933e-166
7.62491e-167
2.98191e-167
1.09107e-167
3.73173e-168
1.17764e-168
3.37114e-169
8.62059e-170
1.95605e-170
3.95199e-171
7.10555e-172
1.12452e-172
1.54488e-173
1.82772e-174
1.85662e-175
1.6171e-176
1.20699e-177
7.72553e-179
4.24978e-180
2.0164e-181
8.29027e-183
2.96935e-184
9.3187e-186
2.57772e-187
6.85086e-189
1.77506e-190
4.48401e-192
1.10433e-193
2.65132e-195
6.20411e-197
1.41461e-198
3.14187e-200
6.79444e-202
1.42996e-203
2.9272e-205
5.82462e-207
1.1258e-208
2.11198e-210
3.84221e-212
6.77211e-214
1.15524e-215
1.90518e-217
3.0338e-219
4.65857e-221
6.88821e-223
9.792e-225
1.33601e-226
1.74631e-228
2.18238e-230
2.60181e-232
2.95196e-234
3.17889e-236
3.2396e-238
3.11412e-240
2.81333e-242
2.37879e-244
1.87377e-246
1.36768e-248
9.19348e-251
5.65037e-253
3.14822e-255
1.57387e-257
6.97085e-260
2.69192e-262
8.87627e-265
2.42911e-267
5.29519e-270
8.61832e-273
9.30909e-276
5.00887e-279
6.07141e-279
1.13357e-275
1.05084e-272
6.458e-270
2.9617e-267
1.08161e-264
3.27764e-262
8.47983e-260
1.91264e-257
3.82171e-255
6.85136e-253
1.11344e-250
1.65442e-248
2.26382e-246
2.87036e-244
3.39037e-242
3.74801e-240
3.89394e-238
3.81592e-236
3.53879e-234
3.11484e-232
2.60915e-230
2.08495e-228
1.59288e-226
1.16583e-224
8.18946e-223
5.53069e-221
3.59653e-219
2.25524e-217
1.36547e-215
7.99235e-214
4.52753e-212
2.48477e-210
1.32239e-208
6.83053e-207
3.42696e-205
1.67121e-203
7.92673e-202
3.6588e-200
1.64428e-198
7.19748e-197
3.06972e-195
1.27598e-193
5.17001e-192
2.04214e-190
7.86385e-189
2.95197e-187
1.06484e-185
3.38142e-184
9.39585e-183
2.27135e-181
4.75177e-180
8.56464e-179
1.32559e-177
1.75854e-176
1.99901e-175
1.94899e-174
1.63248e-173
1.17845e-172
7.39231e-172
4.08623e-171
2.01153e-170
8.82132e-170
3.43446e-169
1.19545e-168
3.77716e-168
1.10165e-167
3.00518e-167
7.67154e-167
1.82772e-166
4.06373e-166
8.46869e-166
1.66343e-165
3.09695e-165
5.48922e-165
9.31701e-165
1.52127e-164
2.39904e-164
3.664e-164
5.4283e-164
7.81042e-164
1.09282e-163
1.48898e-163
1.97844e-163
2.56663e-163
3.25453e-163
4.03899e-163
4.91164e-163
5.85897e-163
6.86286e-163
7.90052e-163
8.94579e-163
9.97033e-163
1.09454e-162
1.18419e-162
1.26015e-162
1.2891e-162
1.05119e-162
1.4679e-163
1.00885e-171
2.97211e-169
2.25891e-161
1.4748e-160
1.7836e-160
1.74469e-160
1.64665e-160
1.53055e-160
1.4032e-160
1.26806e-160
1.12879e-160
9.8908e-161
8.52452e-161
7.22039e-161
6.00444e-161
4.89717e-161
3.91269e-161
3.05845e-161
2.33654e-161
1.74244e-161
1.26648e-161
8.9592e-162
6.16018e-162
4.1121e-162
2.66059e-162
1.66417e-162
1.00253e-162
5.79265e-163
3.19311e-163
1.67305e-163
8.28645e-164
3.85651e-164
1.678e-164
6.82059e-165
2.5954e-165
9.2413e-166
3.04252e-166
9.12075e-167
2.45148e-167
5.86041e-168
1.24943e-168
2.37439e-169
3.97853e-170
5.79277e-171
7.26693e-172
7.82921e-173
7.23033e-174
5.71609e-175
3.86849e-176
2.245e-177
1.12075e-178
4.8341e-180
1.8108e-181
5.92419e-183
1.70276e-184
4.68013e-186
1.25253e-187
3.2645e-189
8.28643e-191
2.04847e-192
4.93122e-194
1.15572e-195
2.63637e-197
5.85132e-199
1.26301e-200
2.64995e-202
5.40118e-204
1.06873e-205
2.0514e-207
3.81655e-209
6.87598e-211
1.19841e-212
2.01838e-214
3.28103e-216
5.14116e-218
7.75427e-220
1.12403e-221
1.56331e-223
2.0823e-225
2.65097e-227
3.21869e-229
3.71808e-231
4.07543e-233
4.22638e-235
4.13318e-237
3.79785e-239
3.26545e-241
2.61504e-243
1.94012e-245
1.32532e-247
8.2761e-250
4.68426e-252
2.37845e-254
1.06974e-256
4.19422e-259
1.40392e-261
3.89953e-264
8.62639e-267
1.42458e-269
1.56106e-272
8.51994e-276
1.04867e-275
1.93004e-272
1.76343e-269
1.06797e-266
4.82587e-264
1.73623e-261
5.18243e-259
1.32045e-256
2.93258e-254
5.76878e-252
1.01796e-249
1.62805e-247
2.38016e-245
3.20385e-243
3.99526e-241
4.64022e-239
5.04286e-237
5.14927e-235
4.95826e-233
4.51696e-231
3.90455e-229
3.21112e-227
2.51853e-225
1.88797e-223
1.3554e-221
9.33604e-220
6.18025e-218
3.93794e-216
2.41861e-214
1.43371e-212
8.21245e-211
4.55069e-209
2.4418e-207
1.26989e-205
6.4063e-204
3.13731e-202
1.49248e-200
6.90104e-199
3.10314e-197
1.35756e-195
5.78016e-194
2.39589e-192
9.66997e-191
3.80068e-189
1.45475e-187
5.42218e-186
1.96767e-184
6.8288e-183
2.07921e-181
5.52098e-180
1.27128e-178
2.52564e-177
4.31128e-176
6.3052e-175
7.8904e-174
8.45284e-173
7.76528e-172
6.13073e-171
4.17409e-170
2.47237e-169
1.29275e-168
6.02951e-168
2.50937e-167
9.29453e-167
3.08938e-166
9.35634e-166
2.62114e-165
6.87498e-165
1.68849e-164
3.87478e-164
8.31471e-164
1.67688e-163
3.19752e-163
5.79651e-163
1.00258e-162
1.66339e-162
2.65826e-162
4.10732e-162
6.15192e-162
8.94616e-162
1.2646e-161
1.73998e-161
2.3336e-161
3.05533e-161
3.90987e-161
4.89546e-161
6.00512e-161
7.22519e-161
8.53576e-161
9.91141e-161
1.13213e-160
1.27309e-160
1.41036e-160
1.54027e-160
1.65923e-160
1.75958e-160
1.79654e-160
1.47125e-160
2.16936e-161
2.6011e-169
6.04792e-167
2.62795e-159
1.63296e-158
1.97006e-158
1.93081e-158
1.82787e-158
1.70566e-158
1.57135e-158
1.42827e-158
1.28e-158
1.13025e-158
9.82625e-159
8.40403e-159
7.06402e-159
5.82946e-159
4.71757e-159
3.73908e-159
2.89969e-159
2.19748e-159
1.62477e-159
1.17032e-159
8.20079e-160
5.5837e-160
3.68816e-160
2.35735e-160
1.453e-160
8.60424e-161
4.872e-161
2.63062e-161
1.3472e-161
6.50182e-162
2.93974e-162
1.24307e-162
4.92245e-163
1.82537e-163
6.27262e-164
1.97107e-164
5.57671e-165
1.40675e-165
3.16889e-166
6.3727e-167
1.13235e-167
1.75081e-168
2.33408e-169
2.6736e-170
2.62491e-171
2.20422e-172
1.58199e-173
9.71504e-175
5.11903e-176
2.32376e-177
9.13269e-179
3.12463e-180
9.36099e-182
2.66843e-183
7.39657e-185
1.99416e-186
5.23019e-188
1.33452e-189
3.3126e-191
7.99821e-193
1.87802e-194
4.28705e-196
9.51043e-198
2.04936e-199
4.28722e-201
8.70153e-203
1.71225e-204
3.26396e-206
6.02201e-208
1.07432e-209
1.85122e-211
3.07755e-213
4.92967e-215
7.59783e-217
1.12502e-218
1.59774e-220
2.17239e-222
2.82226e-224
3.49571e-226
4.11825e-228
4.60241e-230
4.86498e-232
4.84829e-234
4.53864e-236
3.97478e-238
3.2414e-240
2.44834e-242
1.7024e-244
1.08188e-246
6.23042e-249
3.21819e-251
1.47218e-253
5.86972e-256
1.99765e-258
5.64058e-261
1.26825e-263
2.12842e-266
2.36983e-269
1.31398e-272
1.64491e-272
2.97956e-269
2.67894e-266
1.59632e-263
7.09612e-261
2.51112e-258
7.3711e-256
1.84665e-253
4.03182e-251
7.79545e-249
1.3518e-246
2.12416e-244
3.05053e-242
4.03275e-240
4.93784e-238
5.62982e-236
6.00474e-234
6.01613e-232
5.68256e-230
5.07678e-228
4.30248e-226
3.46803e-224
2.66514e-222
1.95692e-220
1.37565e-218
9.27488e-217
6.00755e-215
3.744e-213
2.24817e-211
1.30236e-209
7.28706e-208
3.94234e-206
2.06424e-204
1.04701e-202
5.14847e-201
2.45609e-199
1.13744e-197
5.11637e-196
2.23641e-194
9.50308e-193
3.92672e-191
1.57812e-189
6.16954e-188
2.34628e-186
8.67949e-185
3.12266e-183
1.09234e-181
3.63575e-180
1.05799e-178
2.67581e-177
5.84961e-176
1.10004e-174
1.77277e-173
2.4424e-172
2.87487e-171
2.89461e-170
2.49937e-169
1.85577e-168
1.18931e-167
6.64127e-167
3.28091e-166
1.44796e-165
5.70991e-165
2.00905e-164
6.37072e-164
1.84855e-163
4.9722e-163
1.25315e-162
2.9584e-162
6.53316e-162
1.35191e-161
2.6369e-161
4.87925e-161
8.61099e-161
1.45323e-160
2.35649e-160
3.68528e-160
5.5777e-160
8.19044e-160
1.16869e-159
1.62245e-159
2.19444e-159
2.89607e-159
3.73518e-159
4.71389e-159
5.8268e-159
7.06359e-159
8.40744e-159
9.8356e-159
1.13203e-158
1.28291e-158
1.43261e-158
1.57742e-158
1.71374e-158
1.83804e-158
1.94241e-158
1.97925e-158
1.62721e-158
2.53423e-159
5.36605e-167
1.00735e-164
2.46005e-157
1.45194e-156
1.74765e-156
1.71653e-156
1.63035e-156
1.52763e-156
1.41441e-156
1.29328e-156
1.16701e-156
1.03859e-156
9.10937e-157
7.86797e-157
6.68583e-157
5.58371e-157
4.578e-157
3.68012e-157
2.89814e-157
2.23286e-157
1.68018e-157
1.23287e-157
8.8085e-158
6.12002e-158
4.12828e-158
2.69708e-158
1.7012e-158
1.0326e-158
6.00717e-159
3.34394e-159
1.77194e-159
8.87606e-160
4.17488e-160
1.83848e-160
7.58224e-161
2.92973e-161
1.05135e-161
3.4667e-162
1.03414e-162
2.75747e-163
6.57215e-164
1.40036e-164
2.64315e-165
4.34927e-166
6.17624e-167
7.54095e-168
7.89275e-169
7.06077e-170
5.3908e-171
3.51452e-172
1.96112e-173
9.40115e-175
3.88978e-176
1.39652e-177
4.3755e-179
1.29741e-180
3.73521e-182
1.04451e-183
2.83785e-185
7.49231e-187
1.92226e-188
4.79246e-190
1.16088e-191
2.73149e-193
6.2409e-195
1.38404e-196
2.97774e-198
6.21161e-200
1.25548e-201
2.45679e-203
4.65064e-205
8.50811e-207
1.50271e-208
2.55942e-210
4.19845e-212
6.62396e-214
1.00364e-215
1.45798e-217
2.02705e-219
2.6919e-221
3.40717e-223
4.10051e-225
4.68005e-227
5.05088e-229
5.13783e-231
4.90809e-233
4.3852e-235
3.64751e-237
2.80948e-239
1.99164e-241
1.29012e-243
7.57159e-246
3.98486e-248
1.85699e-250
7.5411e-253
2.61352e-255
7.51353e-258
1.71975e-260
2.93753e-263
3.32842e-266
1.87772e-269
2.39513e-269
4.26332e-266
3.7662e-263
2.20462e-260
9.62582e-258
3.34513e-255
9.64119e-253
2.37114e-250
5.08123e-248
9.64097e-246
1.64028e-243
2.52831e-241
3.56093e-239
4.61572e-237
5.54023e-235
6.19063e-233
6.46962e-231
6.34942e-229
5.87324e-227
5.13711e-225
4.26108e-223
3.36064e-221
2.52614e-219
1.81371e-217
1.24624e-215
8.21002e-214
5.19405e-212
3.16037e-210
1.85198e-208
1.04652e-206
5.70905e-205
3.0098e-203
1.5349e-201
7.57804e-200
3.62492e-198
1.68111e-196
7.56316e-195
3.30246e-193
1.40016e-191
5.76587e-190
2.30676e-188
8.9671e-187
3.38713e-185
1.24314e-183
4.43244e-182
1.53491e-180
5.16017e-179
1.64159e-177
4.5496e-176
1.09212e-174
2.25874e-173
4.00682e-172
6.07578e-171
7.86052e-170
8.67647e-169
8.1876e-168
6.62764e-167
4.61692e-166
2.77905e-165
1.46058e-164
6.80884e-164
2.83936e-163
1.05906e-162
3.53406e-162
1.06801e-161
2.96759e-161
7.66012e-161
1.85358e-160
4.20161e-160
8.91924e-160
1.77822e-159
3.35214e-159
6.01658e-159
1.0335e-158
1.7016e-158
2.69629e-158
4.12532e-158
6.11379e-158
8.7978e-158
1.2312e-157
1.67781e-157
2.22978e-157
2.89446e-157
3.67607e-157
4.57399e-157
5.58035e-157
6.68402e-157
7.86889e-157
9.11453e-157
1.0397e-156
1.1689e-156
1.29612e-156
1.41837e-156
1.53282e-156
1.63678e-156
1.72363e-156
1.75266e-156
1.44601e-156
2.38101e-157
9.03968e-165
1.39082e-162
1.87089e-155
1.04603e-154
1.25636e-154
1.23681e-154
1.17876e-154
1.1092e-154
1.03231e-154
9.49637e-155
8.62945e-155
7.74127e-155
6.85102e-155
5.97696e-155
5.1356e-155
4.34168e-155
3.60744e-155
2.9422e-155
2.35396e-155
1.84478e-155
1.4136e-155
1.05733e-155
7.70751e-156
5.46784e-156
3.76865e-156
2.51765e-156
1.62554e-156
1.01157e-156
6.04746e-157
3.47213e-157
1.90512e-157
9.91528e-158
4.85777e-158
2.23083e-158
9.59224e-159
3.86456e-159
1.4491e-159
5.01987e-160
1.58174e-160
4.46692e-161
1.12817e-161
2.55034e-162
5.12291e-163
8.99259e-164
1.36369e-164
1.77952e-165
1.99139e-166
1.90376e-167
1.55127e-168
1.07734e-169
6.38884e-171
3.24595e-172
1.41909e-173
5.36584e-175
1.76457e-176
5.4595e-178
1.63731e-179
4.76223e-181
1.3439e-182
3.68058e-184
9.78428e-186
2.52477e-187
6.32364e-189
1.53706e-190
3.62473e-192
8.29027e-194
1.83812e-195
3.94872e-197
8.21375e-199
1.65317e-200
3.21683e-202
6.04618e-204
1.09657e-205
1.91693e-207
3.22597e-209
5.21929e-211
8.10619e-213
1.20662e-214
1.71833e-216
2.33652e-218
3.02713e-220
3.72791e-222
4.35249e-224
4.80386e-226
4.99596e-228
4.87813e-230
4.45372e-232
3.78456e-234
2.97735e-236
2.15527e-238
1.42533e-240
8.53834e-243
4.58577e-245
2.18041e-247
9.03245e-250
3.19271e-252
9.35972e-255
2.18419e-257
3.80313e-260
4.3919e-263
2.52479e-266
3.28842e-266
5.7431e-263
4.97707e-260
2.85763e-257
1.22359e-254
4.16929e-252
1.17802e-249
2.83968e-247
5.96332e-245
1.10856e-242
1.84752e-240
2.78897e-238
3.84612e-236
4.8803e-234
5.73297e-232
6.26797e-230
6.40766e-228
6.14992e-226
5.56169e-224
4.75462e-222
3.85349e-220
2.96863e-218
2.17895e-216
1.52707e-214
1.02385e-212
6.57893e-211
4.05803e-209
2.40635e-207
1.37363e-205
7.55756e-204
4.01216e-202
2.05729e-200
1.01983e-198
4.89136e-197
2.27148e-195
1.02197e-193
4.45708e-192
1.88512e-190
7.7349e-189
3.07973e-187
1.1901e-185
4.46365e-184
1.62486e-182
5.73971e-181
1.96694e-179
6.53644e-178
2.10525e-176
6.37787e-175
1.67716e-173
3.8068e-172
7.42076e-171
1.23721e-169
1.759e-168
2.12978e-167
2.19752e-166
1.93778e-165
1.46652e-164
9.56022e-164
5.3918e-163
2.66215e-162
1.16954e-161
4.60122e-161
1.62008e-160
5.11801e-160
1.47234e-159
3.91534e-159
9.69215e-159
2.24931e-158
4.88898e-158
9.96368e-158
1.91193e-157
3.48079e-157
6.05728e-157
1.01252e-156
1.62602e-156
2.51704e-156
3.76611e-156
5.46248e-156
7.69837e-156
1.05592e-155
1.41161e-155
1.84221e-155
2.35088e-155
2.93875e-155
3.60388e-155
4.33837e-155
5.1331e-155
5.97594e-155
6.85234e-155
7.74587e-155
8.63824e-155
9.51022e-155
1.03426e-154
1.11177e-154
1.1819e-154
1.24018e-154
1.25834e-154
1.04151e-154
1.81668e-155
1.26017e-162
1.60424e-160
1.15995e-153
6.12002e-153
7.33554e-153
7.23858e-153
6.92339e-153
6.54344e-153
6.122e-153
5.66672e-153
5.1863e-153
4.69047e-153
4.18925e-153
3.69236e-153
3.2088e-153
2.74688e-153
2.3138e-153
1.91545e-153
1.55785e-153
1.24274e-153
9.70492e-154
7.40561e-154
5.51279e-154
3.99665e-154
2.81674e-154
1.9253e-154
1.27302e-154
8.12429e-155
4.9926e-155
2.95802e-155
1.68199e-155
9.10588e-156
4.65412e-156
2.2327e-156
1.00234e-156
4.21444e-157
1.65244e-157
6.02157e-158
2.00827e-158
6.02048e-159
1.61408e-159
3.8768e-160
8.30501e-161
1.55937e-161
2.53213e-162
3.54155e-163
4.25052e-164
4.35682e-165
3.80214e-166
2.82309e-167
1.78592e-168
9.6539e-170
4.47708e-171
1.7899e-172
6.20203e-174
2.00887e-175
6.29544e-177
1.91014e-178
5.61451e-180
1.59935e-181
4.4165e-183
1.18244e-184
3.06945e-186
7.72472e-188
1.88436e-189
4.45427e-191
1.01989e-192
2.26089e-194
4.84963e-196
1.00587e-197
2.01581e-199
3.89985e-201
7.27637e-203
1.30791e-204
2.26213e-206
3.75974e-208
5.99608e-210
9.16119e-212
1.33859e-213
1.86689e-215
2.47991e-217
3.13029e-219
3.74485e-221
4.23384e-223
4.50907e-225
4.5074e-227
4.21198e-229
3.66235e-231
2.94748e-233
2.18221e-235
1.47567e-237
9.03708e-240
4.96086e-242
2.41037e-244
1.02016e-246
3.68343e-249
1.10282e-251
2.62785e-254
4.67134e-257
5.50636e-260
3.23049e-263
4.30687e-263
7.36882e-260
6.2551e-257
3.51722e-254
1.47464e-251
4.91913e-249
1.36042e-246
3.20923e-244
6.59391e-242
1.19909e-239
1.95444e-237
2.88485e-235
3.88913e-233
4.82307e-231
5.53603e-229
5.91257e-227
5.9029e-225
5.53136e-223
4.88249e-221
4.07278e-219
3.21983e-217
2.41877e-215
1.73059e-213
1.18184e-211
7.71825e-210
4.82884e-208
2.89882e-206
1.6722e-204
9.28135e-203
4.96265e-201
2.55897e-199
1.27376e-197
6.12569e-196
2.84842e-194
1.28152e-192
5.58175e-191
2.35474e-189
9.6253e-188
3.81333e-186
1.46452e-184
5.45279e-183
1.96816e-181
6.88585e-180
2.33445e-178
7.6659e-177
2.43696e-175
7.49427e-174
2.15353e-172
5.35168e-171
1.14392e-169
2.0933e-168
3.26722e-167
4.33893e-166
4.89903e-165
4.70916e-164
3.86814e-163
2.72912e-162
1.66026e-161
8.7495e-161
4.05001e-160
1.67435e-159
6.20343e-159
2.05712e-158
6.13977e-158
1.67923e-157
4.2707e-157
1.01291e-156
2.25129e-156
4.68399e-156
9.15025e-156
1.688e-155
2.96547e-155
5.00091e-155
8.13237e-155
1.27345e-154
1.9249e-154
2.81492e-154
3.99283e-154
5.50637e-154
7.3958e-154
9.69126e-154
1.24099e-153
1.55574e-153
1.91307e-153
2.31126e-153
2.74435e-153
3.20657e-153
3.69073e-153
4.18861e-153
4.69125e-153
5.18887e-153
5.67138e-153
6.12897e-153
6.55281e-153
6.93491e-153
7.25055e-153
7.34024e-153
6.09327e-153
1.12965e-153
1.46584e-160
1.55211e-158
5.84977e-152
2.8957e-151
3.46385e-151
3.42647e-151
3.28929e-151
3.12275e-151
2.93744e-151
2.73626e-151
2.52264e-151
2.30052e-151
2.07405e-151
1.84734e-151
1.62425e-151
1.40846e-151
1.2033e-151
1.01165e-151
8.37038e-152
6.80316e-152
5.41998e-152
4.22408e-152
3.21498e-152
2.38476e-152
1.72045e-152
1.20428e-152
8.16004e-153
5.34331e-153
3.37666e-153
2.06574e-153
1.21847e-153
6.87109e-154
3.67084e-154
1.84371e-154
8.65869e-155
3.80425e-155
1.56111e-155
5.99308e-156
2.12059e-156
6.767e-157
1.92989e-157
4.93322e-158
1.12975e-158
2.27603e-159
3.96937e-160
5.96874e-161
7.70886e-162
8.50237e-163
7.97641e-164
6.35673e-165
4.30723e-166
2.48753e-167
1.2289e-168
5.21672e-170
1.91261e-171
6.50882e-173
2.13856e-174
6.79021e-176
2.085e-177