/*--------------------------------*- C++ -*----------------------------------*\
| =========                 |                                                 |
| \\      /  F ield         | OpenFOAM: The Open Source CFD Toolbox           |
|  \\    /   O peration     | Version:  2412                                  |
|   \\  /    A nd           | Website:  www.openfoam.com                      |
|    \\/     M anipulation  |                                                 |
\*---------------------------------------------------------------------------*/
FoamFile
{
    version     2.0;
    format      ascii;
    arch        "LSB;label=32;scalar=64";
    class       volScalarField;
    location    "1.2";
    object      p;
}
// * * * * * * * * * * * * * * * * * * * * * * * * * * * * * * * * * * * * * //

dimensions      [1 -1 -2 0 0 0 0];

internalField   nonuniform List<scalar> 
40000
(
0
4.83767e-05
2.21989e-05
-8.21576e-05
-0.000265303
-0.000527474
-0.000868539
-0.00128801
-0.00178521
-0.00235949
-0.00301028
-0.00373704
-0.0045391
-0.00541557
-0.0063654
-0.00738745
-0.0084806
-0.00964383
-0.0108761
-0.0121763
-0.0135431
-0.014975
-0.0164704
-0.0180277
-0.0196452
-0.0213213
-0.0230544
-0.0248427
-0.0266845
-0.0285777
-0.0305205
-0.0325109
-0.0345468
-0.0366261
-0.0387465
-0.0409055
-0.0431008
-0.0453304
-0.0475921
-0.0498834
-0.0522019
-0.0545451
-0.0569102
-0.0592947
-0.0616965
-0.0641131
-0.0665421
-0.0689809
-0.0714267
-0.0738767
-0.0763283
-0.0787791
-0.0812267
-0.0836688
-0.0861026
-0.0885258
-0.0909354
-0.0933287
-0.0957032
-0.0980566
-0.100386
-0.10269
-0.104966
-0.107212
-0.109425
-0.111603
-0.113744
-0.115845
-0.117905
-0.119921
-0.121891
-0.123814
-0.125688
-0.127511
-0.129281
-0.130996
-0.132656
-0.134257
-0.1358
-0.137282
-0.138702
-0.140059
-0.141351
-0.142579
-0.143739
-0.144833
-0.145857
-0.146812
-0.147697
-0.148511
-0.149253
-0.149923
-0.15052
-0.151043
-0.151492
-0.151868
-0.152169
-0.152396
-0.152547
-0.152624
-0.152626
-0.152552
-0.152403
-0.15218
-0.151882
-0.15151
-0.151063
-0.150543
-0.149949
-0.149282
-0.148543
-0.147732
-0.146849
-0.145897
-0.144875
-0.143785
-0.142627
-0.141403
-0.140113
-0.138759
-0.137341
-0.135862
-0.134321
-0.132722
-0.131065
-0.129352
-0.127585
-0.125765
-0.123893
-0.121972
-0.120003
-0.117989
-0.115931
-0.113832
-0.111693
-0.109517
-0.107307
-0.105063
-0.102789
-0.100486
-0.0981584
-0.0958065
-0.0934339
-0.0910429
-0.0886358
-0.0862154
-0.0837836
-0.0813432
-0.0788972
-0.0764475
-0.0739968
-0.0715481
-0.0691038
-0.0666665
-0.0642388
-0.061823
-0.0594221
-0.0570384
-0.0546742
-0.0523321
-0.0500147
-0.0477243
-0.0454635
-0.0432344
-0.0410397
-0.0388815
-0.0367619
-0.0346837
-0.0326485
-0.0306591
-0.0287168
-0.0268237
-0.0249818
-0.023193
-0.0214595
-0.0197833
-0.018166
-0.0166092
-0.0151139
-0.0136822
-0.0123154
-0.0110157
-0.00978365
-0.00862047
-0.00752662
-0.00650469
-0.00555473
-0.00467873
-0.00387672
-0.00314894
-0.00249712
-0.00192169
-0.00142407
-0.00100321
-0.000661124
-0.000396318
-0.000210585
-0.000104067
-7.69686e-05
-0.000128126
-3.92405
-3.924
-3.92402
-3.92413
-3.92431
-3.92457
-3.92491
-3.92533
-3.92583
-3.9264
-3.92705
-3.92778
-3.92858
-3.92946
-3.93041
-3.93143
-3.93252
-3.93369
-3.93492
-3.93622
-3.93759
-3.93902
-3.94051
-3.94207
-3.94369
-3.94536
-3.94709
-3.94888
-3.95072
-3.95262
-3.95456
-3.95655
-3.95858
-3.96066
-3.96278
-3.96494
-3.96713
-3.96936
-3.97162
-3.97391
-3.97623
-3.97857
-3.98094
-3.98332
-3.98572
-3.98814
-3.99056
-3.993
-3.99544
-3.99789
-4.00034
-4.00279
-4.00524
-4.00768
-4.01011
-4.01253
-4.01494
-4.01733
-4.0197
-4.02205
-4.02438
-4.02668
-4.02896
-4.0312
-4.03341
-4.03559
-4.03773
-4.03983
-4.04188
-4.0439
-4.04586
-4.04779
-4.04966
-4.05148
-4.05325
-4.05496
-4.05662
-4.05821
-4.05976
-4.06123
-4.06265
-4.06401
-4.0653
-4.06652
-4.06768
-4.06877
-4.0698
-4.07075
-4.07163
-4.07245
-4.07319
-4.07386
-4.07445
-4.07497
-4.07542
-4.0758
-4.0761
-4.07633
-4.07648
-4.07655
-4.07655
-4.07648
-4.07633
-4.07611
-4.07581
-4.07544
-4.075
-4.07448
-4.07388
-4.07322
-4.07248
-4.07167
-4.07079
-4.06984
-4.06882
-4.06773
-4.06657
-4.06535
-4.06406
-4.06271
-4.06129
-4.05982
-4.05828
-4.05668
-4.05503
-4.05332
-4.05155
-4.04973
-4.04786
-4.04595
-4.04398
-4.04197
-4.03991
-4.03781
-4.03568
-4.0335
-4.0313
-4.02906
-4.02678
-4.02448
-4.02216
-4.01981
-4.01744
-4.01505
-4.01264
-4.01022
-4.00779
-4.00535
-4.00291
-4.00046
-3.99801
-3.99557
-3.99312
-3.99069
-3.98826
-3.98585
-3.98345
-3.98106
-3.9787
-3.97636
-3.97404
-3.97175
-3.96949
-3.96727
-3.96507
-3.96292
-3.9608
-3.95872
-3.95669
-3.9547
-3.95275
-3.95086
-3.94902
-3.94723
-3.9455
-3.94382
-3.94221
-3.94065
-3.93916
-3.93772
-3.93636
-3.93506
-3.93383
-3.93266
-3.93157
-3.93055
-3.9296
-3.92872
-3.92792
-3.92719
-3.92654
-3.92597
-3.92547
-3.92505
-3.92471
-3.92444
-3.92426
-3.92415
-3.92413
-3.92418
-7.84803
-7.84798
-7.848
-7.84811
-7.84829
-7.84855
-7.84889
-7.84931
-7.84981
-7.85039
-7.85104
-7.85176
-7.85257
-7.85344
-7.85439
-7.85542
-7.85651
-7.85767
-7.85891
-7.86021
-7.86157
-7.86301
-7.8645
-7.86606
-7.86768
-7.86935
-7.87109
-7.87288
-7.87472
-7.87661
-7.87855
-7.88055
-7.88258
-7.88466
-7.88678
-7.88894
-7.89114
-7.89337
-7.89563
-7.89792
-7.90024
-7.90258
-7.90495
-7.90733
-7.90973
-7.91215
-7.91458
-7.91701
-7.91946
-7.92191
-7.92436
-7.92681
-7.92926
-7.9317
-7.93413
-7.93655
-7.93896
-7.94135
-7.94372
-7.94608
-7.9484
-7.95071
-7.95298
-7.95522
-7.95743
-7.95961
-7.96175
-7.96385
-7.9659
-7.96792
-7.96989
-7.97181
-7.97368
-7.9755
-7.97726
-7.97898
-7.98063
-7.98223
-7.98377
-7.98525
-7.98667
-7.98802
-7.98931
-7.99054
-7.9917
-7.99279
-7.99381
-7.99476
-7.99565
-7.99646
-7.9972
-7.99787
-7.99846
-7.99898
-7.99943
-7.99981
-8.00011
-8.00033
-8.00049
-8.00056
-8.00056
-8.00049
-8.00034
-8.00012
-7.99982
-7.99945
-7.99901
-7.99849
-7.99789
-7.99723
-7.99649
-7.99568
-7.9948
-7.99385
-7.99283
-7.99174
-7.99059
-7.98937
-7.98808
-7.98673
-7.98531
-7.98383
-7.9823
-7.9807
-7.97905
-7.97734
-7.97557
-7.97375
-7.97188
-7.96997
-7.968
-7.96599
-7.96393
-7.96184
-7.9597
-7.95753
-7.95532
-7.95308
-7.9508
-7.9485
-7.94618
-7.94383
-7.94146
-7.93907
-7.93666
-7.93424
-7.93181
-7.92937
-7.92693
-7.92448
-7.92203
-7.91958
-7.91714
-7.9147
-7.91227
-7.90986
-7.90746
-7.90507
-7.90271
-7.90037
-7.89805
-7.89576
-7.8935
-7.89127
-7.88908
-7.88692
-7.8848
-7.88272
-7.88068
-7.87869
-7.87675
-7.87486
-7.87301
-7.87123
-7.86949
-7.86782
-7.8662
-7.86464
-7.86314
-7.86171
-7.86035
-7.85905
-7.85781
-7.85665
-7.85555
-7.85453
-7.85358
-7.85271
-7.8519
-7.85118
-7.85052
-7.84995
-7.84945
-7.84903
-7.84869
-7.84842
-7.84824
-7.84813
-7.84811
-7.84816
-11.7719
-11.7719
-11.7719
-11.772
-11.7722
-11.7725
-11.7728
-11.7732
-11.7737
-11.7743
-11.7749
-11.7757
-11.7765
-11.7774
-11.7783
-11.7793
-11.7804
-11.7816
-11.7828
-11.7841
-11.7855
-11.7869
-11.7884
-11.79
-11.7916
-11.7933
-11.795
-11.7968
-11.7987
-11.8006
-11.8025
-11.8045
-11.8065
-11.8086
-11.8107
-11.8129
-11.8151
-11.8173
-11.8196
-11.8219
-11.8242
-11.8266
-11.8289
-11.8313
-11.8337
-11.8361
-11.8386
-11.841
-11.8435
-11.8459
-11.8484
-11.8508
-11.8533
-11.8557
-11.8582
-11.8606
-11.863
-11.8654
-11.8678
-11.8701
-11.8725
-11.8748
-11.877
-11.8793
-11.8815
-11.8837
-11.8858
-11.8879
-11.89
-11.892
-11.894
-11.8959
-11.8978
-11.8996
-11.9013
-11.9031
-11.9047
-11.9063
-11.9079
-11.9093
-11.9108
-11.9121
-11.9134
-11.9146
-11.9158
-11.9169
-11.9179
-11.9189
-11.9197
-11.9206
-11.9213
-11.922
-11.9226
-11.9231
-11.9235
-11.9239
-11.9242
-11.9244
-11.9246
-11.9247
-11.9247
-11.9246
-11.9244
-11.9242
-11.9239
-11.9236
-11.9231
-11.9226
-11.922
-11.9213
-11.9206
-11.9198
-11.9189
-11.9179
-11.9169
-11.9158
-11.9147
-11.9135
-11.9122
-11.9108
-11.9094
-11.9079
-11.9064
-11.9048
-11.9031
-11.9014
-11.8997
-11.8978
-11.896
-11.894
-11.8921
-11.8901
-11.888
-11.8859
-11.8838
-11.8816
-11.8794
-11.8771
-11.8749
-11.8726
-11.8702
-11.8679
-11.8655
-11.8631
-11.8607
-11.8583
-11.8558
-11.8534
-11.8509
-11.8485
-11.846
-11.8436
-11.8411
-11.8387
-11.8363
-11.8339
-11.8315
-11.8291
-11.8267
-11.8244
-11.822
-11.8197
-11.8175
-11.8152
-11.813
-11.8109
-11.8088
-11.8067
-11.8046
-11.8026
-11.8007
-11.7988
-11.797
-11.7952
-11.7934
-11.7918
-11.7901
-11.7886
-11.7871
-11.7856
-11.7843
-11.783
-11.7817
-11.7806
-11.7795
-11.7784
-11.7775
-11.7766
-11.7758
-11.7751
-11.7744
-11.7739
-11.7734
-11.7729
-11.7726
-11.7723
-11.7721
-11.772
-11.772
-11.7721
-15.6958
-15.6957
-15.6957
-15.6958
-15.696
-15.6963
-15.6966
-15.6971
-15.6976
-15.6981
-15.6988
-15.6995
-15.7003
-15.7012
-15.7022
-15.7032
-15.7043
-15.7055
-15.7067
-15.708
-15.7094
-15.7108
-15.7123
-15.7139
-15.7155
-15.7172
-15.7189
-15.7207
-15.7226
-15.7245
-15.7264
-15.7284
-15.7305
-15.7325
-15.7347
-15.7368
-15.739
-15.7413
-15.7436
-15.7459
-15.7482
-15.7505
-15.7529
-15.7553
-15.7577
-15.7601
-15.7626
-15.765
-15.7675
-15.7699
-15.7724
-15.7749
-15.7773
-15.7798
-15.7822
-15.7846
-15.7871
-15.7895
-15.7918
-15.7942
-15.7965
-15.7988
-15.8011
-15.8034
-15.8056
-15.8078
-15.8099
-15.812
-15.8141
-15.8161
-15.8181
-15.82
-15.8219
-15.8237
-15.8255
-15.8272
-15.8289
-15.8305
-15.832
-15.8335
-15.8349
-15.8363
-15.8376
-15.8388
-15.84
-15.8411
-15.8421
-15.843
-15.8439
-15.8447
-15.8455
-15.8461
-15.8467
-15.8473
-15.8477
-15.8481
-15.8484
-15.8486
-15.8488
-15.8489
-15.8489
-15.8488
-15.8486
-15.8484
-15.8481
-15.8477
-15.8473
-15.8468
-15.8462
-15.8455
-15.8448
-15.844
-15.8431
-15.8421
-15.8411
-15.84
-15.8389
-15.8376
-15.8363
-15.835
-15.8336
-15.8321
-15.8305
-15.8289
-15.8273
-15.8256
-15.8238
-15.822
-15.8201
-15.8182
-15.8162
-15.8142
-15.8121
-15.81
-15.8079
-15.8057
-15.8035
-15.8012
-15.7989
-15.7966
-15.7943
-15.7919
-15.7896
-15.7872
-15.7847
-15.7823
-15.7799
-15.7774
-15.775
-15.7725
-15.7701
-15.7676
-15.7651
-15.7627
-15.7603
-15.7578
-15.7554
-15.753
-15.7507
-15.7483
-15.746
-15.7437
-15.7414
-15.7392
-15.737
-15.7348
-15.7327
-15.7306
-15.7286
-15.7266
-15.7246
-15.7227
-15.7209
-15.7191
-15.7173
-15.7156
-15.714
-15.7124
-15.7109
-15.7095
-15.7081
-15.7068
-15.7056
-15.7044
-15.7033
-15.7023
-15.7013
-15.7005
-15.6997
-15.6989
-15.6983
-15.6977
-15.6972
-15.6968
-15.6964
-15.6962
-15.696
-15.6959
-15.6958
-15.6959
-19.6195
-19.6195
-19.6195
-19.6196
-19.6198
-19.6201
-19.6204
-19.6208
-19.6213
-19.6219
-19.6226
-19.6233
-19.6241
-19.625
-19.6259
-19.627
-19.6281
-19.6292
-19.6305
-19.6318
-19.6332
-19.6346
-19.6361
-19.6377
-19.6393
-19.641
-19.6428
-19.6446
-19.6464
-19.6483
-19.6503
-19.6523
-19.6543
-19.6564
-19.6586
-19.6607
-19.663
-19.6652
-19.6675
-19.6698
-19.6721
-19.6745
-19.6769
-19.6793
-19.6817
-19.6841
-19.6866
-19.689
-19.6915
-19.6939
-19.6964
-19.6989
-19.7014
-19.7038
-19.7063
-19.7087
-19.7111
-19.7135
-19.7159
-19.7183
-19.7206
-19.723
-19.7252
-19.7275
-19.7297
-19.7319
-19.7341
-19.7362
-19.7383
-19.7403
-19.7423
-19.7442
-19.7461
-19.7479
-19.7497
-19.7514
-19.7531
-19.7547
-19.7562
-19.7577
-19.7592
-19.7605
-19.7618
-19.763
-19.7642
-19.7653
-19.7663
-19.7673
-19.7682
-19.769
-19.7697
-19.7704
-19.771
-19.7715
-19.772
-19.7724
-19.7727
-19.7729
-19.7731
-19.7731
-19.7731
-19.7731
-19.7729
-19.7727
-19.7724
-19.772
-19.7716
-19.771
-19.7704
-19.7698
-19.769
-19.7682
-19.7673
-19.7664
-19.7654
-19.7643
-19.7631
-19.7619
-19.7606
-19.7592
-19.7578
-19.7563
-19.7548
-19.7531
-19.7515
-19.7498
-19.748
-19.7462
-19.7443
-19.7423
-19.7404
-19.7383
-19.7363
-19.7342
-19.732
-19.7298
-19.7276
-19.7253
-19.7231
-19.7207
-19.7184
-19.716
-19.7136
-19.7112
-19.7088
-19.7064
-19.7039
-19.7015
-19.699
-19.6965
-19.6941
-19.6916
-19.6891
-19.6867
-19.6842
-19.6818
-19.6794
-19.677
-19.6746
-19.6723
-19.6699
-19.6676
-19.6653
-19.6631
-19.6609
-19.6587
-19.6566
-19.6545
-19.6524
-19.6504
-19.6485
-19.6466
-19.6447
-19.6429
-19.6412
-19.6395
-19.6378
-19.6363
-19.6348
-19.6333
-19.6319
-19.6306
-19.6294
-19.6282
-19.6271
-19.6261
-19.6251
-19.6242
-19.6234
-19.6227
-19.622
-19.6215
-19.621
-19.6205
-19.6202
-19.6199
-19.6197
-19.6196
-19.6196
-19.6197
-23.5432
-23.5432
-23.5432
-23.5433
-23.5435
-23.5437
-23.5441
-23.5445
-23.545
-23.5456
-23.5463
-23.547
-23.5478
-23.5487
-23.5497
-23.5507
-23.5518
-23.553
-23.5542
-23.5555
-23.5569
-23.5584
-23.5599
-23.5615
-23.5631
-23.5648
-23.5665
-23.5684
-23.5702
-23.5721
-23.5741
-23.5761
-23.5782
-23.5803
-23.5824
-23.5846
-23.5868
-23.5891
-23.5914
-23.5937
-23.596
-23.5984
-23.6008
-23.6032
-23.6056
-23.6081
-23.6105
-23.613
-23.6155
-23.618
-23.6204
-23.6229
-23.6254
-23.6279
-23.6303
-23.6328
-23.6352
-23.6376
-23.64
-23.6424
-23.6448
-23.6471
-23.6494
-23.6517
-23.6539
-23.6561
-23.6583
-23.6604
-23.6625
-23.6645
-23.6665
-23.6684
-23.6703
-23.6722
-23.6739
-23.6757
-23.6774
-23.679
-23.6805
-23.682
-23.6835
-23.6848
-23.6861
-23.6874
-23.6885
-23.6896
-23.6907
-23.6916
-23.6925
-23.6933
-23.6941
-23.6948
-23.6954
-23.6959
-23.6964
-23.6967
-23.697
-23.6973
-23.6974
-23.6975
-23.6975
-23.6974
-23.6973
-23.697
-23.6967
-23.6964
-23.6959
-23.6954
-23.6948
-23.6941
-23.6934
-23.6926
-23.6917
-23.6907
-23.6897
-23.6886
-23.6874
-23.6862
-23.6849
-23.6835
-23.6821
-23.6806
-23.679
-23.6774
-23.6757
-23.674
-23.6722
-23.6704
-23.6685
-23.6666
-23.6646
-23.6625
-23.6605
-23.6583
-23.6562
-23.654
-23.6518
-23.6495
-23.6472
-23.6449
-23.6425
-23.6401
-23.6377
-23.6353
-23.6329
-23.6304
-23.628
-23.6255
-23.623
-23.6206
-23.6181
-23.6156
-23.6131
-23.6107
-23.6082
-23.6058
-23.6033
-23.6009
-23.5985
-23.5962
-23.5938
-23.5915
-23.5892
-23.587
-23.5847
-23.5826
-23.5804
-23.5783
-23.5763
-23.5742
-23.5723
-23.5704
-23.5685
-23.5667
-23.5649
-23.5632
-23.5616
-23.56
-23.5585
-23.5571
-23.5557
-23.5544
-23.5531
-23.5519
-23.5508
-23.5498
-23.5488
-23.548
-23.5471
-23.5464
-23.5457
-23.5452
-23.5447
-23.5442
-23.5439
-23.5436
-23.5434
-23.5433
-23.5433
-23.5434
-27.4668
-27.4668
-27.4668
-27.4669
-27.4671
-27.4674
-27.4677
-27.4681
-27.4687
-27.4692
-27.4699
-27.4706
-27.4715
-27.4723
-27.4733
-27.4744
-27.4755
-27.4766
-27.4779
-27.4792
-27.4806
-27.4821
-27.4836
-27.4852
-27.4868
-27.4885
-27.4903
-27.4921
-27.494
-27.4959
-27.4979
-27.4999
-27.502
-27.5041
-27.5062
-27.5084
-27.5107
-27.5129
-27.5152
-27.5176
-27.5199
-27.5223
-27.5247
-27.5271
-27.5296
-27.532
-27.5345
-27.537
-27.5395
-27.542
-27.5445
-27.547
-27.5494
-27.5519
-27.5544
-27.5569
-27.5593
-27.5617
-27.5642
-27.5666
-27.5689
-27.5713
-27.5736
-27.5759
-27.5781
-27.5803
-27.5825
-27.5846
-27.5867
-27.5888
-27.5908
-27.5927
-27.5946
-27.5965
-27.5983
-27.6
-27.6017
-27.6033
-27.6049
-27.6064
-27.6078
-27.6092
-27.6105
-27.6118
-27.6129
-27.614
-27.6151
-27.6161
-27.617
-27.6178
-27.6185
-27.6192
-27.6198
-27.6203
-27.6208
-27.6212
-27.6215
-27.6217
-27.6219
-27.6219
-27.622
-27.6219
-27.6217
-27.6215
-27.6212
-27.6208
-27.6204
-27.6198
-27.6192
-27.6186
-27.6178
-27.617
-27.6161
-27.6151
-27.6141
-27.613
-27.6118
-27.6106
-27.6093
-27.6079
-27.6065
-27.6049
-27.6034
-27.6018
-27.6001
-27.5983
-27.5965
-27.5947
-27.5928
-27.5908
-27.5888
-27.5868
-27.5847
-27.5826
-27.5804
-27.5782
-27.576
-27.5737
-27.5714
-27.569
-27.5667
-27.5643
-27.5619
-27.5594
-27.557
-27.5545
-27.552
-27.5496
-27.5471
-27.5446
-27.5421
-27.5396
-27.5371
-27.5346
-27.5322
-27.5297
-27.5273
-27.5248
-27.5224
-27.5201
-27.5177
-27.5154
-27.5131
-27.5108
-27.5086
-27.5064
-27.5042
-27.5021
-27.5
-27.498
-27.496
-27.4941
-27.4922
-27.4904
-27.4887
-27.487
-27.4853
-27.4837
-27.4822
-27.4808
-27.4794
-27.478
-27.4768
-27.4756
-27.4745
-27.4735
-27.4725
-27.4716
-27.4708
-27.47
-27.4694
-27.4688
-27.4683
-27.4679
-27.4675
-27.4672
-27.4671
-27.4669
-27.4669
-27.467
-31.3904
-31.3903
-31.3904
-31.3905
-31.3907
-31.3909
-31.3913
-31.3917
-31.3922
-31.3928
-31.3935
-31.3942
-31.395
-31.3959
-31.3969
-31.3979
-31.3991
-31.4003
-31.4015
-31.4028
-31.4042
-31.4057
-31.4072
-31.4088
-31.4105
-31.4122
-31.414
-31.4158
-31.4177
-31.4196
-31.4216
-31.4236
-31.4257
-31.4279
-31.43
-31.4322
-31.4345
-31.4368
-31.4391
-31.4414
-31.4438
-31.4462
-31.4486
-31.4511
-31.4535
-31.456
-31.4585
-31.461
-31.4635
-31.466
-31.4685
-31.471
-31.4735
-31.476
-31.4785
-31.481
-31.4834
-31.4859
-31.4883
-31.4907
-31.4931
-31.4955
-31.4978
-31.5001
-31.5024
-31.5046
-31.5068
-31.5089
-31.511
-31.5131
-31.5151
-31.5171
-31.519
-31.5208
-31.5227
-31.5244
-31.5261
-31.5277
-31.5293
-31.5308
-31.5323
-31.5337
-31.535
-31.5362
-31.5374
-31.5385
-31.5396
-31.5406
-31.5415
-31.5423
-31.5431
-31.5437
-31.5443
-31.5449
-31.5453
-31.5457
-31.546
-31.5463
-31.5464
-31.5465
-31.5465
-31.5464
-31.5463
-31.546
-31.5457
-31.5454
-31.5449
-31.5444
-31.5438
-31.5431
-31.5423
-31.5415
-31.5406
-31.5396
-31.5386
-31.5375
-31.5363
-31.535
-31.5337
-31.5323
-31.5309
-31.5294
-31.5278
-31.5262
-31.5245
-31.5227
-31.5209
-31.5191
-31.5171
-31.5152
-31.5132
-31.5111
-31.509
-31.5069
-31.5047
-31.5024
-31.5002
-31.4979
-31.4956
-31.4932
-31.4908
-31.4884
-31.486
-31.4835
-31.4811
-31.4786
-31.4761
-31.4736
-31.4711
-31.4686
-31.4661
-31.4636
-31.4611
-31.4586
-31.4561
-31.4536
-31.4512
-31.4487
-31.4463
-31.4439
-31.4416
-31.4392
-31.4369
-31.4346
-31.4324
-31.4302
-31.428
-31.4259
-31.4238
-31.4218
-31.4198
-31.4178
-31.4159
-31.4141
-31.4123
-31.4106
-31.409
-31.4074
-31.4058
-31.4044
-31.403
-31.4017
-31.4004
-31.3992
-31.3981
-31.397
-31.3961
-31.3952
-31.3944
-31.3936
-31.3929
-31.3924
-31.3918
-31.3914
-31.3911
-31.3908
-31.3906
-31.3905
-31.3905
-31.3905
-35.3139
-35.3138
-35.3138
-35.3139
-35.3141
-35.3144
-35.3148
-35.3152
-35.3157
-35.3163
-35.317
-35.3177
-35.3185
-35.3194
-35.3204
-35.3215
-35.3226
-35.3238
-35.3251
-35.3264
-35.3278
-35.3293
-35.3308
-35.3324
-35.3341
-35.3358
-35.3376
-35.3395
-35.3413
-35.3433
-35.3453
-35.3473
-35.3494
-35.3516
-35.3538
-35.356
-35.3583
-35.3606
-35.3629
-35.3653
-35.3676
-35.3701
-35.3725
-35.375
-35.3774
-35.3799
-35.3824
-35.3849
-35.3875
-35.39
-35.3925
-35.395
-35.3976
-35.4001
-35.4026
-35.4051
-35.4076
-35.41
-35.4125
-35.4149
-35.4173
-35.4197
-35.422
-35.4244
-35.4266
-35.4289
-35.4311
-35.4333
-35.4354
-35.4375
-35.4395
-35.4415
-35.4434
-35.4453
-35.4471
-35.4489
-35.4506
-35.4522
-35.4538
-35.4553
-35.4568
-35.4582
-35.4595
-35.4608
-35.462
-35.4631
-35.4642
-35.4651
-35.4661
-35.4669
-35.4677
-35.4683
-35.469
-35.4695
-35.47
-35.4703
-35.4707
-35.4709
-35.471
-35.4711
-35.4711
-35.4711
-35.4709
-35.4707
-35.4704
-35.47
-35.4695
-35.469
-35.4684
-35.4677
-35.4669
-35.4661
-35.4652
-35.4642
-35.4632
-35.462
-35.4608
-35.4596
-35.4583
-35.4569
-35.4554
-35.4539
-35.4523
-35.4506
-35.4489
-35.4472
-35.4453
-35.4435
-35.4415
-35.4396
-35.4375
-35.4355
-35.4333
-35.4312
-35.429
-35.4267
-35.4245
-35.4221
-35.4198
-35.4174
-35.415
-35.4126
-35.4101
-35.4077
-35.4052
-35.4027
-35.4002
-35.3977
-35.3952
-35.3926
-35.3901
-35.3876
-35.3851
-35.3825
-35.38
-35.3776
-35.3751
-35.3726
-35.3702
-35.3678
-35.3654
-35.363
-35.3607
-35.3584
-35.3561
-35.3539
-35.3517
-35.3496
-35.3475
-35.3454
-35.3434
-35.3415
-35.3396
-35.3377
-35.336
-35.3342
-35.3326
-35.331
-35.3294
-35.328
-35.3265
-35.3252
-35.3239
-35.3227
-35.3216
-35.3206
-35.3196
-35.3187
-35.3179
-35.3171
-35.3164
-35.3158
-35.3153
-35.3149
-35.3145
-35.3143
-35.3141
-35.314
-35.3139
-35.314
-39.2373
-39.2372
-39.2372
-39.2373
-39.2375
-39.2378
-39.2382
-39.2386
-39.2391
-39.2397
-39.2404
-39.2411
-39.242
-39.2429
-39.2439
-39.2449
-39.2461
-39.2473
-39.2486
-39.2499
-39.2513
-39.2528
-39.2544
-39.256
-39.2577
-39.2594
-39.2612
-39.263
-39.265
-39.2669
-39.2689
-39.271
-39.2731
-39.2753
-39.2775
-39.2797
-39.282
-39.2843
-39.2867
-39.2891
-39.2915
-39.2939
-39.2964
-39.2988
-39.3013
-39.3038
-39.3064
-39.3089
-39.3114
-39.314
-39.3165
-39.3191
-39.3216
-39.3242
-39.3267
-39.3292
-39.3317
-39.3342
-39.3367
-39.3391
-39.3416
-39.344
-39.3463
-39.3487
-39.351
-39.3532
-39.3554
-39.3576
-39.3598
-39.3619
-39.3639
-39.3659
-39.3679
-39.3698
-39.3716
-39.3734
-39.3751
-39.3768
-39.3784
-39.3799
-39.3814
-39.3828
-39.3841
-39.3854
-39.3866
-39.3878
-39.3888
-39.3898
-39.3907
-39.3916
-39.3924
-39.393
-39.3937
-39.3942
-39.3947
-39.3951
-39.3954
-39.3956
-39.3958
-39.3959
-39.3959
-39.3958
-39.3956
-39.3954
-39.3951
-39.3947
-39.3942
-39.3937
-39.3931
-39.3924
-39.3916
-39.3908
-39.3899
-39.3889
-39.3878
-39.3867
-39.3855
-39.3842
-39.3829
-39.3815
-39.38
-39.3784
-39.3768
-39.3752
-39.3735
-39.3717
-39.3698
-39.3679
-39.366
-39.364
-39.362
-39.3599
-39.3577
-39.3555
-39.3533
-39.3511
-39.3488
-39.3464
-39.3441
-39.3417
-39.3392
-39.3368
-39.3343
-39.3318
-39.3293
-39.3268
-39.3243
-39.3218
-39.3192
-39.3167
-39.3141
-39.3116
-39.309
-39.3065
-39.304
-39.3015
-39.299
-39.2965
-39.294
-39.2916
-39.2892
-39.2868
-39.2845
-39.2821
-39.2799
-39.2776
-39.2754
-39.2733
-39.2711
-39.2691
-39.2671
-39.2651
-39.2632
-39.2613
-39.2595
-39.2578
-39.2561
-39.2545
-39.2529
-39.2515
-39.25
-39.2487
-39.2474
-39.2462
-39.2451
-39.244
-39.243
-39.2421
-39.2413
-39.2405
-39.2399
-39.2393
-39.2387
-39.2383
-39.238
-39.2377
-39.2375
-39.2374
-39.2374
-39.2374
-43.1606
-43.1605
-43.1606
-43.1607
-43.1609
-43.1611
-43.1615
-43.1619
-43.1625
-43.1631
-43.1638
-43.1645
-43.1654
-43.1663
-43.1673
-43.1683
-43.1695
-43.1707
-43.172
-43.1733
-43.1748
-43.1763
-43.1778
-43.1795
-43.1812
-43.1829
-43.1847
-43.1866
-43.1885
-43.1905
-43.1925
-43.1946
-43.1968
-43.1989
-43.2012
-43.2034
-43.2057
-43.2081
-43.2104
-43.2128
-43.2153
-43.2177
-43.2202
-43.2227
-43.2252
-43.2278
-43.2303
-43.2329
-43.2354
-43.238
-43.2406
-43.2431
-43.2457
-43.2483
-43.2508
-43.2534
-43.2559
-43.2584
-43.2609
-43.2634
-43.2658
-43.2682
-43.2706
-43.273
-43.2753
-43.2776
-43.2799
-43.2821
-43.2842
-43.2863
-43.2884
-43.2904
-43.2924
-43.2943
-43.2962
-43.298
-43.2997
-43.3014
-43.303
-43.3046
-43.3061
-43.3075
-43.3088
-43.3101
-43.3113
-43.3125
-43.3136
-43.3146
-43.3155
-43.3164
-43.3171
-43.3178
-43.3185
-43.319
-43.3195
-43.3199
-43.3202
-43.3204
-43.3206
-43.3207
-43.3207
-43.3206
-43.3204
-43.3202
-43.3199
-43.3195
-43.319
-43.3185
-43.3179
-43.3172
-43.3164
-43.3155
-43.3146
-43.3136
-43.3125
-43.3114
-43.3102
-43.3089
-43.3075
-43.3061
-43.3046
-43.3031
-43.3015
-43.2998
-43.298
-43.2962
-43.2944
-43.2925
-43.2905
-43.2885
-43.2864
-43.2843
-43.2821
-43.2799
-43.2777
-43.2754
-43.2731
-43.2707
-43.2683
-43.2659
-43.2635
-43.261
-43.2585
-43.256
-43.2535
-43.2509
-43.2484
-43.2458
-43.2433
-43.2407
-43.2381
-43.2356
-43.233
-43.2304
-43.2279
-43.2253
-43.2228
-43.2203
-43.2178
-43.2154
-43.213
-43.2106
-43.2082
-43.2059
-43.2036
-43.2013
-43.1991
-43.1969
-43.1948
-43.1927
-43.1906
-43.1887
-43.1867
-43.1849
-43.1831
-43.1813
-43.1796
-43.178
-43.1764
-43.1749
-43.1735
-43.1721
-43.1708
-43.1696
-43.1685
-43.1674
-43.1664
-43.1655
-43.1647
-43.1639
-43.1632
-43.1626
-43.1621
-43.1616
-43.1613
-43.161
-43.1608
-43.1607
-43.1607
-43.1607
-47.0839
-47.0838
-47.0838
-47.0839
-47.0841
-47.0844
-47.0848
-47.0852
-47.0857
-47.0864
-47.087
-47.0878
-47.0887
-47.0896
-47.0906
-47.0917
-47.0928
-47.094
-47.0953
-47.0967
-47.0982
-47.0997
-47.1013
-47.1029
-47.1046
-47.1064
-47.1082
-47.1101
-47.112
-47.114
-47.1161
-47.1182
-47.1204
-47.1226
-47.1248
-47.1271
-47.1294
-47.1318
-47.1342
-47.1366
-47.139
-47.1415
-47.144
-47.1465
-47.1491
-47.1517
-47.1542
-47.1568
-47.1594
-47.162
-47.1646
-47.1672
-47.1698
-47.1724
-47.175
-47.1775
-47.1801
-47.1826
-47.1852
-47.1877
-47.1901
-47.1926
-47.195
-47.1974
-47.1997
-47.202
-47.2043
-47.2065
-47.2087
-47.2109
-47.213
-47.215
-47.217
-47.2189
-47.2208
-47.2226
-47.2244
-47.2261
-47.2277
-47.2293
-47.2308
-47.2322
-47.2336
-47.2349
-47.2362
-47.2373
-47.2384
-47.2394
-47.2404
-47.2412
-47.242
-47.2427
-47.2433
-47.2439
-47.2444
-47.2448
-47.2451
-47.2453
-47.2455
-47.2456
-47.2456
-47.2455
-47.2453
-47.2451
-47.2448
-47.2444
-47.2439
-47.2434
-47.2427
-47.242
-47.2413
-47.2404
-47.2395
-47.2384
-47.2374
-47.2362
-47.235
-47.2337
-47.2323
-47.2309
-47.2294
-47.2278
-47.2262
-47.2245
-47.2227
-47.2209
-47.219
-47.2171
-47.2151
-47.213
-47.2109
-47.2088
-47.2066
-47.2044
-47.2021
-47.1998
-47.1975
-47.1951
-47.1927
-47.1902
-47.1878
-47.1853
-47.1827
-47.1802
-47.1777
-47.1751
-47.1725
-47.1699
-47.1673
-47.1647
-47.1621
-47.1595
-47.1569
-47.1544
-47.1518
-47.1492
-47.1467
-47.1442
-47.1416
-47.1392
-47.1367
-47.1343
-47.1319
-47.1295
-47.1272
-47.1249
-47.1227
-47.1205
-47.1183
-47.1162
-47.1142
-47.1122
-47.1102
-47.1083
-47.1065
-47.1047
-47.103
-47.1014
-47.0998
-47.0983
-47.0969
-47.0955
-47.0942
-47.093
-47.0918
-47.0907
-47.0897
-47.0888
-47.0879
-47.0872
-47.0865
-47.0859
-47.0854
-47.0849
-47.0846
-47.0843
-47.0841
-47.084
-47.0839
-47.084
-51.007
-51.007
-51.007
-51.0071
-51.0073
-51.0076
-51.008
-51.0084
-51.0089
-51.0096
-51.0103
-51.011
-51.0119
-51.0128
-51.0138
-51.0149
-51.0161
-51.0173
-51.0186
-51.02
-51.0215
-51.023
-51.0246
-51.0263
-51.028
-51.0298
-51.0316
-51.0335
-51.0355
-51.0375
-51.0396
-51.0417
-51.0439
-51.0461
-51.0484
-51.0507
-51.0531
-51.0554
-51.0579
-51.0603
-51.0628
-51.0653
-51.0678
-51.0704
-51.073
-51.0755
-51.0781
-51.0808
-51.0834
-51.086
-51.0886
-51.0913
-51.0939
-51.0965
-51.0991
-51.1017
-51.1043
-51.1069
-51.1094
-51.112
-51.1145
-51.1169
-51.1194
-51.1218
-51.1242
-51.1265
-51.1288
-51.1311
-51.1333
-51.1354
-51.1376
-51.1396
-51.1416
-51.1436
-51.1455
-51.1473
-51.1491
-51.1508
-51.1525
-51.1541
-51.1556
-51.1571
-51.1585
-51.1598
-51.161
-51.1622
-51.1633
-51.1643
-51.1653
-51.1662
-51.167
-51.1677
-51.1683
-51.1689
-51.1694
-51.1698
-51.1701
-51.1703
-51.1705
-51.1706
-51.1706
-51.1705
-51.1704
-51.1701
-51.1698
-51.1694
-51.1689
-51.1684
-51.1677
-51.167
-51.1662
-51.1653
-51.1644
-51.1634
-51.1623
-51.1611
-51.1598
-51.1585
-51.1571
-51.1557
-51.1542
-51.1526
-51.1509
-51.1492
-51.1474
-51.1456
-51.1437
-51.1417
-51.1397
-51.1376
-51.1355
-51.1334
-51.1311
-51.1289
-51.1266
-51.1243
-51.1219
-51.1195
-51.117
-51.1146
-51.1121
-51.1095
-51.107
-51.1044
-51.1018
-51.0992
-51.0966
-51.094
-51.0914
-51.0888
-51.0861
-51.0835
-51.0809
-51.0783
-51.0757
-51.0731
-51.0705
-51.068
-51.0654
-51.0629
-51.0604
-51.058
-51.0556
-51.0532
-51.0508
-51.0485
-51.0463
-51.044
-51.0419
-51.0397
-51.0377
-51.0357
-51.0337
-51.0318
-51.0299
-51.0281
-51.0264
-51.0248
-51.0232
-51.0216
-51.0202
-51.0188
-51.0175
-51.0162
-51.0151
-51.014
-51.013
-51.012
-51.0112
-51.0104
-51.0097
-51.0091
-51.0086
-51.0081
-51.0077
-51.0075
-51.0073
-51.0072
-51.0071
-51.0072
-54.9301
-54.9301
-54.9301
-54.9302
-54.9304
-54.9307
-54.9311
-54.9315
-54.9321
-54.9327
-54.9334
-54.9342
-54.935
-54.936
-54.937
-54.9381
-54.9393
-54.9405
-54.9419
-54.9433
-54.9447
-54.9463
-54.9479
-54.9496
-54.9513
-54.9531
-54.955
-54.9569
-54.9589
-54.961
-54.9631
-54.9652
-54.9674
-54.9697
-54.972
-54.9743
-54.9767
-54.9791
-54.9815
-54.984
-54.9865
-54.9891
-54.9916
-54.9942
-54.9968
-54.9994
-55.0021
-55.0047
-55.0074
-55.01
-55.0127
-55.0153
-55.018
-55.0206
-55.0233
-55.0259
-55.0285
-55.0311
-55.0337
-55.0363
-55.0388
-55.0413
-55.0438
-55.0462
-55.0486
-55.051
-55.0533
-55.0556
-55.0579
-55.0601
-55.0622
-55.0643
-55.0663
-55.0683
-55.0703
-55.0721
-55.0739
-55.0757
-55.0774
-55.079
-55.0805
-55.082
-55.0834
-55.0847
-55.086
-55.0872
-55.0883
-55.0894
-55.0903
-55.0912
-55.092
-55.0927
-55.0934
-55.094
-55.0945
-55.0949
-55.0952
-55.0954
-55.0956
-55.0957
-55.0957
-55.0956
-55.0955
-55.0952
-55.0949
-55.0945
-55.094
-55.0934
-55.0928
-55.092
-55.0912
-55.0904
-55.0894
-55.0884
-55.0872
-55.0861
-55.0848
-55.0835
-55.0821
-55.0806
-55.079
-55.0774
-55.0757
-55.074
-55.0722
-55.0703
-55.0684
-55.0664
-55.0644
-55.0623
-55.0602
-55.058
-55.0557
-55.0534
-55.0511
-55.0487
-55.0463
-55.0439
-55.0414
-55.0389
-55.0364
-55.0338
-55.0312
-55.0286
-55.026
-55.0234
-55.0208
-55.0181
-55.0155
-55.0128
-55.0101
-55.0075
-55.0048
-55.0022
-54.9996
-54.9969
-54.9943
-54.9917
-54.9892
-54.9867
-54.9841
-54.9817
-54.9792
-54.9768
-54.9744
-54.9721
-54.9698
-54.9676
-54.9654
-54.9632
-54.9611
-54.9591
-54.9571
-54.9552
-54.9533
-54.9515
-54.9497
-54.9481
-54.9464
-54.9449
-54.9434
-54.942
-54.9407
-54.9394
-54.9383
-54.9372
-54.9361
-54.9352
-54.9343
-54.9335
-54.9328
-54.9322
-54.9317
-54.9312
-54.9309
-54.9306
-54.9304
-54.9303
-54.9302
-54.9303
-58.8532
-58.8531
-58.8532
-58.8533
-58.8535
-58.8538
-58.8541
-58.8546
-58.8551
-58.8558
-58.8565
-58.8573
-58.8581
-58.8591
-58.8601
-58.8612
-58.8624
-58.8637
-58.865
-58.8665
-58.868
-58.8695
-58.8711
-58.8728
-58.8746
-58.8764
-58.8783
-58.8803
-58.8823
-58.8844
-58.8865
-58.8887
-58.8909
-58.8932
-58.8955
-58.8978
-58.9002
-58.9027
-58.9052
-58.9077
-58.9102
-58.9128
-58.9154
-58.918
-58.9206
-58.9233
-58.926
-58.9286
-58.9313
-58.934
-58.9367
-58.9394
-58.9421
-58.9448
-58.9475
-58.9501
-58.9528
-58.9554
-58.958
-58.9606
-58.9632
-58.9657
-58.9682
-58.9707
-58.9732
-58.9756
-58.9779
-58.9803
-58.9825
-58.9848
-58.9869
-58.9891
-58.9911
-58.9931
-58.9951
-58.997
-58.9988
-59.0006
-59.0023
-59.0039
-59.0055
-59.007
-59.0084
-59.0098
-59.0111
-59.0123
-59.0134
-59.0145
-59.0154
-59.0163
-59.0172
-59.0179
-59.0186
-59.0191
-59.0196
-59.0201
-59.0204
-59.0206
-59.0208
-59.0209
-59.0209
-59.0208
-59.0206
-59.0204
-59.0201
-59.0197
-59.0192
-59.0186
-59.0179
-59.0172
-59.0164
-59.0155
-59.0145
-59.0135
-59.0123
-59.0111
-59.0098
-59.0085
-59.0071
-59.0056
-59.004
-59.0024
-59.0007
-58.9989
-58.9971
-58.9952
-58.9932
-58.9912
-58.9891
-58.987
-58.9848
-58.9826
-58.9803
-58.978
-58.9757
-58.9733
-58.9708
-58.9684
-58.9658
-58.9633
-58.9607
-58.9581
-58.9555
-58.9529
-58.9502
-58.9476
-58.9449
-58.9422
-58.9395
-58.9368
-58.9341
-58.9314
-58.9288
-58.9261
-58.9234
-58.9208
-58.9181
-58.9155
-58.9129
-58.9104
-58.9078
-58.9053
-58.9028
-58.9004
-58.898
-58.8956
-58.8933
-58.891
-58.8888
-58.8866
-58.8845
-58.8824
-58.8804
-58.8785
-58.8766
-58.8748
-58.873
-58.8713
-58.8697
-58.8681
-58.8666
-58.8652
-58.8638
-58.8626
-58.8614
-58.8603
-58.8592
-58.8583
-58.8574
-58.8566
-58.8559
-58.8553
-58.8547
-58.8543
-58.8539
-58.8536
-58.8534
-58.8533
-58.8533
-58.8533
-62.7761
-62.7761
-62.7761
-62.7762
-62.7764
-62.7767
-62.7771
-62.7776
-62.7781
-62.7787
-62.7795
-62.7803
-62.7812
-62.7821
-62.7832
-62.7843
-62.7855
-62.7868
-62.7881
-62.7896
-62.7911
-62.7927
-62.7943
-62.796
-62.7978
-62.7997
-62.8016
-62.8036
-62.8056
-62.8077
-62.8099
-62.8121