/*--------------------------------*- C++ -*----------------------------------*\
| =========                 |                                                 |
| \\      /  F ield         | OpenFOAM: The Open Source CFD Toolbox           |
|  \\    /   O peration     | Version:  2412                                  |
|   \\  /    A nd           | Website:  www.openfoam.com                      |
|    \\/     M anipulation  |                                                 |
\*---------------------------------------------------------------------------*/
FoamFile
{
    version     2.0;
    format      ascii;
    arch        "LSB;label=32;scalar=64";
    class       volScalarField;
    location    "1.2";
    object      p_rgh;
}
// * * * * * * * * * * * * * * * * * * * * * * * * * * * * * * * * * * * * * //

dimensions      [1 -1 -2 0 0 0 0];

internalField   nonuniform List<scalar> 
40000
(
1.962
1.96205
1.96202
1.96192
1.96173
1.96147
1.96113
1.96071
1.96021
1.95964
1.95899
1.95826
1.95746
1.95658
1.95563
1.95461
1.95352
1.95236
1.95112
1.94982
1.94846
1.94702
1.94553
1.94397
1.94235
1.94068
1.93895
1.93716
1.93532
1.93342
1.93148
1.92949
1.92745
1.92537
1.92325
1.92109
1.9189
1.91667
1.91441
1.91212
1.9098
1.90745
1.90509
1.90271
1.9003
1.89789
1.89546
1.89302
1.89057
1.88812
1.88567
1.88322
1.88077
1.87833
1.8759
1.87347
1.87106
1.86867
1.8663
1.86394
1.86161
1.85931
1.85703
1.85479
1.85258
1.8504
1.84826
1.84616
1.8441
1.84208
1.84011
1.83819
1.83631
1.83449
1.83272
1.831
1.82934
1.82774
1.8262
1.82472
1.8233
1.82194
1.82065
1.81942
1.81826
1.81717
1.81614
1.81519
1.8143
1.81349
1.81275
1.81208
1.81148
1.81096
1.81051
1.81013
1.80983
1.8096
1.80945
1.80938
1.80937
1.80945
1.8096
1.80982
1.81012
1.81049
1.81094
1.81146
1.81205
1.81272
1.81346
1.81427
1.81515
1.8161
1.81712
1.81821
1.81937
1.8206
1.82189
1.82324
1.82466
1.82614
1.82768
1.82928
1.83093
1.83265
1.83442
1.83624
1.83811
1.84003
1.842
1.84401
1.84607
1.84817
1.85031
1.85248
1.85469
1.85694
1.85921
1.86151
1.86384
1.86619
1.86857
1.87096
1.87336
1.87578
1.87822
1.88066
1.8831
1.88555
1.888
1.89045
1.8929
1.89533
1.89776
1.90018
1.90258
1.90496
1.90733
1.90967
1.91199
1.91428
1.91654
1.91877
1.92096
1.92312
1.92524
1.92732
1.92935
1.93134
1.93328
1.93518
1.93702
1.93881
1.94054
1.94222
1.94383
1.94539
1.94689
1.94832
1.94968
1.95098
1.95222
1.95338
1.95447
1.9555
1.95645
1.95732
1.95812
1.95885
1.9595
1.96008
1.96058
1.961
1.96134
1.9616
1.96179
1.9619
1.96192
1.96187
1.96195
1.962
1.96198
1.96187
1.96169
1.96143
1.96109
1.96067
1.96017
1.9596
1.95895
1.95822
1.95742
1.95654
1.95559
1.95457
1.95348
1.95231
1.95108
1.94978
1.94841
1.94698
1.94549
1.94393
1.94231
1.94064
1.93891
1.93712
1.93528
1.93338
1.93144
1.92945
1.92742
1.92534
1.92322
1.92106
1.91887
1.91664
1.91438
1.91209
1.90977
1.90743
1.90506
1.90268
1.90028
1.89786
1.89544
1.893
1.89056
1.88811
1.88566
1.88321
1.88076
1.87832
1.87589
1.87347
1.87106
1.86867
1.8663
1.86395
1.86162
1.85932
1.85704
1.8548
1.85259
1.85041
1.84827
1.84617
1.84412
1.8421
1.84014
1.83821
1.83634
1.83452
1.83275
1.83104
1.82938
1.82779
1.82624
1.82477
1.82335
1.82199
1.8207
1.81948
1.81832
1.81723
1.8162
1.81525
1.81437
1.81355
1.81281
1.81214
1.81155
1.81103
1.81058
1.8102
1.8099
1.80967
1.80952
1.80945
1.80945
1.80952
1.80967
1.80989
1.81019
1.81056
1.811
1.81152
1.81212
1.81278
1.81352
1.81433
1.81521
1.81616
1.81718
1.81827
1.81943
1.82065
1.82194
1.82329
1.82471
1.82618
1.82772
1.82932
1.83097
1.83268
1.83445
1.83627
1.83814
1.84005
1.84202
1.84403
1.84609
1.84819
1.85032
1.8525
1.8547
1.85694
1.85922
1.86152
1.86384
1.86619
1.86856
1.87095
1.87336
1.87578
1.87821
1.88065
1.88309
1.88554
1.88799
1.89043
1.89288
1.89531
1.89774
1.90015
1.90255
1.90494
1.9073
1.90964
1.91196
1.91425
1.91651
1.91873
1.92093
1.92308
1.9252
1.92728
1.92931
1.9313
1.93325
1.93514
1.93698
1.93877
1.9405
1.94218
1.94379
1.94535
1.94684
1.94828
1.94964
1.95094
1.95217
1.95334
1.95443
1.95545
1.9564
1.95728
1.95808
1.95881
1.95946
1.96003
1.96053
1.96095
1.96129
1.96156
1.96174
1.96185
1.96187
1.96182
1.96197
1.96202
1.962
1.96189
1.96171
1.96145
1.96111
1.96069
1.96019
1.95961
1.95896
1.95824
1.95743
1.95656
1.95561
1.95458
1.95349
1.95233
1.95109
1.94979
1.94843
1.94699
1.9455
1.94394
1.94232
1.94065
1.93891
1.93712
1.93528
1.93339
1.93145
1.92945
1.92742
1.92534
1.92322
1.92106
1.91886
1.91663
1.91437
1.91208
1.90976
1.90742
1.90505
1.90267
1.90027
1.89785
1.89542
1.89299
1.89054
1.88809
1.88564
1.88319
1.88074
1.8783
1.87587
1.87345
1.87104
1.86865
1.86628
1.86392
1.8616
1.85929
1.85702
1.85478
1.85257
1.85039
1.84825
1.84615
1.8441
1.84208
1.84011
1.83819
1.83632
1.8345
1.83274
1.83102
1.82937
1.82777
1.82623
1.82475
1.82333
1.82198
1.82069
1.81946
1.8183
1.81721
1.81619
1.81524
1.81435
1.81354
1.8128
1.81213
1.81154
1.81102
1.81057
1.81019
1.80989
1.80967
1.80951
1.80944
1.80944
1.80951
1.80966
1.80988
1.81018
1.81055
1.81099
1.81151
1.81211
1.81277
1.81351
1.81432
1.8152
1.81615
1.81717
1.81826
1.81941
1.82063
1.82192
1.82327
1.82469
1.82617
1.8277
1.8293
1.83095
1.83266
1.83443
1.83625
1.83812
1.84003
1.842
1.84401
1.84607
1.84816
1.8503
1.85247
1.85468
1.85692
1.8592
1.8615
1.86382
1.86617
1.86854
1.87093
1.87334
1.87576
1.87819
1.88063
1.88307
1.88552
1.88797
1.89042
1.89286
1.8953
1.89773
1.90014
1.90254
1.90493
1.90729
1.90963
1.91195
1.91424
1.9165
1.91873
1.92092
1.92308
1.9252
1.92728
1.92932
1.93131
1.93325
1.93514
1.93699
1.93877
1.94051
1.94218
1.9438
1.94536
1.94686
1.94829
1.94965
1.95095
1.95219
1.95335
1.95445
1.95547
1.95642
1.95729
1.9581
1.95882
1.95948
1.96005
1.96055
1.96097
1.96131
1.96158
1.96176
1.96187
1.96189
1.96184
1.96207
1.96212
1.9621
1.96199
1.96181
1.96154
1.9612
1.96078
1.96028
1.95971
1.95905
1.95833
1.95752
1.95664
1.95569
1.95467
1.95357
1.95241
1.95117
1.94987
1.9485
1.94707
1.94557
1.94401
1.94239
1.94071
1.93897
1.93718
1.93534
1.93344
1.93149
1.9295
1.92746
1.92538
1.92325
1.92109
1.91889
1.91666
1.91439
1.9121
1.90978
1.90743
1.90506
1.90268
1.90027
1.89785
1.89542
1.89298
1.89053
1.88808
1.88562
1.88317
1.88072
1.87827
1.87584
1.87341
1.871
1.86861
1.86623
1.86388
1.86155
1.85924
1.85696
1.85472
1.8525
1.85033
1.84819
1.84609
1.84403
1.84201
1.84004
1.83812
1.83625
1.83442
1.83265
1.83094
1.82928
1.82768
1.82614
1.82466
1.82324
1.82189
1.82059
1.81937
1.81821
1.81712
1.81609
1.81514
1.81426
1.81344
1.8127
1.81203
1.81144
1.81092
1.81047
1.81009
1.80979
1.80957
1.80941
1.80934
1.80934
1.80941
1.80956
1.80978
1.81008
1.81045
1.81089
1.81141
1.81201
1.81267
1.81341
1.81422
1.8151
1.81605
1.81707
1.81816
1.81932
1.82054
1.82183
1.82318
1.8246
1.82608
1.82762
1.82922
1.83087
1.83258
1.83435
1.83617
1.83804
1.83996
1.84193
1.84394
1.846
1.8481
1.85024
1.85241
1.85462
1.85687
1.85914
1.86145
1.86378
1.86613
1.8685
1.87089
1.8733
1.87573
1.87816
1.8806
1.88305
1.8855
1.88796
1.89041
1.89285
1.8953
1.89773
1.90014
1.90255
1.90494
1.9073
1.90965
1.91197
1.91426
1.91653
1.91876
1.92096
1.92312
1.92524
1.92732
1.92936
1.93135
1.9333
1.9352
1.93704
1.93883
1.94057
1.94225
1.94387
1.94543
1.94693
1.94836
1.94973
1.95103
1.95227
1.95343
1.95453
1.95555
1.9565
1.95738
1.95819
1.95891
1.95957
1.96014
1.96064
1.96106
1.96141
1.96167
1.96186
1.96196
1.96199
1.96194
1.96224
1.96229
1.96226
1.96216
1.96197
1.96171
1.96136
1.96094
1.96044
1.95987
1.95921
1.95848
1.95768
1.9568
1.95584
1.95482
1.95372
1.95255
1.95131
1.95001
1.94863
1.9472
1.94569
1.94413
1.94251
1.94082
1.93908
1.93729
1.93544
1.93354
1.93159
1.92959
1.92754
1.92545
1.92333
1.92116
1.91895
1.91672
1.91445
1.91215
1.90982
1.90747
1.90509
1.9027
1.90029
1.89786
1.89542
1.89298
1.89052
1.88806
1.8856
1.88314
1.88069
1.87824
1.87579
1.87336
1.87095
1.86855
1.86617
1.86381
1.86147
1.85916
1.85688
1.85463
1.85241
1.85022
1.84808
1.84597
1.84391
1.84189
1.83992
1.83799
1.83611
1.83429
1.83251
1.83079
1.82913
1.82753
1.82599
1.8245
1.82308
1.82172
1.82043
1.8192
1.81804
1.81694
1.81592
1.81496
1.81408
1.81326
1.81252
1.81185
1.81125
1.81073
1.81028
1.8099
1.8096
1.80938
1.80922
1.80915
1.80915
1.80922
1.80937
1.80959
1.80989
1.81026
1.81071
1.81123
1.81182
1.81249
1.81323
1.81404
1.81492
1.81588
1.8169
1.81799
1.81915
1.82038
1.82167
1.82302
1.82444
1.82592
1.82746
1.82907
1.83073
1.83244
1.83421
1.83604
1.83791
1.83983
1.84181
1.84383
1.84589
1.84799
1.85013
1.85232
1.85453
1.85678
1.85906
1.86137
1.8637
1.86606
1.86844
1.87084
1.87325
1.87568
1.87812
1.88057
1.88303
1.88548
1.88794
1.8904
1.89285
1.8953
1.89774
1.90016
1.90257
1.90496
1.90734
1.90969
1.91201
1.91431
1.91658
1.91882
1.92102
1.92319
1.92532
1.9274
1.92945
1.93145
1.9334
1.9353
1.93715
1.93894
1.94068
1.94237
1.94399
1.94555
1.94706
1.94849
1.94987
1.95117
1.95241
1.95358
1.95468
1.9557
1.95666
1.95754
1.95834
1.95907
1.95973
1.96031
1.96081
1.96123
1.96157
1.96184
1.96202
1.96213
1.96215
1.96211
1.96248
1.96253
1.9625
1.9624
1.96221
1.96194
1.9616
1.96118
1.96067
1.9601
1.95944
1.95871
1.9579
1.95701
1.95606
1.95503
1.95393
1.95275
1.95151
1.9502
1.94883
1.94738
1.94588
1.94431
1.94268
1.94099
1.93924
1.93744
1.93559
1.93368
1.93172
1.92972
1.92766
1.92557
1.92343
1.92126
1.91905
1.9168
1.91452
1.91222
1.90988
1.90752
1.90514
1.90274
1.90032
1.89788
1.89544
1.89298
1.89052
1.88805
1.88558
1.88311
1.88065
1.87819
1.87574
1.8733
1.87088
1.86847
1.86608
1.86371
1.86137
1.85905
1.85676
1.8545
1.85227
1.85008
1.84793
1.84582
1.84375
1.84172
1.83974
1.83781
1.83592
1.83409
1.83231
1.83059
1.82892
1.82731
1.82576
1.82427
1.82285
1.82148
1.82019
1.81895
1.81779
1.81669
1.81566
1.81471
1.81382
1.813
1.81225
1.81158
1.81098
1.81046
1.81001
1.80963
1.80933
1.8091
1.80895
1.80887
1.80887
1.80894
1.80909
1.80932
1.80961
1.80999
1.81044
1.81096
1.81155
1.81222
1.81297
1.81378
1.81467
1.81562
1.81665
1.81774
1.8189
1.82013
1.82143
1.82279
1.82421
1.8257
1.82725
1.82885
1.83052
1.83224
1.83402
1.83585
1.83773
1.83966
1.84164
1.84366
1.84573
1.84784
1.84999
1.85218
1.8544
1.85666
1.85895
1.86127
1.86361
1.86598
1.86836
1.87077
1.87319
1.87563
1.87808
1.88053
1.883
1.88546
1.88793
1.8904
1.89286
1.89531
1.89776
1.90019
1.90261
1.90501
1.90739
1.90975
1.91208
1.91439
1.91667
1.91891
1.92112
1.9233
1.92543
1.92753
1.92958
1.93158
1.93354
1.93544
1.9373
1.9391
1.94085
1.94254
1.94417
1.94574
1.94724
1.94869
1.95006
1.95137
1.95261
1.95379
1.95489
1.95592
1.95688
1.95776
1.95857
1.9593
1.95996
1.96054
1.96104
1.96146
1.96181
1.96207
1.96226
1.96237
1.96239
1.96234
1.96279
1.96283
1.96281
1.9627
1.96252
1.96225
1.9619
1.96148
1.96098
1.96039
1.95973
1.959
1.95819
1.9573
1.95634
1.95531
1.9542
1.95302
1.95178
1.95046
1.94908
1.94763
1.94612
1.94454
1.9429
1.94121
1.93945
1.93765
1.93578
1.93387
1.9319
1.92989
1.92783
1.92572
1.92358
1.92139
1.91917
1.91692
1.91463
1.91231
1.90997
1.90759
1.9052
1.90279
1.90036
1.89792
1.89546
1.89299
1.89052
1.88804
1.88556
1.88308
1.8806
1.87814
1.87567
1.87323
1.87079
1.86837
1.86597
1.86359
1.86124
1.85891
1.85661
1.85434
1.8521
1.8499
1.84774
1.84562
1.84354
1.8415
1.83951
1.83757
1.83568
1.83384
1.83205
1.83032
1.82865
1.82703
1.82547
1.82398
1.82254
1.82118
1.81987
1.81863
1.81746
1.81636
1.81533
1.81437
1.81347
1.81265
1.8119
1.81123
1.81063
1.8101
1.80965
1.80927
1.80896
1.80874
1.80858
1.80851
1.8085
1.80858
1.80873
1.80895
1.80925
1.80963
1.81008
1.8106
1.8112
1.81187
1.81262
1.81344
1.81433
1.81529
1.81632
1.81742
1.81858
1.81982
1.82112
1.82249
1.82392
1.82541
1.82696
1.82858
1.83025
1.83198
1.83376
1.8356
1.83749
1.83943
1.84142
1.84345
1.84553
1.84765
1.84981
1.85201
1.85424
1.85651
1.85881
1.86114
1.86349
1.86587
1.86826
1.87068
1.87312
1.87556
1.87802
1.88049
1.88296
1.88544
1.88792
1.8904
1.89287
1.89533
1.89779
1.90023
1.90266
1.90507
1.90746
1.90983
1.91218
1.91449
1.91678
1.91904
1.92126
1.92344
1.92559
1.92769
1.92975
1.93176
1.93372
1.93564
1.9375
1.93931
1.94107
1.94276
1.9444
1.94597
1.94749
1.94894
1.95032
1.95164
1.95288
1.95406
1.95517
1.9562
1.95716
1.95805
1.95886
1.95959
1.96026
1.96084
1.96134
1.96177
1.96211
1.96238
1.96257
1.96268
1.9627
1.96265
1.96317
1.96322
1.96319
1.96308
1.9629
1.96263
1.96228
1.96185
1.96135
1.96076
1.9601
1.95936
1.95854
1.95765
1.95669
1.95565
1.95454
1.95335
1.9521
1.95078
1.94939
1.94793
1.94641
1.94483
1.94318
1.94148
1.93972
1.9379
1.93602
1.9341
1.93212
1.9301
1.92803
1.92591
1.92376
1.92156
1.91933
1.91706
1.91476
1.91243
1.91007
1.90769
1.90529
1.90286
1.90042
1.89796
1.89549
1.89301
1.89052
1.88803
1.88554
1.88304
1.88055
1.87807
1.8756
1.87313
1.87069
1.86825
1.86584
1.86345
1.86108
1.85874
1.85642
1.85414
1.85189
1.84968
1.84751
1.84537
1.84328
1.84123
1.83923
1.83728
1.83538
1.83353
1.83173
1.82999
1.82831
1.82668
1.82511
1.82361
1.82217
1.82079
1.81948
1.81824
1.81706
1.81595
1.81491
1.81394
1.81305
1.81222
1.81147
1.81079
1.81018
1.80965
1.8092
1.80882
1.80851
1.80828
1.80813
1.80805
1.80805
1.80812
1.80827
1.8085
1.8088
1.80918
1.80963
1.81016
1.81076
1.81144
1.81219
1.81301
1.8139
1.81487
1.81591
1.81701
1.81819
1.81943
1.82074
1.82211
1.82355
1.82505
1.82661
1.82824
1.82992
1.83166
1.83345
1.8353
1.8372
1.83915
1.84115
1.8432
1.84529
1.84742
1.84959
1.8518
1.85405
1.85633
1.85864
1.86098
1.86334
1.86574
1.86815
1.87058
1.87303
1.87549
1.87796
1.88044
1.88293
1.88542
1.88791
1.8904
1.89289
1.89536
1.89783
1.90029
1.90273
1.90516
1.90756
1.90994
1.9123
1.91463
1.91693
1.91919
1.92143
1.92362
1.92578
1.92789
1.92996
1.93198
1.93396
1.93588
1.93776
1.93957
1.94134
1.94304
1.94469
1.94627
1.94779
1.94925
1.95064
1.95196
1.95321
1.95439
1.95551
1.95655
1.95751
1.9584
1.95922
1.95996
1.96062
1.96121
1.96171
1.96214
1.96249
1.96276
1.96295
1.96305
1.96308
1.96303
1.96362
1.96367
1.96364
1.96354
1.96335
1.96308
1.96273
1.9623
1.96179
1.9612
1.96053
1.95979
1.95897
1.95807
1.9571
1.95605
1.95494
1.95375
1.95249
1.95116
1.94976
1.94829
1.94676
1.94517
1.94352
1.9418
1.94003
1.9382
1.93631
1.93438
1.93239
1.93035
1.92827
1.92614
1.92397
1.92177
1.91952
1.91724
1.91492
1.91258
1.91021
1.90781
1.90539
1.90295
1.90049
1.89801
1.89553
1.89303
1.89053
1.88802
1.88551
1.883
1.8805
1.878
1.87551
1.87303
1.87056
1.86812
1.86569
1.86328
1.86089
1.85854
1.85621
1.85391
1.85165
1.84942
1.84723
1.84508
1.84298
1.84092
1.8389
1.83694
1.83502
1.83316
1.83135
1.8296
1.8279
1.82626
1.82469
1.82317
1.82172
1.82034
1.81902
1.81776
1.81658
1.81546
1.81442
1.81344
1.81254
1.81171
1.81095
1.81026
1.80966
1.80912
1.80866
1.80828
1.80797
1.80774
1.80759
1.80751
1.80751
1.80758
1.80773
1.80796
1.80826
1.80864
1.8091
1.80963
1.81024
1.81092
1.81167
1.8125
1.8134
1.81437
1.81542
1.81653
1.81771
1.81896
1.82028
1.82166
1.82311
1.82462
1.8262
1.82783
1.82953
1.83128
1.83308
1.83494
1.83686
1.83882
1.84083
1.84289
1.845
1.84714
1.84933
1.85156
1.85382
1.85611
1.85844
1.86079
1.86318
1.86558
1.86801
1.87046
1.87292
1.8754
1.87789
1.88038
1.88289
1.88539
1.8879
1.89041
1.89291
1.8954
1.89789
1.90036
1.90282
1.90526
1.90768
1.91007
1.91244
1.91479
1.9171
1.91938
1.92163
1.92384
1.92601
1.92813
1.93021
1.93225
1.93424
1.93617
1.93806
1.93989
1.94166
1.94338
1.94503
1.94662
1.94815
1.94962
1.95102
1.95234
1.9536
1.95479
1.95591
1.95696
1.95793
1.95883
1.95965
1.96039
1.96106
1.96165
1.96216
1.96259
1.96294
1.96321
1.9634
1.9635
1.96353
1.96348
1.96414
1.96419
1.96417
1.96406
1.96387
1.9636
1.96324
1.96281
1.9623
1.96171
1.96103
1.96028
1.95946
1.95856
1.95758
1.95653
1.9554
1.9542
1.95293
1.9516
1.95019
1.94871
1.94717
1.94557
1.9439
1.94218
1.94039
1.93855
1.93665
1.9347
1.9327
1.93065
1.92855
1.92641
1.92423
1.922
1.91974
1.91744
1.91511
1.91275
1.91036
1.90794
1.90551
1.90305
1.90057
1.89808
1.89558
1.89306
1.89054
1.88801
1.88549
1.88296
1.88043
1.87792
1.87541
1.87291
1.87043
1.86796
1.86551
1.86308
1.86068
1.85831
1.85596
1.85364
1.85136
1.84912
1.84691
1.84475
1.84263
1.84055
1.83852
1.83654
1.83461
1.83273
1.8309
1.82914
1.82743
1.82578
1.82419
1.82267
1.8212
1.81981
1.81847
1.81721
1.81602
1.81489
1.81384
1.81285
1.81194
1.81111
1.81034
1.80965
1.80904
1.8085
1.80804
1.80765
1.80734
1.80711
1.80695
1.80687
1.80687
1.80695
1.8071
1.80733
1.80764
1.80802
1.80848
1.80901
1.80962
1.81031
1.81107
1.81191
1.81281
1.81379
1.81485
1.81597
1.81716
1.81842
1.81975
1.82114
1.8226
1.82413
1.82571
1.82736
1.82907
1.83083
1.83265
1.83453
1.83646
1.83844
1.84046
1.84254
1.84466
1.84682
1.84903
1.85127
1.85355
1.85586
1.85821
1.86058
1.86298
1.86541
1.86785
1.87032
1.8728
1.8753
1.8778
1.88032
1.88284
1.88537
1.88789
1.89042
1.89294
1.89545
1.89795
1.90044
1.90292
1.90538
1.90781
1.91023
1.91262
1.91498
1.91731
1.9196
1.92187
1.92409
1.92627
1.92842
1.93051
1.93256
1.93456
1.93651
1.93841
1.94025
1.94204
1.94376
1.94543
1.94703
1.94857
1.95005
1.95145
1.95279
1.95406
1.95526
1.95639
1.95744
1.95842
1.95932
1.96015
1.96089
1.96156
1.96216
1.96267
1.9631
1.96346
1.96373
1.96392
1.96403
1.96405
1.964
1.96474
1.96479
1.96476
1.96465
1.96446
1.96419
1.96383
1.9634
1.96288
1.96228
1.96161
1.96085
1.96002
1.95911
1.95813
1.95707
1.95593
1.95472
1.95344
1.9521
1.95068
1.94919
1.94764
1.94602
1.94435
1.94261
1.94081
1.93895
1.93704
1.93507
1.93306
1.93099
1.92888
1.92672
1.92452
1.92227
1.91999
1.91768
1.91533
1.91295
1.91054
1.9081
1.90565
1.90317
1.90067
1.89816
1.89563
1.8931
1.89055
1.88801
1.88546
1.88291
1.88036
1.87782
1.87529
1.87277
1.87027
1.86778
1.86531
1.86286
1.86044
1.85804
1.85568
1.85334
1.85104
1.84878
1.84655
1.84437
1.84223
1.84013
1.83808
1.83608
1.83413
1.83224
1.8304
1.82862
1.82689
1.82523
1.82362
1.82208
1.82061
1.8192
1.81786
1.81658
1.81537
1.81424
1.81318
1.81218
1.81126
1.81042
1.80965
1.80895
1.80833
1.80779
1.80732
1.80693
1.80662
1.80638
1.80623
1.80615
1.80615
1.80622
1.80638
1.80661
1.80692
1.8073
1.80777
1.80831
1.80892
1.80962
1.81038
1.81123
1.81214
1.81313
1.81419
1.81533
1.81653
1.8178
1.81914
1.82055
1.82202
1.82356
1.82516
1.82682
1.82855
1.83033
1.83216
1.83406
1.836
1.838
1.84005
1.84214
1.84428
1.84646
1.84869
1.85095
1.85325
1.85558
1.85794
1.86034
1.86276
1.86521
1.86767
1.87016
1.87266
1.87518
1.87771
1.88025
1.88279
1.88534
1.88789
1.89043
1.89297
1.89551
1.89803
1.90054
1.90304
1.90551
1.90797
1.91041
1.91281
1.91519
1.91754
1.91986
1.92214
1.92438
1.92658
1.92874
1.93085
1.93292
1.93493
1.9369
1.93881
1.94067
1.94246
1.9442
1.94588
1.9475
1.94905
1.95054
1.95195
1.9533
1.95458
1.95579
1.95692
1.95798
1.95897
1.95988
1.96071
1.96147
1.96214
1.96274
1.96325
1.96369
1.96405
1.96432
1.96451
1.96462
1.96465
1.9646
1.96541
1.96546
1.96543
1.96532
1.96513
1.96485
1.96449
1.96405
1.96353
1.96293
1.96225
1.96149
1.96065
1.95973
1.95874
1.95767
1.95653
1.95531
1.95402
1.95266
1.95123
1.94973
1.94817
1.94654
1.94484
1.94309
1.94127
1.9394
1.93747
1.93549
1.93346
1.93137
1.92924
1.92706
1.92484
1.92258
1.92028
1.91794
1.91557
1.91317
1.91074
1.90828
1.9058
1.9033
1.90078
1.89825
1.8957
1.89314
1.89057
1.888
1.88543
1.88286
1.88029
1.87772
1.87517
1.87262
1.8701
1.86758
1.86509
1.86262
1.86017
1.85775
1.85536
1.853
1.85068
1.84839
1.84615
1.84394
1.84178
1.83966
1.83759
1.83557
1.8336
1.83169
1.82983
1.82803
1.82629
1.82461
1.82299
1.82143
1.81994
1.81852
1.81716
1.81587
1.81465
1.81351
1.81243
1.81143
1.8105
1.80964
1.80887
1.80816
1.80754
1.80699
1.80652
1.80612
1.80581
1.80557
1.80541
1.80533
1.80533
1.8054
1.80556
1.80579
1.80611
1.8065
1.80697
1.80751
1.80814
1.80884
1.80961
1.81046
1.81139
1.81239
1.81346
1.8146
1.81582
1.8171
1.81846
1.81988
1.82137
1.82292
1.82454
1.82622
1.82796
1.82976
1.83161
1.83352
1.83549
1.83751
1.83957
1.84169
1.84385
1.84606
1.8483
1.85059
1.85291
1.85526
1.85765
1.86007
1.86251
1.86498
1.86748
1.86999
1.87251
1.87506
1.87761
1.88017
1.88274
1.88531
1.88788
1.89045
1.89301
1.89557
1.89812
1.90065
1.90317
1.90567
1.90815
1.91061
1.91304
1.91544
1.91781
1.92014
1.92244
1.9247
1.92692
1.9291
1.93123
1.93332
1.93535
1.93733
1.93926
1.94113
1.94295
1.9447
1.94639
1.94802
1.94959
1.95109
1.95252
1.95388
1.95517
1.95638
1.95753
1.9586
1.95959
1.96051
1.96135
1.96211
1.96279
1.96339
1.96391
1.96435
1.96471
1.96498
1.96518
1.96529
1.96532
1.96527
1.96615
1.9662
1.96617
1.96606
1.96587
1.96559
1.96523
1.96478
1.96426
1.96365
1.96296
1.96219
1.96135
1.96042
1.95942
1.95834
1.95719
1.95596
1.95466
1.95328
1.95184
1.95033
1.94875
1.9471
1.9454
1.94362
1.94179
1.9399
1.93796
1.93596
1.9339
1.9318
1.92965
1.92745
1.9252
1.92292
1.9206
1.91824
1.91584
1.91342
1.91096
1.90848
1.90598
1.90345
1.90091
1.89835
1.89577
1.89319
1.89059
1.888
1.8854
1.8828
1.8802
1.87761
1.87503
1.87246
1.8699
1.86736
1.86485
1.86235
1.85987
1.85743
1.85501
1.85263
1.85028
1.84797
1.84569
1.84346
1.84128
1.83914
1.83704
1.835
1.83301
1.83108
1.8292
1.82738
1.82562
1.82392
1.82228
1.8207
1.8192
1.81776
1.81638
1.81508
1.81385
1.81269
1.8116
1.81059
1.80965
1.80878
1.80799
1.80728
1.80665
1.8061
1.80562
1.80522
1.8049
1.80466
1.8045
1.80442
1.80442
1.80449
1.80465
1.80489
1.8052
1.8056
1.80607
1.80663
1.80726
1.80796
1.80875
1.80961
1.81055
1.81156
1.81264
1.8138
1.81503
1.81633
1.8177
1.81914
1.82064
1.82221
1.82385
1.82555
1.8273
1.82912
1.831
1.83293
1.83492
1.83696
1.83905
1.84119
1.84338
1.8456
1.84787
1.85018
1.85253
1.85491
1.85733
1.85977
1.86224
1.86474
1.86726
1.86979
1.87235
1.87492
1.8775
1.88008
1.88268
1.88528
1.88787
1.89047
1.89306
1.89565
1.89822
1.90078
1.90332
1.90585
1.90835
1.91083
1.91328
1.91571
1.9181
1.92046
1.92278
1.92507
1.92731
1.92951
1.93166
1.93376
1.93582
1.93782
1.93976
1.94165
1.94348
1.94525
1.94696
1.94861
1.95019
1.9517
1.95314
1.95451
1.95581
1.95704
1.9582
1.95928
1.96028
1.9612
1.96205
1.96282
1.96351
1.96411
1.96464
1.96508
1.96544
1.96572
1.96592
1.96603
1.96606
1.96601
1.96697
1.96702
1.96699
1.96688
1.96668
1.9664
1.96603
1.96558
1.96505
1.96444
1.96374
1.96297
1.96211
1.96118
1.96017
1.95908
1.95791
1.95667
1.95536
1.95397
1.95251
1.95099
1.94939
1.94773
1.946
1.94421
1.94237
1.94046
1.93849
1.93647
1.93439
1.93227
1.93009
1.92787
1.9256
1.9233
1.92095
1.91856
1.91614
1.91369
1.91121
1.9087
1.90617
1.90362
1.90104
1.89846
1.89585
1.89324
1.89062
1.88799
1.88536
1.88273
1.88011
1.87749
1.87488
1.87228
1.86969
1.86712
1.86458
1.86205
1.85955
1.85707
1.85463
1.85222
1.84984
1.8475
1.8452
1.84294
1.84073
1.83856
1.83644
1.83438
1.83236
1.8304
1.8285
1.82666
1.82487
1.82315
1.8215
1.8199
1.81838
1.81692
1.81553
1.81421
1.81296
1.81178
1.81068
1.80966
1.80871
1.80783
1.80703
1.80631
1.80567
1.80511
1.80463
1.80422
1.8039
1.80366
1.80349
1.80341
1.80341
1.80349
1.80365
1.80389
1.80421
1.80461
1.80509
1.80565
1.80629
1.807
1.8078
1.80867
1.80962
1.81064
1.81174
1.81291
1.81416
1.81547
1.81686
1.81832
1.81984
1.82143
1.82309
1.8248
1.82658
1.82843
1.83033
1.83228
1.8343
1.83636
1.83848
1.84064
1.84285
1.84511
1.8474
1.84974
1.85212
1.85453
1.85697
1.85944
1.86194
1.86447
1.86702
1.86958
1.87217
1.87476
1.87737
1.87999
1.88262
1.88524
1.88787
1.89049
1.89311
1.89573
1.89833
1.90092
1.90349
1.90604
1.90857
1.91108
1.91356
1.91601
1.91843
1.92081
1.92316
1.92547
1.92773
1.92995
1.93213
1.93425
1.93633
1.93835
1.94031
1.94222
1.94407
1.94586
1.94759
1.94925
1.95084
1.95237
1.95383
1.95522
1.95653
1.95777
1.95894
1.96003
1.96104
1.96197
1.96283
1.9636
1.9643
1.96491
1.96544
1.96589
1.96626
1.96654
1.96673
1.96685
1.96687
1.96682
1.96786
1.96791
1.96788
1.96777
1.96757
1.96728
1.96691
1.96646
1.96592
1.9653
1.9646
1.96382
1.96295
1.96201
1.96099
1.95989
1.95871
1.95745
1.95613
1.95472
1.95325
1.95171
1.95009
1.94841
1.94667
1.94486
1.94299
1.94106
1.93907
1.93703
1.93493
1.93278
1.93058
1.92833
1.92604
1.92371
1.92133
1.91892
1.91647
1.91399
1.91148
1.90895
1.90638
1.9038
1.9012
1.89858
1.89594
1.8933
1.89065
1.88799
1.88533
1.88267
1.88001
1.87736
1.87471
1.87208
1.86946
1.86686
1.86428
1.86172
1.85919
1.85668
1.85421
1.85176
1.84936
1.84699
1.84466
1.84237
1.84013
1.83793
1.83579
1.83369
1.83165
1.82967
1.82774
1.82587
1.82406
1.82232
1.82064
1.81902
1.81748
1.816
1.81459
1.81325
1.81199
1.8108
1.80968
1.80864
1.80768
1.80679
1.80598
1.80525
1.8046
1.80403
1.80354
1.80313
1.8028
1.80256
1.80239
1.80231
1.80231
1.80239
1.80255
1.80279
1.80312
1.80352
1.80401
1.80458
1.80522
1.80595
1.80676
1.80764
1.8086
1.80964
1.81075
1.81194
1.8132
1.81454
1.81594
1.81742
1.81896
1.82057
1.82225
1.82399
1.8258
1.82766
1.82959
1.83157
1.83361
1.8357
1.83785
1.84004
1.84228
1.84456
1.84689
1.84926
1.85167
1.85411
1.85658
1.85908
1.86162
1.86417
1.86675
1.86935
1.87197
1.8746
1.87724
1.87989
1.88255
1.88521
1.88786
1.89052
1.89317
1.89582
1.89845
1.90107
1.90367
1.90625
1.90881
1.91135
1.91386
1.91634
1.91879
1.9212
1.92357
1.9259
1.9282
1.93044
1.93264
1.93479
1.93689
1.93893
1.94092
1.94285
1.94472
1.94653
1.94827
1.94995
1.95156
1.95311
1.95458
1.95598
1.95731
1.95856
1.95974
1.96084
1.96187
1.96281
1.96368
1.96446
1.96516
1.96578
1.96632
1.96677
1.96714
1.96742
1.96762
1.96774
1.96776
1.96771
1.96882
1.96887
1.96885
1.96873
1.96853
1.96824
1.96787
1.96741
1.96687
1.96624
1.96553
1.96474
1.96386
1.96291
1.96188
1.96076
1.95957
1.9583
1.95696
1.95554
1.95405
1.95249
1.95086
1.94916
1.94739
1.94556
1.94367
1.94172
1.9397
1.93763
1.93551
1.93334
1.93111
1.92884
1.92652
1.92415
1.92175
1.91931
1.91683
1.91432
1.91178
1.90921
1.90662
1.904
1.90136
1.89871
1.89604
1.89336
1.89068
1.88798
1.88529
1.88259
1.8799
1.87721
1.87453
1.87187
1.86921
1.86658
1.86396
1.86137
1.8588
1.85626
1.85375
1.85127
1.84883
1.84643
1.84407
1.84175
1.83947
1.83725
1.83507
1.83295
1.83088
1.82886
1.82691
1.82501
1.82318
1.82141
1.81971
1.81807
1.8165
1.815
1.81357
1.81221
1.81093
1.80972
1.80859
1.80753
1.80655
1.80565
1.80483
1.80409
1.80343
1.80285
1.80236
1.80194
1.80161
1.80136
1.80119
1.80111
1.80111
1.80119
1.80135
1.8016
1.80193
1.80234
1.80283
1.80341
1.80407
1.8048
1.80562
1.80652
1.80749
1.80855
1.80968
1.81088
1.81216
1.81351
1.81494
1.81644
1.81801
1.81964
1.82134
1.82311
1.82494
1.82683
1.82879
1.8308
1.83287
1.83499
1.83716
1.83939
1.84166
1.84397
1.84633
1.84873
1.85117
1.85365
1.85616
1.8587
1.86126
1.86385
1.86647
1.8691
1.87175
1.87442
1.8771
1.87978
1.88247
1.88517
1.88786
1.89055
1.89324
1.89592
1.89858
1.90123
1.90387
1.90648
1.90908
1.91164
1.91419
1.9167
1.91917
1.92161
1.92402
1.92638
1.9287
1.93097
1.9332
1.93537
1.93749
1.93956
1.94157
1.94353
1.94542
1.94725
1.94901
1.95071
1.95234
1.9539
1.95539
1.95681
1.95815
1.95942
1.96062
1.96173
1.96276
1.96372
1.96459
1.96539
1.9661
1.96672
1.96726
1.96772
1.9681
1.96839
1.96859
1.9687
1.96873
1.96868
1.96987
1.96992
1.96989
1.96977
1.96957
1.96928
1.9689
1.96843
1.96788
1.96725
1.96653
1.96573
1.96485
1.96388
1.96283
1.96171
1.9605
1.95922
1.95785
1.95642
1.95491
1.95333
1.95168
1.94996
1.94817
1.94632
1.9444
1.94242
1.94039
1.93829
1.93614
1.93394
1.93168
1.92938
1.92703
1.92464
1.9222
1.91973
1.91722
1.91467
1.9121
1.9095
1.90687
1.90421
1.90154
1.89885
1.89615
1.89343
1.89071
1.88798
1.88525
1.88251
1.87978
1.87706
1.87434
1.87164
1.86894
1.86627
1.86362
1.86099
1.85838
1.8558
1.85326
1.85074
1.84827
1.84583
1.84343
1.84107
1.83877
1.83651
1.8343
1.83214
1.83004
1.828
1.82601
1.82409
1.82223
1.82043
1.8187
1.81703
1.81544
1.81392
1.81246
1.81109
1.80978
1.80856
1.80741
1.80633
1.80534
1.80443
1.80359
1.80284
1.80217
1.80158
1.80108
1.80065
1.80032
1.80006
1.79989
1.79981
1.7998
1.79989
1.80005
1.8003
1.80064
1.80106
1.80156
1.80214
1.80281
1.80356
1.80439
1.8053
1.80629
1.80736
1.80851
1.80973
1.81103
1.81241
1.81386
1.81538
1.81697
1.81863
1.82036
1.82216
1.82401
1.82594
1.82792
1.82996
1.83206
1.83421
1.83642
1.83868
1.84098
1.84334
1.84573
1.84817
1.85064
1.85315
1.8557
1.85827
1.86088
1.86351
1.86616
1.86883
1.87152
1.87422
1.87694
1.87966
1.88239
1.88512
1.88786
1.89058
1.89331
1.89602
1.89872
1.90141
1.90408
1.90673
1.90936
1.91196
1.91454
1.91708
1.91959
1.92206
1.9245
1.92689
1.92924
1.93154
1.9338
1.936
1.93815
1.94024
1.94228
1.94426
1.94617
1.94802
1.94981
1.95153
1.95318
1.95476
1.95627
1.95771
1.95907
1.96035
1.96156
1.96269
1.96373
1.9647
1.96559
1.96639
1.96711
1.96774
1.96829
1.96875
1.96913
1.96942
1.96963
1.96975
1.96977
1.96972
1.97099
1.97104
1.97101
1.97089
1.97068
1.97039
1.97001
1.96954
1.96898
1.96834
1.96761
1.9668
1.9659
1.96492
1.96386
1.96272
1.9615
1.9602
1.95882
1.95736
1.95584
1.95423
1.95256
1.95082
1.94901
1.94713
1.94519
1.94318
1.94112
1.939
1.93682
1.93458
1.9323
1.92996
1.92758
1.92516
1.92269
1.92018
1.91763
1.91506
1.91244
1.9098
1.90714
1.90445
1.90174
1.89901
1.89626
1.89351
1.89074
1.88797
1.8852
1.88243
1.87966
1.87689
1.87413
1.87139
1.86866
1.86594
1.86325
1.86058
1.85793
1.85531
1.85272
1.85017
1.84766
1.84518
1.84274
1.84035
1.83801
1.83571
1.83347
1.83128
1.82914
1.82706
1.82504
1.82309
1.8212
1.81937
1.81761
1.81592
1.8143
1.81275
1.81127
1.80987
1.80855
1.8073
1.80613
1.80504
1.80403
1.8031
1.80225
1.80149
1.80081
1.80021
1.79969
1.79927
1.79892
1.79866
1.79849
1.7984
1.7984
1.79849
1.79865
1.79891
1.79925
1.79968
1.80019
1.80078
1.80146
1.80222
1.80307
1.80399
1.805
1.80609
1.80725
1.8085
1.80982
1.81122
1.81269
1.81424
1.81586
1.81754
1.8193
1.82113
1.82302
1.82497
1.82698
1.82906
1.83119
1.83338
1.83562
1.83792
1.84026
1.84265
1.84508
1.84756
1.85007
1.85262
1.85521
1.85782
1.86047
1.86314
1.86583
1.86854
1.87127
1.87402
1.87677
1.87954
1.88231
1.88508
1.88785
1.89062
1.89338
1.89614
1.89888
1.9016
1.90431
1.907
1.90967
1.91231
1.91492
1.9175
1.92004
1.92255
1.92502
1.92744
1.92982
1.93216
1.93444
1.93667
1.93885
1.94098
1.94304
1.94504
1.94698
1.94886
1.95067
1.95241
1.95409
1.95569
1.95722
1.95867
1.96005
1.96135
1.96257
1.96371
1.96477
1.96575
1.96665
1.96746
1.96819
1.96883
1.96939
1.96986
1.97024
1.97054
1.97075
1.97087
1.97089
1.97084
1.97218
1.97224
1.97221
1.97209
1.97188
1.97158
1.97119
1.97071
1.97015
1.9695
1.96876
1.96794
1.96703
1.96604
1.96496
1.9638
1.96257
1.96125
1.95985
1.95838
1.95683
1.9552
1.95351
1.95174
1.9499
1.948
1.94603
1.944
1.9419
1.93975
1.93754
1.93528
1.93296
1.93059
1.92817
1.92571
1.92321
1.92066
1.91808
1.91546
1.91281
1.91013
1.90742
1.90469
1.90194
1.89917
1.89639
1.89359
1.89078
1.88797
1.88515
1.88234
1.87952
1.87671
1.87391
1.87112
1.86834
1.86559
1.86285
1.86013
1.85744
1.85478
1.85215
1.84956
1.847
1.84448
1.84201
1.83958
1.83719
1.83486
1.83257
1.83035
1.82817
1.82606
1.82401
1.82202
1.82009
1.81823
1.81644
1.81472
1.81307
1.8115
1.81
1.80857
1.80722
1.80595
1.80476
1.80365
1.80262