/*--------------------------------*- C++ -*----------------------------------*\
| =========                 |                                                 |
| \\      /  F ield         | OpenFOAM: The Open Source CFD Toolbox           |
|  \\    /   O peration     | Version:  2412                                  |
|   \\  /    A nd           | Website:  www.openfoam.com                      |
|    \\/     M anipulation  |                                                 |
\*---------------------------------------------------------------------------*/
FoamFile
{
    version     2.0;
    format      ascii;
    arch        "LSB;label=32;scalar=64";
    class       surfaceScalarField;
    location    "1.2";
    object      phi;
}
// * * * * * * * * * * * * * * * * * * * * * * * * * * * * * * * * * * * * * //

dimensions      [0 3 -1 0 0 0 0];

oriented        oriented;

internalField   nonuniform List<scalar> 
79600
(
1.84321e-11
-1.83999e-11
5.0879e-11
-3.2447e-11
8.76643e-11
-3.67857e-11
1.25902e-10
-3.82379e-11
1.64687e-10
-3.87833e-11
2.03605e-10
-3.89174e-11
2.42435e-10
-3.88311e-11
2.81076e-10
-3.86422e-11
3.19477e-10
-3.84022e-11
3.57609e-10
-3.81329e-11
3.95448e-10
-3.784e-11
4.32972e-10
-3.75228e-11
4.70154e-10
-3.71807e-11
5.06968e-10
-3.68133e-11
5.43388e-10
-3.64199e-11
5.79387e-10
-3.59996e-11
6.14938e-10
-3.55518e-11
6.50013e-10
-3.50757e-11
6.84583e-10
-3.45708e-11
7.18621e-10
-3.4037e-11
7.52096e-10
-3.34741e-11
7.84979e-10
-3.28822e-11
8.1724e-10
-3.22613e-11
8.48852e-10
-3.16112e-11
8.79783e-10
-3.09318e-11
9.10006e-10
-3.02229e-11
9.39491e-10
-2.94848e-11
9.68209e-10
-2.87174e-11
9.9613e-10
-2.7921e-11
1.02323e-09
-2.70959e-11
1.04947e-09
-2.62421e-11
1.07483e-09
-2.53596e-11
1.09927e-09
-2.44488e-11
1.12278e-09
-2.35096e-11
1.14532e-09
-2.25426e-11
1.16687e-09
-2.15479e-11
1.1874e-09
-2.05262e-11
1.20687e-09
-1.94776e-11
1.22528e-09
-1.84026e-11
1.24258e-09
-1.73016e-11
1.25875e-09
-1.61752e-11
1.27377e-09
-1.50238e-11
1.28762e-09
-1.38482e-11
1.30027e-09
-1.26491e-11
1.3117e-09
-1.14272e-11
1.32188e-09
-1.01835e-11
1.3308e-09
-8.91888e-12
1.33843e-09
-7.63454e-12
1.34476e-09
-6.33152e-12
1.34977e-09
-5.01073e-12
1.35344e-09
-3.67283e-12
1.35576e-09
-2.31812e-12
1.35671e-09
-9.46641e-13
1.35626e-09
4.48506e-13
1.35441e-09
1.85239e-12
1.35115e-09
3.25959e-12
1.34648e-09
4.67114e-12
1.34039e-09
6.08645e-12
1.33288e-09
7.50551e-12
1.32396e-09
8.92743e-12
1.3136e-09
1.03508e-11
1.30183e-09
1.17738e-11
1.28864e-09
1.31946e-11
1.27403e-09
1.46113e-11
1.258e-09
1.6022e-11
1.24058e-09
1.74247e-11
1.22176e-09
1.88173e-11
1.20156e-09
2.0198e-11
1.18e-09
2.15647e-11
1.15708e-09
2.29153e-11
1.13284e-09
2.42478e-11
1.10728e-09
2.55602e-11
1.08043e-09
2.68504e-11
1.05231e-09
2.81165e-11
1.02295e-09
2.93563e-11
9.92385e-10
3.0568e-11
9.60635e-10
3.17494e-11
9.27735e-10
3.28987e-11
8.93721e-10
3.4014e-11
8.58627e-10
3.50934e-11
8.22492e-10
3.61349e-11
7.85355e-10
3.71365e-11
7.47258e-10
3.80964e-11
7.08245e-10
3.9013e-11
6.68359e-10
3.98848e-11
6.27649e-10
4.07101e-11
5.86162e-10
4.14876e-11
5.43947e-10
4.22155e-11
5.01055e-10
4.28926e-11
4.57537e-10
4.35175e-11
4.13448e-10
4.40893e-11
3.6884e-10
4.4607e-11
3.23771e-10
4.50696e-11
2.78294e-10
4.54762e-11
2.32468e-10
4.58261e-11
1.86349e-10
4.61188e-11
1.39995e-10
4.63535e-11
9.34653e-11
4.65297e-11
4.68179e-11
4.66466e-11
1.13315e-13
4.67035e-11
-4.6591e-11
4.67035e-11
-9.3238e-11
4.66467e-11
-1.39768e-10
4.65301e-11
-1.86122e-10
4.63544e-11
-2.32242e-10
4.61201e-11
-2.78069e-10
4.58279e-11
-3.23546e-10
4.54782e-11
-3.68618e-10
4.50718e-11
-4.13227e-10
4.46092e-11
-4.57318e-10
4.40914e-11
-5.00837e-10
4.35197e-11
-5.43732e-10
4.28952e-11
-5.85949e-10
4.22186e-11
-6.27439e-10
4.14912e-11
-6.68153e-10
4.07141e-11
-7.08041e-10
3.98891e-11
-7.47058e-10
3.90175e-11
-7.85158e-10
3.81009e-11
-8.22299e-10
3.71409e-11
-8.58438e-10
3.61394e-11
-8.93537e-10
3.50982e-11
-9.27556e-10
3.40194e-11
-9.6046e-10
3.29045e-11
-9.92215e-10
3.17553e-11
-1.02279e-09
3.05741e-11
-1.05215e-09
2.93628e-11
-1.08028e-09
2.81232e-11
-1.10713e-09
2.68573e-11
-1.1327e-09
2.5567e-11
-1.15696e-09
2.42547e-11
-1.17988e-09
2.29225e-11
-1.20145e-09
2.15722e-11
-1.22166e-09
2.02059e-11
-1.24048e-09
1.88259e-11
-1.25792e-09
1.7434e-11
-1.27395e-09
1.60322e-11
-1.28857e-09
1.46224e-11
-1.30178e-09
1.32066e-11
-1.31356e-09
1.17861e-11
-1.32393e-09
1.03634e-11
-1.33287e-09
8.94065e-12
-1.34038e-09
7.5182e-12
-1.34648e-09
6.09797e-12
-1.35116e-09
4.68182e-12
-1.35443e-09
3.26938e-12
-1.35629e-09
1.86128e-12
-1.35675e-09
4.57014e-13
-1.35581e-09
-9.38756e-13
-1.3535e-09
-2.30967e-12
-1.34984e-09
-3.66321e-12
-1.34484e-09
-5.00035e-12
-1.33852e-09
-6.31999e-12
-1.3309e-09
-7.62101e-12
-1.32199e-09
-8.90353e-12
-1.31183e-09
-1.01667e-11
-1.30042e-09
-1.14095e-11
-1.28779e-09
-1.26311e-11
-1.27396e-09
-1.38298e-11
-1.25895e-09
-1.50056e-11
-1.2428e-09
-1.61575e-11
-1.22551e-09
-1.72844e-11
-1.20712e-09
-1.83857e-11
-1.18766e-09
-1.94608e-11
-1.16715e-09
-2.05094e-11
-1.14562e-09
-2.15308e-11
-1.1231e-09
-2.25243e-11
-1.09961e-09
-2.34904e-11
-1.07518e-09
-2.44281e-11
-1.04984e-09
-2.5338e-11
-1.02362e-09
-2.62201e-11
-9.96546e-10
-2.70739e-11
-9.68647e-10
-2.78993e-11
-9.39953e-10
-2.86951e-11
-9.10493e-10
-2.94604e-11
-8.80298e-10
-3.01952e-11
-8.49398e-10
-3.08994e-11
-8.17823e-10
-3.15746e-11
-7.85602e-10
-3.22212e-11
-7.52763e-10
-3.28401e-11
-7.19333e-10
-3.34308e-11
-6.85341e-10
-3.39919e-11
-6.50818e-10
-3.45224e-11
-6.15795e-10
-3.50228e-11
-5.80303e-10
-3.54927e-11
-5.44369e-10
-3.59324e-11
-5.08027e-10
-3.63433e-11
-4.71302e-10
-3.67243e-11
-4.34226e-10
-3.7077e-11
-3.96825e-10
-3.74021e-11
-3.59127e-10
-3.7699e-11
-3.21161e-10
-3.79664e-11
-2.82956e-10
-3.82042e-11
-2.44548e-10
-3.84098e-11
-2.05963e-10
-3.85832e-11
-1.67245e-10
-3.87199e-11
-1.28448e-10
-3.87961e-11
-8.97461e-11
-3.86999e-11
-5.19195e-11
-3.78273e-11
-1.83675e-11
-3.35533e-11
-1.83672e-11
3.43406e-11
-5.27406e-11
9.19183e-11
-9.00244e-11
1.54559e-10
-9.94266e-11
2.18248e-10
-1.01928e-10
2.82281e-10
-1.02816e-10
3.46399e-10
-1.03035e-10
4.10428e-10
-1.02862e-10
4.74246e-10
-1.02461e-10
5.37764e-10
-1.01922e-10
6.00914e-10
-1.01284e-10
6.63639e-10
-1.00564e-10
7.25888e-10
-9.97696e-11
7.8761e-10
-9.89013e-11
8.48757e-10
-9.79601e-11
9.09282e-10
-9.69458e-11
9.69139e-10
-9.58574e-11
1.02828e-09
-9.46941e-11
1.08666e-09
-9.34552e-11
1.14423e-09
-9.21401e-11
1.20094e-09
-9.07487e-11
1.25675e-09
-8.92806e-11
1.3116e-09
-8.77356e-11
1.36546e-09
-8.61135e-11
1.41826e-09
-8.44138e-11
1.46996e-09
-8.26363e-11
1.52052e-09
-8.0781e-11
1.56988e-09
-7.88479e-11
1.618e-09
-7.68374e-11
1.66483e-09
-7.47496e-11
1.71032e-09
-7.25846e-11
1.75442e-09
-7.03427e-11
1.79708e-09
-6.8024e-11
1.83826e-09
-6.5629e-11
1.87791e-09
-6.31581e-11
1.91598e-09
-6.06121e-11
1.95242e-09
-5.79918e-11
1.98719e-09
-5.52978e-11
2.02024e-09
-5.25311e-11
2.05153e-09
-4.96926e-11
2.08101e-09
-4.67834e-11
2.10864e-09
-4.38047e-11
2.13437e-09
-4.07581e-11
2.15817e-09
-3.76451e-11
2.17999e-09
-3.44675e-11
2.19979e-09
-3.12273e-11
2.21753e-09
-2.79265e-11
2.23318e-09
-2.45678e-11
2.24669e-09
-2.11534e-11
2.25805e-09
-1.76861e-11
2.2672e-09
-1.41682e-11
2.27413e-09
-1.06025e-11
2.2788e-09
-6.99132e-12
2.28119e-09
-3.33682e-12
2.28128e-09
3.5952e-13
2.27904e-09
4.09288e-12
2.27445e-09
7.84889e-12
2.26749e-09
1.16268e-11
2.25816e-09
1.5424e-11
2.24642e-09
1.92375e-11
2.23229e-09
2.30634e-11
2.21574e-09
2.68973e-11
2.19678e-09
3.07343e-11
2.17541e-09
3.45696e-11
2.15162e-09
3.8398e-11
2.12543e-09
4.22143e-11
2.09684e-09
4.60133e-11
2.06587e-09
4.97896e-11
2.03253e-09
5.35376e-11
1.99684e-09
5.72517e-11
1.95883e-09
6.09261e-11
1.91852e-09
6.45551e-11
1.87595e-09
6.8133e-11
1.83115e-09
7.16542e-11
1.78415e-09
7.5113e-11
1.735e-09
7.85036e-11
1.68375e-09
8.18205e-11
1.63044e-09
8.5058e-11
1.57513e-09
8.82103e-11
1.51787e-09
9.12719e-11
1.45872e-09
9.42373e-11
1.39776e-09
9.71009e-11
1.33504e-09
9.98573e-11
1.27063e-09
1.02502e-10
1.20461e-09
1.05029e-10
1.13706e-09
1.07434e-10
1.06806e-09
1.09713e-10
9.9769e-10
1.1186e-10
9.26033e-10
1.13872e-10
8.5318e-10
1.15745e-10
7.79222e-10
1.17475e-10
7.04252e-10
1.19059e-10
6.28364e-10
1.20494e-10
5.51657e-10
1.21777e-10
4.74228e-10
1.22905e-10
3.96178e-10
1.23876e-10
3.17609e-10
1.24688e-10
2.38623e-10
1.25339e-10
1.59323e-10
1.25829e-10
7.98132e-11
1.26155e-10
1.99383e-13
1.26316e-10
-7.94141e-11
1.26317e-10
-1.58923e-10
1.26156e-10
-2.38223e-10
1.25831e-10
-3.1721e-10
1.25342e-10
-3.9578e-10
1.24691e-10
-4.73831e-10
1.2388e-10
-5.51262e-10
1.22909e-10
-6.27971e-10
1.21782e-10
-7.03861e-10
1.20499e-10
-7.78834e-10
1.19065e-10
-8.52795e-10
1.17482e-10
-9.2565e-10
1.15752e-10
-9.9731e-10
1.1388e-10
-1.06769e-09
1.11868e-10
-1.13669e-09
1.09721e-10
-1.20425e-09
1.07443e-10
-1.27027e-09
1.05039e-10
-1.33468e-09
1.02512e-10
-1.3974e-09
9.98675e-11
-1.45838e-09
9.71114e-11
-1.51753e-09
9.42485e-11
-1.57479e-09
9.1284e-11
-1.63011e-09
8.8223e-11
-1.68342e-09
8.50711e-11
-1.73468e-09
8.18341e-11
-1.78384e-09
7.85178e-11
-1.83085e-09
7.51274e-11
-1.87566e-09
7.16686e-11
-1.91824e-09
6.81475e-11
-1.95856e-09
6.457e-11
-1.99658e-09
6.09419e-11
-2.03227e-09
5.72684e-11
-2.06562e-09
5.35554e-11
-2.0966e-09
4.98088e-11
-2.1252e-09
4.60343e-11
-2.15141e-09
4.22366e-11
-2.17521e-09
3.84211e-11
-2.19659e-09
3.45941e-11
-2.21557e-09
3.07602e-11
-2.23212e-09
2.69238e-11
-2.24627e-09
2.30903e-11
-2.25802e-09
1.92641e-11
-2.26737e-09
1.54493e-11
-2.27434e-09
1.16504e-11
-2.27894e-09
7.87037e-12
-2.28119e-09
4.11207e-12
-2.28111e-09
3.7813e-13
-2.27873e-09
-3.31835e-12
-2.27407e-09
-6.97187e-12
-2.26715e-09
-1.0581e-11
-2.25801e-09
-1.41442e-11
-2.24667e-09
-1.76593e-11
-2.23317e-09
-2.11238e-11
-2.21753e-09
-2.45358e-11
-2.19981e-09
-2.78926e-11
-2.18003e-09
-3.11914e-11
-2.15823e-09
-3.44305e-11
-2.13445e-09
-3.76077e-11
-2.10873e-09
-4.07205e-11
-2.08112e-09
-4.37674e-11
-2.05166e-09
-4.67467e-11
-2.02039e-09
-4.96569e-11
-1.98735e-09
-5.24959e-11
-1.9526e-09
-5.52622e-11
-1.91618e-09
-5.79549e-11
-1.87813e-09
-6.05734e-11
-1.8385e-09
-6.31171e-11
-1.79734e-09
-6.55861e-11
-1.7547e-09
-6.79794e-11
-1.71062e-09
-7.02981e-11
-1.66515e-09
-7.25401e-11
-1.61835e-09
-7.4705e-11
-1.57025e-09
-7.67916e-11
-1.52091e-09
-7.8798e-11
-1.47038e-09
-8.07251e-11
-1.41871e-09
-8.25734e-11
-1.36594e-09
-8.43444e-11
-1.31212e-09
-8.60393e-11
-1.25731e-09
-8.76576e-11
-1.20154e-09
-8.91993e-11
-1.14486e-09
-9.06634e-11
-1.08734e-09
-9.20503e-11
-1.029e-09
-9.33586e-11
-9.69906e-10
-9.45885e-11
-9.10099e-10
-9.57389e-11
-8.4963e-10
-9.68129e-11
-7.88543e-10
-9.78104e-11
-7.26888e-10
-9.87339e-11
-6.6471e-10
-9.95835e-11
-6.02052e-10
-1.00357e-10
-5.38966e-10
-1.01055e-10
-4.75492e-10
-1.01675e-10
-4.11685e-10
-1.02219e-10
-3.47584e-10
-1.02684e-10
-2.83239e-10
-1.03066e-10
-2.18706e-10
-1.0333e-10
-1.54171e-10
-1.03236e-10
-9.06486e-11
-1.0135e-10
-3.31276e-11
-9.10763e-11
-5.1493e-11
3.82144e-11
-9.09555e-11
1.02481e-10
-1.54291e-10
1.72072e-10
-1.69016e-10
2.42252e-10
-1.72107e-10
3.1237e-10
-1.72934e-10
3.82374e-10
-1.7304e-10
4.52227e-10
-1.72716e-10
5.21857e-10
-1.72092e-10
5.91188e-10
-1.71253e-10
6.60149e-10
-1.70244e-10
7.28673e-10
-1.69088e-10
7.96701e-10
-1.67796e-10
8.64174e-10
-1.66374e-10
9.31038e-10
-1.64823e-10
9.97238e-10
-1.63146e-10
1.06272e-09
-1.61342e-10
1.12744e-09
-1.5941e-10
1.19133e-09
-1.5735e-10
1.25435e-09
-1.55161e-10
1.31645e-09
-1.52844e-10
1.37757e-09
-1.50398e-10
1.43765e-09
-1.47823e-10
1.49666e-09
-1.45117e-10
1.55452e-09
-1.42282e-10
1.6112e-09
-1.39315e-10
1.66664e-09
-1.36218e-10
1.72078e-09
-1.3299e-10
1.77357e-09
-1.29631e-10
1.82497e-09
-1.26142e-10
1.8749e-09
-1.22523e-10
1.92333e-09
-1.18774e-10
1.9702e-09
-1.14895e-10
2.01546e-09
-1.10887e-10
2.05905e-09
-1.06751e-10
2.10093e-09
-1.02488e-10
2.14103e-09
-9.80989e-11
2.17932e-09
-9.35849e-11
2.21574e-09
-8.89472e-11
2.25023e-09
-8.41876e-11
2.28275e-09
-7.93078e-11
2.31326e-09
-7.43101e-11
2.3417e-09
-6.91966e-11
2.36802e-09
-6.39701e-11
2.39219e-09
-5.86334e-11
2.41415e-09
-5.31896e-11
2.43387e-09
-4.76422e-11
2.45129e-09
-4.1995e-11
2.46639e-09
-3.62522e-11
2.47912e-09
-3.04177e-11
2.48945e-09
-2.44961e-11
2.49733e-09
-1.84921e-11
2.50275e-09
-1.24108e-11
2.50568e-09
-6.25811e-12
2.50608e-09
-4.1254e-14
2.50393e-09
6.23558e-12
2.49922e-09
1.25645e-11
2.4919e-09
1.89394e-11
2.48197e-09
2.53535e-11
2.46941e-09
3.17996e-11
2.4542e-09
3.82703e-11
2.43635e-09
4.47577e-11
2.41583e-09
5.12536e-11
2.39265e-09
5.77498e-11
2.36681e-09
6.42377e-11
2.33831e-09
7.07084e-11
2.30717e-09
7.71532e-11
2.2734e-09
8.35625e-11
2.23701e-09
8.99271e-11
2.19803e-09
9.62371e-11
2.15647e-09
1.02483e-10
2.11237e-09
1.08655e-10
2.06576e-09
1.14743e-10
2.01668e-09
1.20737e-10
1.96516e-09
1.26628e-10
1.91126e-09
1.32406e-10
1.85502e-09
1.3806e-10
1.79649e-09
1.43581e-10
1.73574e-09
1.4896e-10
1.67283e-09
1.54185e-10
1.60782e-09
1.59248e-10
1.54078e-09
1.64139e-10
1.47179e-09
1.68849e-10
1.40092e-09
1.73369e-10
1.32826e-09
1.77691e-10
1.25388e-09
1.81805e-10
1.17789e-09
1.85705e-10
1.10037e-09
1.89381e-10
1.02142e-09
1.92826e-10
9.41126e-10
1.96034e-10
8.59602e-10
1.98999e-10
7.76947e-10
2.01714e-10
6.93266e-10
2.04174e-10
6.0867e-10
2.06374e-10
5.23266e-10
2.08308e-10
4.37168e-10
2.09974e-10
3.50489e-10
2.11367e-10
2.63342e-10
2.12485e-10
1.75845e-10
2.13325e-10
8.81125e-11
2.13886e-10
2.62012e-13
2.14166e-10
-8.75883e-11
2.14167e-10
-1.7532e-10
2.13888e-10
-2.62818e-10
2.13329e-10
-3.49965e-10
2.12489e-10
-4.36645e-10
2.11372e-10
-5.22745e-10
2.0998e-10
-6.0815e-10
2.08315e-10
-6.9275e-10
2.06381e-10
-7.76432e-10
2.04182e-10
-8.5909e-10
2.01723e-10
-9.40616e-10
1.9901e-10
-1.02091e-09
1.96046e-10
-1.09987e-09
1.92838e-10
-1.17739e-09
1.89393e-10
-1.25339e-09
1.85718e-10
-1.32776e-09
1.81819e-10
-1.40043e-09
1.77705e-10
-1.4713e-09
1.73384e-10
-1.5403e-09
1.68865e-10
-1.60734e-09
1.64155e-10
-1.67236e-09
1.59265e-10
-1.73528e-09
1.54203e-10
-1.79603e-09
1.48978e-10
-1.85456e-09
1.436e-10
-1.91081e-09
1.3808e-10
-1.96472e-09
1.32426e-10
-2.01624e-09
1.26649e-10
-2.06533e-09
1.20758e-10
-2.11195e-09
1.14764e-10
-2.15606e-09
1.08677e-10
-2.19762e-09
1.02506e-10
-2.23661e-09
9.62615e-11
-2.27301e-09
8.99527e-11
-2.30679e-09
8.35898e-11
-2.33794e-09
7.71824e-11
-2.36644e-09
7.07392e-11
-2.39229e-09
6.42694e-11
-2.41548e-09
5.77827e-11
-2.43601e-09
5.12881e-11
-2.45387e-09
4.47928e-11
-2.46909e-09
3.83054e-11
-2.48166e-09
3.18346e-11
-2.4916e-09
2.53877e-11
-2.49892e-09
1.89722e-11
-2.50364e-09
1.25953e-11
-2.5058e-09
6.26427e-12
-2.5054e-09
-1.33809e-14
-2.50249e-09
-6.22939e-12
-2.49708e-09
-1.2381e-11
-2.48921e-09
-1.84603e-11
-2.47889e-09
-2.44614e-11
-2.46617e-09
-3.03801e-11
-2.45108e-09
-3.62119e-11
-2.43366e-09
-4.19525e-11
-2.41396e-09
-4.75975e-11
-2.39201e-09
-5.31427e-11
-2.36785e-09
-5.85851e-11
-2.34153e-09
-6.39215e-11
-2.31311e-09
-6.91477e-11
-2.28261e-09
-7.42613e-11
-2.2501e-09
-7.92595e-11
-2.21561e-09
-8.41399e-11
-2.17921e-09
-8.88997e-11
-2.14093e-09
-9.35365e-11
-2.10084e-09
-9.80491e-11
-2.05897e-09
-1.02437e-10
-2.01539e-09
-1.06698e-10
-1.97014e-09
-1.10832e-10
-1.92328e-09
-1.14839e-10
-1.87487e-09
-1.18717e-10
-1.82494e-09
-1.22466e-10
-1.77356e-09
-1.26084e-10
-1.72078e-09
-1.29572e-10
-1.66665e-09
-1.32926e-10
-1.61122e-09
-1.36149e-10
-1.55456e-09
-1.3924e-10
-1.4967e-09
-1.42201e-10
-1.43771e-09
-1.45033e-10
-1.37763e-09
-1.47734e-10
-1.31652e-09
-1.50306e-10
-1.25444e-09
-1.52749e-10
-1.19143e-09
-1.55063e-10
-1.12754e-09
-1.57245e-10
-1.06283e-09
-1.59298e-10
-9.97349e-10
-1.61221e-10
-9.31147e-10
-1.63014e-10
-8.64276e-10
-1.64681e-10
-7.9679e-10
-1.66223e-10
-7.28736e-10
-1.67639e-10
-6.60165e-10
-1.68928e-10
-5.91129e-10
-1.70092e-10
-5.21675e-10
-1.71128e-10
-4.51857e-10
-1.72039e-10
-3.8172e-10
-1.72821e-10
-3.11314e-10
-1.73471e-10
-2.40704e-10
-1.73938e-10
-1.70092e-10
-1.73849e-10
-1.00533e-10
-1.7091e-10
-3.72077e-11
-1.54401e-10
-8.87008e-11
3.8503e-11
-1.29459e-10
1.03801e-10
-2.19591e-10
1.75051e-10
-2.40265e-10
2.46907e-10
-2.43961e-10
3.1852e-10
-2.44545e-10
3.89867e-10
-2.44387e-10
4.60966e-10
-2.43815e-10
5.31792e-10
-2.42918e-10
6.02294e-10
-2.41756e-10
6.72416e-10
-2.40365e-10
7.42097e-10
-2.38767e-10
8.11277e-10
-2.36975e-10
8.799e-10
-2.34996e-10
9.47909e-10
-2.32832e-10
1.01525e-09
-2.30487e-10
1.08187e-09
-2.27961e-10
1.14771e-09
-2.25253e-10
1.21272e-09
-2.22364e-10
1.27686e-09
-2.19293e-10
1.34005e-09
-2.1604e-10
1.40226e-09
-2.12605e-10
1.46342e-09
-2.08986e-10
1.52349e-09
-2.05184e-10
1.5824e-09
-2.01198e-10
1.64011e-09
-1.97028e-10
1.69657e-09
-1.92673e-10
1.75171e-09
-1.88133e-10
1.80549e-09
-1.83409e-10
1.85785e-09
-1.785e-10
1.90873e-09
-1.73406e-10
1.95808e-09
-1.68129e-10
2.00586e-09
-1.62668e-10
2.05199e-09
-1.57025e-10
2.09644e-09
-1.512e-10
2.13915e-09
-1.45195e-10
2.18006e-09
-1.3901e-10
2.21912e-09
-1.32649e-10
2.25629e-09
-1.26112e-10
2.2915e-09
-1.19402e-10
2.32471e-09
-1.12521e-10
2.35587e-09
-1.05472e-10
2.38494e-09
-9.82592e-11
2.41185e-09
-9.08853e-11
2.43657e-09
-8.33543e-11
2.45906e-09
-7.56708e-11
2.47925e-09
-6.78394e-11
2.49712e-09
-5.98654e-11
2.51262e-09
-5.17543e-11
2.52572e-09
-4.3512e-11
2.53636e-09
-3.51447e-11
2.54453e-09
-2.66594e-11
2.55018e-09
-1.80635e-11
2.55329e-09
-9.36572e-12
2.55383e-09
-5.75627e-13
2.55176e-09
8.30002e-12
2.54707e-09
1.72539e-11
2.53973e-09
2.62768e-11
2.52973e-09
3.53587e-11
2.51704e-09
4.44888e-11
2.50165e-09
5.36563e-11
2.48356e-09
6.28499e-11
2.46276e-09
7.20582e-11
2.43924e-09
8.12693e-11
2.413e-09
9.04711e-11
2.38406e-09
9.96512e-11
2.35242e-09
1.08797e-10
2.31809e-09
1.17895e-10
2.28108e-09
1.26931e-10
2.24143e-09
1.35893e-10
2.19914e-09
1.44765e-10
2.15426e-09
1.53535e-10
2.10682e-09
1.62189e-10
2.05684e-09
1.70712e-10
2.00438e-09
1.79089e-10
1.94948e-09
1.87308e-10
1.89219e-09
1.95352e-10
1.83256e-09
2.03209e-10
1.77066e-09
2.10863e-10
1.70654e-09
2.18302e-10
1.64027e-09
2.25512e-10
1.57193e-09
2.32478e-10
1.5016e-09
2.39187e-10
1.42934e-09
2.45628e-10
1.35524e-09
2.51786e-10
1.27939e-09
2.57651e-10
1.20189e-09
2.63209e-10
1.12282e-09
2.68451e-10
1.04228e-09
2.73365e-10
9.6037e-10
2.77941e-10
8.77198e-10
2.82171e-10
7.92867e-10
2.86045e-10
7.07486e-10
2.89556e-10
6.21166e-10
2.92695e-10
5.34019e-10
2.95456e-10
4.4616e-10
2.97833e-10
3.57705e-10
2.99822e-10
2.68771e-10
3.01418e-10
1.79478e-10
3.02618e-10
8.9944e-11
3.03419e-10
2.90098e-13
3.0382e-10
-8.93638e-11
3.03821e-10
-1.78898e-10
3.03422e-10
-2.68191e-10
3.02622e-10
-3.57125e-10
3.01423e-10
-4.45582e-10
2.99828e-10
-5.33442e-10
2.9784e-10
-6.20591e-10
2.95463e-10
-7.06914e-10
2.92703e-10
-7.92297e-10
2.89565e-10
-8.7663e-10
2.86057e-10
-9.59804e-10
2.82184e-10
-1.04171e-09
2.77956e-10
-1.12226e-09
2.7338e-10
-1.20133e-09
2.68467e-10
-1.27884e-09
2.63226e-10
-1.35469e-09
2.57669e-10
-1.42879e-09
2.51806e-10
-1.50105e-09
2.45648e-10
-1.5714e-09
2.39208e-10
-1.63974e-09
2.325e-10
-1.70601e-09
2.25534e-10
-1.77013e-09
2.18325e-10
-1.83204e-09
2.10887e-10
-1.89167e-09
2.03233e-10
-1.94897e-09
1.95377e-10
-2.00388e-09
1.87333e-10
-2.05635e-09
1.79116e-10
-2.10633e-09
1.70739e-10
-2.15378e-09
1.62217e-10
-2.19867e-09
1.53565e-10
-2.24096e-09
1.44795e-10
-2.28062e-09
1.35924e-10
-2.31763e-09
1.26963e-10
-2.35197e-09
1.17928e-10
-2.38362e-09
1.08832e-10
-2.41257e-09
9.96883e-11
-2.43881e-09
9.05094e-11
-2.46233e-09
8.13086e-11
-2.48314e-09
7.20987e-11
-2.50124e-09
6.2891e-11
-2.51663e-09
5.36973e-11
-2.52933e-09
4.453e-11
-2.53934e-09
3.53997e-11
-2.54669e-09
2.63169e-11
-2.55138e-09
1.72927e-11
-2.55346e-09
8.33766e-12
-2.55293e-09
-5.38563e-13
-2.54983e-09
-9.32805e-12
-2.54419e-09
-1.80247e-11
-2.53603e-09
-2.66188e-11
-2.52539e-09
-3.51014e-11
-2.5123e-09
-4.34661e-11
-2.49681e-09
-5.17061e-11
-2.47895e-09
-5.98151e-11
-2.45876e-09
-6.77872e-11
-2.43628e-09
-7.56168e-11
-2.41157e-09
-8.32992e-11
-2.38466e-09
-9.08297e-11
-2.3556e-09
-9.82033e-11
-2.32445e-09
-1.05416e-10
-2.29124e-09
-1.12465e-10
-2.25603e-09
-1.19346e-10
-2.21888e-09
-1.26056e-10
-2.17982e-09
-1.32592e-10
-2.13891e-09
-1.38952e-10
-2.09621e-09
-1.45135e-10
-2.05177e-09
-1.51139e-10
-2.00564e-09
-1.56964e-10
-1.95787e-09
-1.62606e-10
-1.90852e-09
-1.68066e-10
-1.85765e-09
-1.73343e-10
-1.8053e-09
-1.78435e-10
-1.75152e-09
-1.83342e-10
-1.69639e-09
-1.88064e-10
-1.63993e-09
-1.926e-10
-1.58222e-09
-1.96951e-10
-1.52331e-09
-2.01118e-10
-1.46324e-09
-2.051e-10
-1.40207e-09
-2.08899e-10
-1.33986e-09
-2.12516e-10
-1.27666e-09
-2.15949e-10
-1.21253e-09
-2.19201e-10
-1.1475e-09
-2.22269e-10
-1.08165e-09
-2.25155e-10
-1.01501e-09
-2.27858e-10
-9.47639e-10
-2.30382e-10
-8.79594e-10
-2.32728e-10
-8.10924e-10
-2.34895e-10
-7.41679e-10
-2.36884e-10
-6.71912e-10
-2.38696e-10
-6.01673e-10
-2.40332e-10
-5.31013e-10
-2.41789e-10
-4.5998e-10
-2.43072e-10
-3.88626e-10
-2.44175e-10
-3.16999e-10
-2.45095e-10
-2.45172e-10
-2.45766e-10
-1.73345e-10
-2.45673e-10
-1.02587e-10
-2.41668e-10
-3.81232e-11
-2.18863e-10
-1.26826e-10
3.8365e-11
-1.67824e-10
1.0358e-10
-2.84806e-10
1.7517e-10
-3.11856e-10
2.47588e-10
-3.16378e-10
3.19774e-10
-3.1673e-10
3.91634e-10
-3.16246e-10
4.63183e-10
-3.15363e-10
5.34412e-10
-3.14148e-10
6.05288e-10
-3.12632e-10
6.75765e-10
-3.10842e-10
7.4579e-10
-3.08792e-10
8.15309e-10
-3.06493e-10
8.84267e-10
-3.03953e-10
9.52609e-10
-3.01175e-10
1.02028e-09
-2.98161e-10
1.08723e-09
-2.94911e-10
1.15341e-09
-2.91427e-10
1.21875e-09
-2.87708e-10
1.28321e-09
-2.83754e-10
1.34673e-09
-2.79564e-10
1.40927e-09
-2.75139e-10
1.47076e-09
-2.70476e-10
1.53115e-09
-2.65577e-10
1.59039e-09
-2.60439e-10
1.64842e-09
-2.55063e-10
1.7052e-09
-2.49448e-10
1.76066e-09
-2.43594e-10
1.81475e-09
-2.37501e-10
1.86742e-09
-2.3117e-10
1.91861e-09
-2.24599e-10
1.96827e-09
-2.1779e-10
2.01635e-09
-2.10744e-10
2.06278e-09
-2.03461e-10
2.10753e-09
-1.95942e-10
2.15052e-09
-1.8819e-10
2.19172e-09
-1.80206e-10
2.23106e-09
-1.71991e-10
2.26849e-09
-1.63549e-10
2.30397e-09
-1.54881e-10
2.33745e-09
-1.45992e-10
2.36886e-09
-1.36886e-10
2.39816e-09
-1.27565e-10
2.42531e-09
-1.18035e-10
2.45026e-09
-1.08301e-10
2.47296e-09
-9.8368e-11
2.49336e-09
-8.82426e-11
2.51143e-09
-7.79311e-11
2.52711e-09
-6.74405e-11
2.54038e-09
-5.67785e-11
2.55119e-09
-4.59532e-11
2.5595e-09
-3.49734e-11
2.56529e-09
-2.3849e-11
2.56851e-09
-1.25903e-11
2.56914e-09
-1.20888e-12
2.56716e-09
1.02859e-11
2.56253e-09
2.18836e-11
2.55523e-09
3.35725e-11
2.54525e-09
4.53396e-11
2.53257e-09
5.71712e-11
2.51717e-09
6.90533e-11
2.49905e-09
8.09714e-11
2.4782e-09
9.29107e-11
2.45461e-09
1.04856e-10
2.42829e-09
1.16791e-10
2.39924e-09
1.28701e-10
2.36747e-09
1.40567e-10
2.33299e-09
1.52373e-10
2.29582e-09
1.64102e-10
2.25598e-09
1.75736e-10
2.21349e-09
1.87256e-10
2.16838e-09
1.98646e-10
2.12068e-09
2.09885e-10
2.07044e-09
2.20957e-10
2.01768e-09
2.31842e-10
1.96247e-09
2.42521e-10
1.90485e-09
2.52976e-10
1.84487e-09
2.63188e-10
1.78259e-09
2.73139e-10
1.71808e-09
2.82811e-10
1.65141e-09
2.92186e-10
1.58264e-09
3.01245e-10
1.51185e-09
3.09973e-10
1.43913e-09
3.18351e-10
1.36455e-09
3.26363e-10
1.2882e-09
3.33993e-10
1.21019e-09
3.41227e-10
1.13059e-09
3.48049e-10
1.04951e-09
3.54445e-10
9.67045e-10
3.60403e-10
8.83306e-10
3.6591e-10
7.98398e-10
3.70954e-10
7.12429e-10
3.75524e-10
6.25512e-10
3.79612e-10
5.3776e-10
3.83207e-10
4.4929e-10
3.86304e-10
3.60217e-10
3.88894e-10
2.70661e-10
3.90973e-10
1.80743e-10
3.92536e-10
9.05813e-11
3.9358e-10
2.98873e-13
3.94103e-10
-8.99838e-11
3.94103e-10
-1.80146e-10
3.93582e-10
-2.70065e-10
3.9254e-10
-3.59621e-10
3.90978e-10
-4.48695e-10
3.88901e-10
-5.37167e-10
3.86312e-10
-6.24921e-10
3.83217e-10
-7.11841e-10
3.79622e-10
-7.97811e-10
3.75536e-10
-8.82721e-10
3.70967e-10
-9.66462e-10
3.65925e-10
-1.04893e-09
3.6042e-10
-1.13001e-09
3.54464e-10
-1.20961e-09
3.48069e-10
-1.28763e-09
3.41248e-10
-1.36398e-09
3.34016e-10
-1.43856e-09
3.26387e-10
-1.51129e-09
3.18376e-10
-1.58208e-09
3.09998e-10
-1.65085e-09
3.01272e-10
-1.71753e-09
2.92213e-10
-1.78205e-09
2.82839e-10
-1.84433e-09
2.73168e-10
-1.90431e-09
2.63217e-10
-1.96194e-09
2.53006e-10
-2.01716e-09
2.42552e-10
-2.06992e-09
2.31873e-10
-2.12017e-09
2.2099e-10
-2.16787e-09
2.09919e-10
-2.21299e-09
1.98681e-10
-2.25549e-09
1.87292e-10
-2.29534e-09
1.75773e-10
-2.33252e-09
1.64141e-10
-2.367e-09
1.52413e-10
-2.39878e-09
1.40608e-10
-2.42783e-09
1.28743e-10
-2.45416e-09
1.16836e-10
-2.47775e-09
1.04901e-10
-2.49861e-09
9.29569e-11
-2.51674e-09
8.10181e-11
-2.53214e-09
6.91002e-11
-2.54483e-09
5.72184e-11
-2.55481e-09
4.53869e-11
-2.56212e-09
3.36193e-11
-2.56675e-09
2.193e-11
-2.56875e-09
1.03321e-11
-2.56812e-09
-1.16297e-12
-2.56491e-09
-1.25444e-11
-2.55913e-09
-2.3802e-11
-2.55082e-09
-3.49247e-11
-2.54002e-09
-4.59022e-11
-2.52676e-09
-5.67254e-11
-2.51109e-09
-6.73856e-11
-2.49303e-09
-7.78743e-11
-2.47263e-09
-8.81842e-11
-2.44994e-09
-9.83086e-11
-2.42499e-09
-1.0824e-10
-2.39785e-09
-1.17974e-10
-2.36855e-09
-1.27503e-10
-2.33714e-09
-1.36824e-10
-2.30368e-09
-1.4593e-10
-2.2682e-09
-1.54819e-10
-2.23077e-09
-1.63486e-10
-2.19144e-09
-1.71928e-10
-2.15025e-09
-1.80142e-10
-2.10726e-09
-1.88125e-10
-2.06252e-09
-1.95877e-10
-2.01609e-09
-2.03395e-10
-1.96802e-09
-2.10678e-10
-1.91836e-09
-2.17723e-10
-1.86717e-09
-2.24531e-10
-1.8145e-09
-2.31101e-10
-1.76041e-09
-2.37432e-10
-1.70496e-09
-2.43523e-10
-1.64818e-09
-2.49375e-10
-1.59015e-09
-2.54988e-10
-1.5309e-09
-2.60361e-10
-1.47051e-09
-2.65496e-10
-1.40901e-09
-2.70394e-10
-1.34647e-09
-2.75056e-10
-1.28294e-09
-2.79483e-10
-1.21847e-09
-2.83673e-10
-1.15311e-09
-2.87628e-10
-1.08691e-09
-2.91347e-10
-1.01994e-09
-2.94833e-10
-9.52234e-10
-2.98087e-10
-8.83852e-10
-3.01111e-10
-8.14843e-10
-3.03904e-10
-7.4526e-10
-3.06468e-10
-6.75153e-10
-3.08803e-10
-6.04574e-10
-3.10911e-10
-5.33575e-10
-3.12791e-10
-4.622e-10
-3.14443e-10
-3.90505e-10
-3.15869e-10
-3.1854e-10
-3.1706e-10
-2.46376e-10
-3.17932e-10
-1.74218e-10
-3.17831e-10
-1.0314e-10
-3.12747e-10
-3.83861e-11
-2.83614e-10
-1.65211e-10
3.83428e-11
-2.06166e-10
1.03501e-10
-3.49966e-10
1.75215e-10
-3.8357e-10
2.47919e-10
-3.89081e-10
3.20464e-10
-3.89273e-10
3.92686e-10
-3.88468e-10
4.64576e-10
-3.87254e-10
5.36121e-10
-3.85694e-10
6.07292e-10
-3.83804e-10
6.78048e-10
-3.81598e-10
7.48342e-10
-3.79085e-10
8.18123e-10
-3.76274e-10
8.87338e-10
-3.73168e-10
9.55936e-10
-3.69773e-10
1.02386e-09
-3.66088e-10
1.09107e-09
-3.62115e-10
1.1575e-09
-3.57855e-10
1.22309e-09
-3.53306e-10
1.28781e-09
-3.48469e-10
1.35159e-09
-3.43343e-10
1.41438e-09
-3.37928e-10
1.47612e-09
-3.32222e-10
1.53677e-09
-3.26225e-10
1.59626e-09
-3.19936e-10
1.65456e-09
-3.13354e-10
1.71159e-09
-3.0648e-10
1.7673e-09
-2.99311e-10
1.82165e-09
-2.9185e-10
1.87458e-09
-2.84095e-10
1.92603e-09
-2.76046e-10
1.97594e-09
-2.67705e-10
2.02427e-09
-2.59072e-10
2.07095e-09
-2.50148e-10
2.11595e-09
-2.40934e-10
2.15919e-09
-2.31433e-10
2.20063e-09
-2.21645e-10
2.24021e-09
-2.11574e-10
2.27788e-09
-2.01223e-10
2.3136e-09
-1.90595e-10
2.3473e-09
-1.79694e-10
2.37894e-09
-1.68525e-10
2.40847e-09
-1.57091e-10
2.43583e-09
-1.454e-10
2.46099e-09
-1.33456e-10
2.48389e-09
-1.21267e-10
2.50449e-09
-1.08841e-10
2.52274e-09
-9.61838e-11
2.5386e-09
-8.33054e-11
2.55204e-09
-7.02148e-11
2.56301e-09
-5.69219e-11
2.57147e-09
-4.34377e-11
2.57739e-09
-2.97737e-11
2.58075e-09
-1.59423e-11
2.58149e-09
-1.9568e-12
2.57961e-09
1.21706e-11
2.57506e-09
2.64261e-11
2.56784e-09
4.07949e-11
2.55792e-09
5.52616e-11
2.54528e-09
6.98094e-11
2.52991e-09
8.44214e-11
2.5118e-09
9.90799e-11
2.49095e-09
1.13767e-10
2.46734e-09
1.28463e-10
2.44098e-09
1.43149e-10
2.41188e-09
1.57805e-10
2.38004e-09
1.7241e-10
2.34547e-09
1.86943e-10
2.30819e-09
2.01382e-10
2.26822e-09
2.15707e-10
2.22558e-09
2.29894e-10
2.1803e-09
2.43922e-10
2.13242e-09
2.57767e-10
2.08197e-09
2.71407e-10
2.02899e-09
2.84818e-10
1.97354e-09
2.97977e-10
1.91565e-09
3.10861e-10
1.85539e-09
3.23448e-10
1.79281e-09
3.35714e-10
1.72798e-09
3.47638e-10
1.66097e-09
3.59197e-10
1.59185e-09
3.70368e-10
1.52069e-09
3.8113e-10
1.44758e-09
3.91462e-10
1.37259e-09
4.01345e-10
1.29583e-09
4.10757e-10
1.21737e-09
4.19681e-10
1.13733e-09
4.28098e-10
1.05578e-09
4.3599e-10
9.72843e-10
4.43342e-10
8.88616e-10
4.50137e-10
8.03209e-10
4.56361e-10
7.16731e-10
4.62001e-10
6.29296e-10
4.67046e-10
5.41019e-10
4.71484e-10
4.52016e-10
4.75306e-10
3.62405e-10
4.78504e-10
2.72307e-10
4.81071e-10
1.81843e-10
4.83e-10
9.11332e-11
4.84289e-10
3.01321e-13
4.84933e-10
-9.05308e-11
4.84934e-10
-1.81241e-10
4.84291e-10
-2.71706e-10
4.83004e-10
-3.61805e-10
4.81076e-10
-4.51416e-10
4.78512e-10
-5.40421e-10
4.75316e-10
-6.28701e-10
4.71495e-10
-7.16138e-10
4.67058e-10
-8.02617e-10
4.62015e-10
-8.88026e-10
4.56377e-10
-9.72255e-10
4.50154e-10
-1.0552e-09
4.43361e-10
-1.13674e-09
4.36011e-10
-1.2168e-09
4.28121e-10
-1.29525e-09
4.19706e-10
-1.37202e-09
4.10784e-10
-1.44701e-09
4.01373e-10
-1.52013e-09
3.91492e-10
-1.59129e-09
3.81161e-10
-1.66042e-09
3.70399e-10
-1.72743e-09
3.59229e-10
-1.79227e-09
3.47672e-10
-1.85485e-09
3.35749e-10
-1.91511e-09
3.23483e-10
-1.97301e-09
3.10897e-10
-2.02847e-09
2.98013e-10
-2.08145e-09
2.84855e-10
-2.13191e-09
2.71445e-10
-2.17979e-09
2.57807e-10
-2.22508e-09
2.43963e-10
-2.26772e-09
2.29936e-10
-2.3077e-09
2.1575e-10
-2.34499e-09
2.01427e-10
-2.37956e-09
1.86989e-10
-2.41141e-09
1.72457e-10
-2.44052e-09
1.57853e-10
-2.46688e-09
1.43199e-10
-2.4905e-09
1.28514e-10
-2.51136e-09
1.13819e-10
-2.52947e-09
9.91328e-11
-2.54485e-09
8.44749e-11
-2.55749e-09
6.98632e-11
-2.56742e-09
5.53155e-11
-2.57465e-09
4.08488e-11
-2.5792e-09
2.64798e-11
-2.58109e-09
1.22247e-11
-2.58035e-09
-1.90256e-12
-2.57701e-09
-1.58882e-11
-2.57109e-09
-2.97188e-11
-2.56264e-09
-4.33814e-11
-2.55167e-09
-5.68641e-11
-2.53825e-09
-7.01553e-11
-2.52239e-09
-8.32445e-11
-2.50414e-09
-9.61213e-11
-2.48355e-09
-1.08777e-10
-2.46065e-09
-1.21203e-10
-2.4355e-09
-1.33391e-10
-2.40814e-09
-1.45333e-10
-2.37862e-09
-1.57024e-10
-2.34699e-09
-1.68458e-10
-2.31329e-09
-1.79627e-10
-2.27758e-09
-1.90528e-10
-2.23992e-09
-2.01156e-10
-2.20034e-09
-2.11506e-10
-2.1589e-09
-2.21576e-10
-2.11567e-09
-2.31363e-10
-2.07068e-09
-2.40865e-10
-2.024e-09
-2.50079e-10
-1.97567e-09
-2.59003e-10
-1.92576e-09
-2.67635e-10
-1.87432e-09
-2.75976e-10
-1.82139e-09
-2.84024e-10
-1.76705e-09
-2.91779e-10
-1.71133e-09