/*--------------------------------*- C++ -*----------------------------------*\
| =========                 |                                                 |
| \\      /  F ield         | OpenFOAM: The Open Source CFD Toolbox           |
|  \\    /   O peration     | Version:  2412                                  |
|   \\  /    A nd           | Website:  www.openfoam.com                      |
|    \\/     M anipulation  |                                                 |
\*---------------------------------------------------------------------------*/
FoamFile
{
    version     2.0;
    format      ascii;
    arch        "LSB;label=32;scalar=64";
    class       volVectorField;
    location    "1.2";
    object      U;
}
// * * * * * * * * * * * * * * * * * * * * * * * * * * * * * * * * * * * * * //

dimensions      [0 1 -1 0 0 0 0];

internalField   nonuniform List<vector> 
40000
(
(5.86212e-06 -5.42688e-06 0)
(3.33817e-05 -8.88835e-06 0)
(6.88695e-05 -1.03708e-05 0)
(0.000106556 -1.09864e-05 0)
(0.00014521 -1.12039e-05 0)
(0.000184133 -1.12553e-05 0)
(0.000223034 -1.12176e-05 0)
(0.000261783 -1.11454e-05 0)
(0.000300311 -1.10602e-05 0)
(0.000338583 -1.09704e-05 0)
(0.000376573 -1.08771e-05 0)
(0.000414259 -1.07779e-05 0)
(0.000451616 -1.06722e-05 0)
(0.000488619 -1.05595e-05 0)
(0.00052524 -1.04396e-05 0)
(0.000561455 -1.0312e-05 0)
(0.000597234 -1.01763e-05 0)
(0.000632552 -1.00322e-05 0)
(0.000667379 -9.87962e-06 0)
(0.000701688 -9.71845e-06 0)
(0.000735449 -9.54872e-06 0)
(0.000768633 -9.37049e-06 0)
(0.00080121 -9.18379e-06 0)
(0.000833151 -8.98861e-06 0)
(0.000864428 -8.7849e-06 0)
(0.00089501 -8.57264e-06 0)
(0.000924869 -8.35188e-06 0)
(0.000953975 -8.12273e-06 0)
(0.0009823 -7.88531e-06 0)
(0.00100981 -7.63973e-06 0)
(0.00103649 -7.38604e-06 0)
(0.00106229 -7.12428e-06 0)
(0.0010872 -6.85449e-06 0)
(0.00111118 -6.57679e-06 0)
(0.00113421 -6.29132e-06 0)
(0.00115626 -5.99825e-06 0)
(0.00117731 -5.69773e-06 0)
(0.00119731 -5.38989e-06 0)
(0.00121626 -5.07488e-06 0)
(0.00123411 -4.75284e-06 0)
(0.00125085 -4.42396e-06 0)
(0.00126646 -4.08845e-06 0)
(0.0012809 -3.74652e-06 0)
(0.00129415 -3.3984e-06 0)
(0.00130619 -3.04435e-06 0)
(0.001317 -2.68466e-06 0)
(0.00132656 -2.31969e-06 0)
(0.00133484 -1.94981e-06 0)
(0.00134182 -1.57535e-06 0)
(0.00134749 -1.19652e-06 0)
(0.00135184 -8.13336e-07 0)
(0.00135484 -4.25453e-07 0)
(0.00135647 -3.1721e-08 0)
(0.00135673 3.66074e-07 0)
(0.00135558 7.68402e-07 0)
(0.00135302 1.17013e-06 0)
(0.00134906 1.57046e-06 0)
(0.00134368 1.9698e-06 0)
(0.00133688 2.36882e-06 0)
(0.00132867 2.76758e-06 0)
(0.00131903 3.16578e-06 0)
(0.00130797 3.56295e-06 0)
(0.00129548 3.95857e-06 0)
(0.00128158 4.35209e-06 0)
(0.00126626 4.74299e-06 0)
(0.00124954 5.13074e-06 0)
(0.00123141 5.51484e-06 0)
(0.0012119 5.89477e-06 0)
(0.00119102 6.26998e-06 0)
(0.00116878 6.63994e-06 0)
(0.00114519 7.00412e-06 0)
(0.00112029 7.36201e-06 0)
(0.00109408 7.71312e-06 0)
(0.00106659 8.05695e-06 0)
(0.00103785 8.393e-06 0)
(0.00100788 8.72075e-06 0)
(0.000976716 9.03975e-06 0)
(0.000944386 9.34955e-06 0)
(0.000910922 9.64973e-06 0)
(0.000876362 9.93981e-06 0)
(0.000840741 1.02193e-05 0)
(0.000804097 1.04877e-05 0)
(0.000766473 1.07445e-05 0)
(0.000727909 1.09895e-05 0)
(0.000688452 1.12223e-05 0)
(0.000648146 1.14425e-05 0)
(0.000607038 1.16499e-05 0)
(0.000565178 1.18439e-05 0)
(0.000522615 1.20243e-05 0)
(0.000479401 1.21907e-05 0)
(0.000435588 1.23431e-05 0)
(0.00039123 1.24811e-05 0)
(0.000346381 1.26045e-05 0)
(0.000301098 1.27133e-05 0)
(0.000255436 1.28071e-05 0)
(0.000209454 1.2886e-05 0)
(0.000163207 1.29496e-05 0)
(0.000116755 1.29979e-05 0)
(7.01561e-05 1.30306e-05 0)
(2.34706e-05 1.3047e-05 0)
(-2.32438e-05 1.3047e-05 0)
(-6.9929e-05 1.30306e-05 0)
(-0.000116528 1.29981e-05 0)
(-0.00016298 1.295e-05 0)
(-0.000209227 1.28865e-05 0)
(-0.000255211 1.28079e-05 0)
(-0.000300873 1.27141e-05 0)
(-0.000346158 1.26054e-05 0)
(-0.000391008 1.24818e-05 0)
(-0.000435368 1.23437e-05 0)
(-0.000479183 1.21913e-05 0)
(-0.000522399 1.20251e-05 0)
(-0.000564964 1.18449e-05 0)
(-0.000606827 1.16511e-05 0)
(-0.000647937 1.1444e-05 0)
(-0.000688247 1.12239e-05 0)
(-0.000727707 1.09912e-05 0)
(-0.000766274 1.07462e-05 0)
(-0.000803902 1.04893e-05 0)
(-0.000840549 1.02209e-05 0)
(-0.000876175 9.94151e-06 0)
(-0.00091074 9.65169e-06 0)
(-0.000944208 9.35167e-06 0)
(-0.000976544 9.04184e-06 0)
(-0.00100771 8.72285e-06 0)
(-0.00103769 8.39517e-06 0)
(-0.00106644 8.05918e-06 0)
(-0.00109393 7.71532e-06 0)
(-0.00112015 7.36408e-06 0)
(-0.00114506 7.0061e-06 0)
(-0.00116866 6.64197e-06 0)
(-0.00119091 6.27212e-06 0)
(-0.0012118 5.89702e-06 0)
(-0.00123132 5.51731e-06 0)
(-0.00124945 5.13351e-06 0)
(-0.00126618 4.74604e-06 0)
(-0.00128151 4.3555e-06 0)
(-0.00129542 3.96231e-06 0)
(-0.00130792 3.56678e-06 0)
(-0.00131899 3.16983e-06 0)
(-0.00132864 2.77196e-06 0)
(-0.00133687 2.373e-06 0)
(-0.00134368 1.97349e-06 0)
(-0.00134907 1.57384e-06 0)
(-0.00135304 1.17321e-06 0)
(-0.0013556 7.71113e-07 0)
(-0.00135677 3.68435e-07 0)
(-0.00135652 -2.95879e-08 0)
(-0.00135489 -4.23138e-07 0)
(-0.0013519 -8.1063e-07 0)
(-0.00134756 -1.19369e-06 0)
(-0.0013419 -1.57222e-06 0)
(-0.00133493 -1.94591e-06 0)
(-0.00132666 -2.31506e-06 0)
(-0.00131712 -2.67947e-06 0)
(-0.00130633 -3.03884e-06 0)
(-0.00129431 -3.39277e-06 0)
(-0.00128107 -3.74075e-06 0)
(-0.00126665 -4.0828e-06 0)
(-0.00125106 -4.41863e-06 0)
(-0.00123434 -4.74775e-06 0)
(-0.0012165 -5.07001e-06 0)
(-0.00119757 -5.3852e-06 0)
(-0.00117758 -5.69323e-06 0)
(-0.00115655 -5.99371e-06 0)
(-0.00113452 -6.28648e-06 0)
(-0.00111151 -6.57167e-06 0)
(-0.00108755 -6.84888e-06 0)
(-0.00106266 -7.11832e-06 0)
(-0.00103687 -7.38007e-06 0)
(-0.00101022 -7.63389e-06 0)
(-0.000982727 -7.87989e-06 0)
(-0.000954425 -8.11746e-06 0)
(-0.000925343 -8.34613e-06 0)
(-0.000895511 -8.56573e-06 0)
(-0.000864958 -8.77626e-06 0)
(-0.000833716 -8.97843e-06 0)
(-0.000801813 -9.17238e-06 0)
(-0.000769278 -9.35858e-06 0)
(-0.000736138 -9.53689e-06 0)
(-0.000702422 -9.70643e-06 0)
(-0.00066816 -9.86679e-06 0)
(-0.000633382 -1.00182e-05 0)
(-0.00059812 -1.01604e-05 0)
(-0.000562402 -1.02935e-05 0)
(-0.000526259 -1.0418e-05 0)
(-0.000489721 -1.05335e-05 0)
(-0.000452816 -1.06405e-05 0)
(-0.000415573 -1.07396e-05 0)
(-0.000378019 -1.08304e-05 0)
(-0.000340182 -1.0912e-05 0)
(-0.000302092 -1.09847e-05 0)
(-0.000263781 -1.10468e-05 0)
(-0.000225279 -1.10984e-05 0)
(-0.000186623 -1.11365e-05 0)
(-0.000147851 -1.11493e-05 0)
(-0.000109015 -1.11012e-05 0)
(-7.04038e-05 -1.08331e-05 0)
(-3.36113e-05 -9.64276e-06 0)
(-5.58508e-06 -5.63734e-06 0)
(1.02314e-05 -3.38285e-05 0)
(6.16608e-05 -5.90168e-05 0)
(0.000122852 -6.62154e-05 0)
(0.000186204 -6.85056e-05 0)
(0.00025017 -6.93836e-05 0)
(0.000314303 -6.95965e-05 0)
(0.000378412 -6.94493e-05 0)
(0.000442362 -6.91256e-05 0)
(0.000506049 -6.87092e-05 0)
(0.000569399 -6.82365e-05 0)
(0.000632349 -6.77187e-05 0)
(0.000694847 -6.71565e-05 0)
(0.000756842 -6.65497e-05 0)
(0.000818287 -6.58973e-05 0)
(0.000879133 -6.51983e-05 0)
(0.000939333 -6.44513e-05 0)
(0.000998841 -6.3655e-05 0)
(0.00105761 -6.28086e-05 0)
(0.00111559 -6.19114e-05 0)
(0.00117274 -6.09631e-05 0)
(0.00122901 -5.99634e-05 0)
(0.00128435 -5.89122e-05 0)
(0.00133872 -5.78092e-05 0)
(0.00139205 -5.66543e-05 0)
(0.00144432 -5.54471e-05 0)
(0.00149546 -5.41877e-05 0)
(0.00154543 -5.28761e-05 0)
(0.00159418 -5.15126e-05 0)
(0.00164166 -5.00974e-05 0)
(0.00168783 -4.86307e-05 0)
(0.00173263 -4.71127e-05 0)
(0.00177602 -4.55434e-05 0)
(0.00181795 -4.39231e-05 0)
(0.00185838 -4.22522e-05 0)
(0.00189724 -4.05313e-05 0)
(0.00193451 -3.87608e-05 0)
(0.00197012 -3.69415e-05 0)
(0.00200405 -3.50739e-05 0)
(0.00203623 -3.31585e-05 0)
(0.00206662 -3.11962e-05 0)
(0.00209518 -2.91879e-05 0)
(0.00212187 -2.71345e-05 0)
(0.00214665 -2.50371e-05 0)
(0.00216946 -2.2897e-05 0)
(0.00219028 -2.07156e-05 0)
(0.00220906 -1.84943e-05 0)
(0.00222576 -1.62348e-05 0)
(0.00224035 -1.3939e-05 0)
(0.00225279 -1.16086e-05 0)
(0.00226305 -9.24528e-06 0)
(0.0022711 -6.8504e-06 0)
(0.00227691 -4.42504e-06 0)
(0.00228045 -1.96924e-06 0)
(0.00228169 5.16844e-07 0)
(0.00228062 3.02682e-06 0)
(0.00227721 5.54967e-06 0)
(0.00227144 8.08243e-06 0)
(0.0022633 1.06246e-05 0)
(0.00225276 1.31754e-05 0)
(0.00223983 1.57329e-05 0)
(0.00222449 1.82942e-05 0)
(0.00220674 2.08564e-05 0)
(0.00218657 2.3416e-05 0)
(0.00216399 2.59698e-05 0)
(0.002139 2.85142e-05 0)
(0.00211161 3.10458e-05 0)
(0.00208183 3.35609e-05 0)
(0.00204967 3.6056e-05 0)
(0.00201515 3.85272e-05 0)
(0.0019783 4.09708e-05 0)
(0.00193913 4.33831e-05 0)
(0.00189769 4.57604e-05 0)
(0.00185399 4.80989e-05 0)
(0.00180808 5.03951e-05 0)
(0.00176 5.26452e-05 0)
(0.00170979 5.48454e-05 0)
(0.0016575 5.69921e-05 0)
(0.00160318 5.90817e-05 0)
(0.00154688 6.11106e-05 0)
(0.00148867 6.30752e-05 0)
(0.0014286 6.49718e-05 0)
(0.00136674 6.6797e-05 0)
(0.00130316 6.85473e-05 0)
(0.00123793 7.02198e-05 0)
(0.00117114 7.18113e-05 0)
(0.00110284 7.33189e-05 0)
(0.00103314 7.47397e-05 0)
(0.000962107 7.60709e-05 0)
(0.000889834 7.73098e-05 0)
(0.00081641 7.84543e-05 0)
(0.000741926 7.95024e-05 0)
(0.000666478 8.04519e-05 0)
(0.000590161 8.13012e-05 0)
(0.000513073 8.20484e-05 0)
(0.000435314 8.26922e-05 0)
(0.000356984 8.32314e-05 0)
(0.000278186 8.36647e-05 0)
(0.000199022 8.39912e-05 0)
(0.000119597 8.42097e-05 0)
(4.00168e-05 8.43193e-05 0)
(-3.96179e-05 8.43195e-05 0)
(-0.000119198 8.42105e-05 0)
(-0.000198622 8.39925e-05 0)
(-0.000277786 8.36667e-05 0)
(-0.000356585 8.32339e-05 0)
(-0.000434916 8.26952e-05 0)
(-0.000512677 8.20518e-05 0)
(-0.000589767 8.13048e-05 0)
(-0.000666087 8.04558e-05 0)
(-0.000741537 7.95064e-05 0)
(-0.000816023 7.84589e-05 0)
(-0.000889449 7.7315e-05 0)
(-0.000961725 7.60767e-05 0)
(-0.00103276 7.47461e-05 0)
(-0.00110247 7.33258e-05 0)
(-0.00117077 7.18186e-05 0)
(-0.00123757 7.02274e-05 0)
(-0.0013028 6.8555e-05 0)
(-0.00136638 6.68047e-05 0)
(-0.00142825 6.49797e-05 0)
(-0.00148832 6.30836e-05 0)
(-0.00154654 6.11198e-05 0)
(-0.00160284 5.90915e-05 0)
(-0.00165717 5.70022e-05 0)
(-0.00170947 5.48559e-05 0)
(-0.00175969 5.26562e-05 0)
(-0.00180778 5.04066e-05 0)
(-0.00185369 4.81106e-05 0)
(-0.0018974 4.57721e-05 0)
(-0.00193885 4.33951e-05 0)
(-0.00197803 4.09835e-05 0)
(-0.00201489 3.85406e-05 0)
(-0.00204942 3.60702e-05 0)
(-0.00208159 3.35764e-05 0)
(-0.00211138 3.10628e-05 0)
(-0.00213878 2.85326e-05 0)
(-0.00216378 2.59893e-05 0)
(-0.00218638 2.34368e-05 0)
(-0.00220656 2.08782e-05 0)
(-0.00222432 1.83166e-05 0)
(-0.00223968 1.57557e-05 0)
(-0.00225262 1.31976e-05 0)
(-0.00226316 1.06453e-05 0)
(-0.00227132 8.10145e-06 0)
(-0.0022771 5.56682e-06 0)
(-0.00228052 3.04207e-06 0)
(-0.0022816 5.30908e-07 0)
(-0.00228037 -1.95526e-06 0)
(-0.00227684 -4.41015e-06 0)
(-0.00227105 -6.8336e-06 0)
(-0.00226301 -9.22638e-06 0)
(-0.00225276 -1.15873e-05 0)
(-0.00224033 -1.39146e-05 0)
(-0.00222576 -1.62077e-05 0)
(-0.00220907 -1.84649e-05 0)
(-0.00219031 -2.06846e-05 0)
(-0.00216951 -2.28651e-05 0)
(-0.00214672 -2.50048e-05 0)
(-0.00212196 -2.71023e-05 0)
(-0.00209529 -2.91563e-05 0)
(-0.00206674 -3.11653e-05 0)
(-0.00203636 -3.31283e-05 0)
(-0.0020042 -3.50439e-05 0)
(-0.0019703 -3.69111e-05 0)
(-0.0019347 -3.87293e-05 0)
(-0.00189745 -4.04978e-05 0)
(-0.00185861 -4.22166e-05 0)
(-0.0018182 -4.38854e-05 0)
(-0.00177629 -4.5504e-05 0)
(-0.00173292 -4.70729e-05 0)
(-0.00168814 -4.8591e-05 0)
(-0.00164199 -5.00576e-05 0)
(-0.00159453 -5.14716e-05 0)
(-0.00154581 -5.28311e-05 0)
(-0.00149587 -5.41365e-05 0)
(-0.00144475 -5.53884e-05 0)
(-0.00139252 -5.65886e-05 0)
(-0.00133922 -5.77379e-05 0)
(-0.00128489 -5.88367e-05 0)
(-0.00122959 -5.98848e-05 0)
(-0.00117336 -6.08806e-05 0)
(-0.00111625 -6.18236e-05 0)
(-0.00105831 -6.27131e-05 0)
(-0.000999585 -6.35488e-05 0)
(-0.000940127 -6.43304e-05 0)
(-0.00087998 -6.50603e-05 0)
(-0.000819192 -6.57384e-05 0)
(-0.000757812 -6.63665e-05 0)
(-0.000695887 -6.69455e-05 0)
(-0.000633461 -6.74735e-05 0)
(-0.000570581 -6.79498e-05 0)
(-0.000507292 -6.83735e-05 0)
(-0.000443643 -6.8743e-05 0)
(-0.000379681 -6.90566e-05 0)
(-0.000315453 -6.93088e-05 0)
(-0.000250996 -6.94669e-05 0)
(-0.000186337 -6.93446e-05 0)
(-0.000121836 -6.78956e-05 0)
(-6.0012e-05 -6.05195e-05 0)
(-9.41072e-06 -3.34709e-05 0)
(1.09758e-05 -7.13487e-05 0)
(6.87165e-05 -0.00012138 0)
(0.000136951 -0.000133315 0)
(0.000207135 -0.000136161 0)
(0.00027732 -0.000137121 0)
(0.000347377 -0.000137356 0)
(0.000417315 -0.000137146 0)
(0.000487074 -0.000136654 0)
(0.000556572 -0.000135975 0)
(0.000625733 -0.000135158 0)
(0.000694489 -0.000134223 0)
(0.000762778 -0.000133183 0)
(0.00083054 -0.00013204 0)
(0.00089772 -0.000130798 0)
(0.000964263 -0.000129455 0)
(0.00103011 -0.000128013 0)
(0.00109522 -0.00012647 0)
(0.00115954 -0.000124826 0)
(0.00122301 -0.00012308 0)
(0.00128558 -0.000121232 0)
(0.0013472 -0.000119281 0)
(0.00140781 -0.000117228 0)
(0.00146736 -0.000115072 0)
(0.00152581 -0.000112813 0)
(0.00158309 -0.000110449 0)
(0.00163916 -0.000107982 0)
(0.00169396 -0.000105412 0)
(0.00174744 -0.000102737 0)
(0.00179954 -9.99599e-05 0)
(0.00185022 -9.70793e-05 0)
(0.00189941 -9.40958e-05 0)
(0.00194707 -9.10096e-05 0)
(0.00199315 -8.78214e-05 0)
(0.00203758 -8.45317e-05 0)
(0.00208033 -8.11415e-05 0)
(0.00212133 -7.76516e-05 0)
(0.00216054 -7.40631e-05 0)
(0.0021979 -7.03769e-05 0)
(0.00223336 -6.65944e-05 0)
(0.00226688 -6.2717e-05 0)
(0.00229841 -5.87465e-05 0)
(0.00232789 -5.46846e-05 0)
(0.00235528 -5.05335e-05 0)
(0.00238054 -4.62956e-05 0)
(0.00240361 -4.19733e-05 0)
(0.00242446 -3.75695e-05 0)
(0.00244304 -3.30873e-05 0)
(0.00245931 -2.85299e-05 0)
(0.00247323 -2.39007e-05 0)
(0.00248477 -1.92032e-05 0)
(0.00249388 -1.4441e-05 0)
(0.00250054 -9.618e-06 0)
(0.00250472 -4.73808e-06 0)
(0.00250638 1.95796e-07 0)
(0.00250552 5.17464e-06 0)
(0.0025021 1.01923e-05 0)
(0.00249609 1.52435e-05 0)
(0.00248747 2.03236e-05 0)
(0.00247623 2.54277e-05 0)
(0.00246235 3.05501e-05 0)
(0.00244582 3.56846e-05 0)
(0.00242663 4.08248e-05 0)
(0.00240478 4.59642e-05 0)
(0.00238027 5.10958e-05 0)
(0.0023531 5.62129e-05 0)
(0.00232328 6.13083e-05 0)
(0.00229082 6.63746e-05 0)
(0.00225574 7.14045e-05 0)
(0.00221805 7.63902e-05 0)
(0.00217777 8.13242e-05 0)
(0.00213494 8.61986e-05 0)
(0.00208958 9.10058e-05 0)
(0.00204172 9.57382e-05 0)
(0.00199141 0.000100388 0)
(0.00193869 0.000104948 0)
(0.00188361 0.000109409 0)
(0.00182622 0.000113765 0)
(0.00176657 0.000118007 0)
(0.00170472 0.000122128 0)
(0.00164075 0.000126121 0)
(0.00157471 0.000129977 0)
(0.00150668 0.000133691 0)
(0.00143673 0.000137254 0)
(0.00136495 0.00014066 0)
(0.00129141 0.000143903 0)
(0.00121621 0.000146975 0)
(0.00113943 0.000149872 0)
(0.00106118 0.000152586 0)
(0.000981532 0.000155114 0)
(0.000900604 0.000157449 0)
(0.000818493 0.000159587 0)
(0.000735303 0.000161525 0)
(0.000651142 0.000163257 0)
(0.000566119 0.000164781 0)
(0.000480345 0.000166093 0)
(0.000393933 0.000167191 0)
(0.000306997 0.000168072 0)
(0.000219651 0.000168735 0)
(0.000132013 0.000169177 0)
(4.41998e-05 0.000169398 0)
(-4.36756e-05 0.000169399 0)
(-0.000131488 0.000169179 0)
(-0.000219126 0.000168737 0)
(-0.000306472 0.000168075 0)
(-0.000393409 0.000167195 0)
(-0.000479823 0.000166098 0)
(-0.000565599 0.000164786 0)
(-0.000650624 0.000163262 0)
(-0.000734787 0.000161531 0)
(-0.000817979 0.000159594 0)
(-0.000900093 0.000157456 0)
(-0.000981024 0.000155122 0)
(-0.00106067 0.000152595 0)
(-0.00113893 0.000149881 0)
(-0.00121571 0.000146985 0)
(-0.00129092 0.000143914 0)
(-0.00136445 0.000140672 0)
(-0.00143624 0.000137266 0)
(-0.00150619 0.000133704 0)
(-0.00157423 0.000129991 0)
(-0.00164027 0.000126135 0)
(-0.00170426 0.000122143 0)
(-0.00176611 0.000118023 0)
(-0.00182576 0.000113781 0)
(-0.00188316 0.000109426 0)
(-0.00193825 0.000104965 0)
(-0.00199097 0.000100406 0)
(-0.00204129 9.57561e-05 0)
(-0.00208915 9.10239e-05 0)
(-0.00213452 8.62172e-05 0)
(-0.00217736 8.13436e-05 0)
(-0.00221765 7.64107e-05 0)
(-0.00225535 7.14261e-05 0)
(-0.00229044 6.63979e-05 0)
(-0.00232291 6.13335e-05 0)
(-0.00235273 5.62397e-05 0)
(-0.00237991 5.11236e-05 0)
(-0.00240443 4.59933e-05 0)
(-0.00242628 4.08555e-05 0)
(-0.00244548 3.5716e-05 0)
(-0.00246202 3.05817e-05 0)
(-0.00247591 2.54591e-05 0)
(-0.00248716 2.03539e-05 0)
(-0.00249578 1.5272e-05 0)
(-0.0025018 1.02187e-05 0)
(-0.00250524 5.19873e-06 0)
(-0.00250611 2.18928e-07 0)
(-0.00250445 -4.71458e-06 0)
(-0.00250029 -9.59348e-06 0)
(-0.00249364 -1.44145e-05 0)
(-0.00248453 -1.91738e-05 0)
(-0.002473 -2.38683e-05 0)
(-0.00245909 -2.84944e-05 0)
(-0.00244283 -3.30492e-05 0)
(-0.00242426 -3.7529e-05 0)
(-0.00240342 -4.19305e-05 0)
(-0.00238036 -4.62514e-05 0)
(-0.00235511 -5.04887e-05 0)
(-0.00232773 -5.46394e-05 0)
(-0.00229826 -5.87014e-05 0)
(-0.00226675 -6.26724e-05 0)
(-0.00223324 -6.65506e-05 0)
(-0.00219778 -7.03334e-05 0)
(-0.00216043 -7.40189e-05 0)
(-0.00212124 -7.76061e-05 0)
(-0.00208025 -8.10942e-05 0)
(-0.00203751 -8.44823e-05 0)
(-0.00199309 -8.77704e-05 0)
(-0.00194702 -9.09572e-05 0)
(-0.00189937 -9.4043e-05 0)
(-0.00185019 -9.70264e-05 0)
(-0.00179952 -9.99063e-05 0)
(-0.00174743 -0.000102682 0)
(-0.00169397 -0.000105352 0)
(-0.00163918 -0.000107917 0)
(-0.00158312 -0.000110377 0)
(-0.00152585 -0.000112734 0)
(-0.00146741 -0.000114989 0)
(-0.00140787 -0.000117141 0)
(-0.00134727 -0.00011919 0)
(-0.00128566 -0.000121137 0)
(-0.0012231 -0.000122981 0)
(-0.00115964 -0.00012472 0)
(-0.00109533 -0.000126355 0)
(-0.00103023 -0.000127885 0)
(-0.000964377 -0.000129313 0)
(-0.00089783 -0.00013064 0)
(-0.000830642 -0.000131868 0)
(-0.000762862 -0.000132997 0)
(-0.00069454 -0.000134026 0)
(-0.000625727 -0.000134955 0)
(-0.000556473 -0.000135781 0)
(-0.000486828 -0.000136507 0)
(-0.000416841 -0.000137128 0)
(-0.000346564 -0.000137643 0)
(-0.000276038 -0.000138009 0)
(-0.00020529 -0.00013792 0)
(-0.000134711 -0.000135517 0)
(-6.70918e-05 -0.000122156 0)
(-1.05319e-05 -6.96696e-05 0)
(1.08808e-05 -0.000110273 0)
(6.93422e-05 -0.000186934 0)
(0.000139026 -0.000204464 0)
(0.000211001 -0.000207789 0)
(0.000282786 -0.000208495 0)
(0.000354245 -0.000208489 0)
(0.000425458 -0.000208059 0)
(0.000496425 -0.000207315 0)
(0.0005671 -0.000206326 0)
(0.000637424 -0.000205135 0)
(0.000707338 -0.000203765 0)
(0.00077678 -0.000202227 0)
(0.000845693 -0.000200529 0)
(0.00091402 -0.000198675 0)
(0.000981706 -0.000196666 0)
(0.0010487 -0.000194502 0)
(0.00111494 -0.000192184 0)
(0.00118038 -0.000189711 0)
(0.00124496 -0.000187083 0)
(0.00130863 -0.0001843 0)
(0.00137135 -0.000181361 0)
(0.00143304 -0.000178266 0)
(0.00149367 -0.000175014 0)
(0.00155317 -0.000171605 0)
(0.00161149 -0.000168038 0)
(0.00166859 -0.000164314 0)
(0.0017244 -0.000160433 0)
(0.00177887 -0.000156393 0)
(0.00183195 -0.000152197 0)
(0.00188358 -0.000147843 0)
(0.00193371 -0.000143332 0)
(0.00198228 -0.000138665 0)
(0.00202925 -0.000133842 0)
(0.00207455 -0.000128865 0)
(0.00211814 -0.000123734 0)
(0.00215996 -0.00011845 0)
(0.00219996 -0.000113016 0)
(0.00223808 -0.000107432 0)
(0.00227428 -0.000101701 0)
(0.00230851 -9.58242e-05 0)
(0.0023407 -8.98049e-05 0)
(0.00237083 -8.36457e-05 0)
(0.00239883 -7.73496e-05 0)
(0.00242465 -7.092e-05 0)
(0.00244827 -6.43608e-05 0)
(0.00246962 -5.7676e-05 0)
(0.00248866 -5.08702e-05 0)
(0.00250535 -4.39481e-05 0)
(0.00251966 -3.69148e-05 0)
(0.00253154 -2.97756e-05 0)
(0.00254095 -2.25363e-05 0)
(0.00254787 -1.52034e-05 0)
(0.00255226 -7.78422e-06 0)
(0.00255408 -2.86761e-07 0)
(0.00255332 7.28229e-06 0)
(0.00254995 1.49167e-05 0)
(0.00254394 2.26089e-05 0)
(0.00253528 3.03502e-05 0)
(0.00252393 3.81317e-05 0)
(0.0025099 4.59441e-05 0)
(0.00249316 5.37779e-05 0)
(0.00247372 6.16231e-05 0)
(0.00245155 6.94698e-05 0)
(0.00242668 7.73076e-05 0)
(0.00239909 8.51258e-05 0)
(0.0023688 9.29137e-05 0)
(0.00233581 0.00010066 0)
(0.00230013 0.000108353 0)
(0.0022618 0.000115981 0)
(0.00222083 0.000123533 0)
(0.00217724 0.000130996 0)
(0.00213107 0.000138359 0)
(0.00208235 0.00014561 0)
(0.00203112 0.000152737 0)
(0.00197743 0.000159727 0)
(0.00192132 0.000166569 0)
(0.00186285 0.00017325 0)
(0.00180207 0.00017976 0)
(0.00173905 0.000186085 0)
(0.00167384 0.000192214 0)
(0.00160653 0.000198136 0)
(0.00153717 0.000203839 0)
(0.00146585 0.000209313 0)
(0.00139266 0.000214547 0)
(0.00131767 0.000219531 0)
(0.00124097 0.000224254 0)
(0.00116266 0.000228707 0)
(0.00108284 0.000232882 0)
(0.00100159 0.000236769 0)
(0.000919031 0.000240362 0)
(0.000835258 0.000243652 0)
(0.000750379 0.000246633 0)
(0.000664505 0.000249298 0)
(0.000577748 0.000251642 0)
(0.000490221 0.000253661 0)
(0.00040204 0.000255349 0)
(0.000313322 0.000256704 0)
(0.000224184 0.000257722 0)
(0.000134746 0.000258401 0)
(4.51301e-05 0.000258741 0)
(-4.45499e-05 0.000258742 0)
(-0.000134166 0.000258404 0)
(-0.000223604 0.000257725 0)
(-0.000312742 0.000256708 0)
(-0.000401462 0.000255354 0)
(-0.000489644 0.000253666 0)
(-0.000577173 0.000251649 0)
(-0.000663932 0.000249305 0)
(-0.000749808 0.000246641 0)
(-0.000834689 0.000243661 0)
(-0.000918465 0.000240372 0)
(-0.00100103 0.000236781 0)
(-0.00108228 0.000232895 0)
(-0.00116211 0.000228721 0)
(-0.00124042 0.000224268 0)
(-0.00131712 0.000219546 0)
(-0.00139211 0.000214564 0)
(-0.00146531 0.000209331 0)
(-0.00153663 0.000203858 0)
(-0.00160599 0.000198155 0)
(-0.00167331 0.000192234 0)
(-0.00173852 0.000186106 0)
(-0.00180155 0.000179781 0)
(-0.00186234 0.000173272 0)
(-0.00192081 0.000166592 0)
(-0.00197692 0.00015975 0)
(-0.00203062 0.00015276 0)
(-0.00208186 0.000145634 0)
(-0.00213058 0.000138384 0)
(-0.00217676 0.000131021 0)
(-0.00222035 0.000123559 0)
(-0.00226133 0.000116008 0)
(-0.00229967 0.000108381 0)
(-0.00233535 0.00010069 0)
(-0.00236835 9.29451e-05 0)
(-0.00239865 8.51589e-05 0)
(-0.00242625 7.73417e-05 0)
(-0.00245113 6.95052e-05 0)
(-0.00247329 6.166e-05 0)
(-0.00249275 5.38155e-05 0)
(-0.00250949 4.59819e-05 0)
(-0.00252353 3.81696e-05 0)
(-0.00253488 3.03877e-05 0)
(-0.00254355 2.26452e-05 0)
(-0.00254957 1.49514e-05 0)
(-0.00255295 7.31537e-06 0)
(-0.00255372 -2.54216e-07 0)
(-0.0025519 -7.75114e-06 0)
(-0.00254752 -1.51693e-05 0)
(-0.00254061 -2.25003e-05 0)
(-0.00253121 -2.97366e-05 0)
(-0.00251934 -3.68729e-05 0)
(-0.00250504 -4.39037e-05 0)
(-0.00248835 -5.08233e-05 0)
(-0.00246931 -5.7627e-05 0)
(-0.00244797 -6.43096e-05 0)
(-0.00242437 -7.08674e-05 0)
(-0.00239854 -7.72964e-05 0)
(-0.00237055 -8.35921e-05 0)
(-0.00234043 -8.97513e-05 0)
(-0.00230824 -9.57709e-05 0)
(-0.00227403 -0.000101648 0)
(-0.00223783 -0.000107379 0)
(-0.00219972 -0.000112963 0)
(-0.00215972 -0.000118396 0)
(-0.00211791 -0.000123678 0)
(-0.00207433 -0.000128808 0)
(-0.00202903 -0.000133785 0)
(-0.00198207 -0.000138607 0)
(-0.0019335 -0.000143273 0)
(-0.00188337 -0.000147783 0)
(-0.00183175 -0.000152135 0)
(-0.00177868 -0.00015633 0)
(-0.00172421 -0.000160366 0)
(-0.00166841 -0.000164243 0)
(-0.00161132 -0.000167962 0)
(-0.00155299 -0.000171524 0)
(-0.00149349 -0.000174929 0)
(-0.00143286 -0.000178177 0)
(-0.00137116 -0.00018127 0)
(-0.00130845 -0.000184206 0)
(-0.00124477 -0.000186987 0)
(-0.00118018 -0.000189611 0)
(-0.00111473 -0.000192078 0)
(-0.00104847 -0.000194389 0)
(-0.000981453 -0.000196546 0)
(-0.000913737 -0.000198551 0)
(-0.000845369 -0.000200404 0)
(-0.000776403 -0.000202107 0)
(-0.000706888 -0.000203657 0)
(-0.000636875 -0.000205057 0)
(-0.000566415 -0.000206303 0)
(-0.000495559 -0.000207398 0)
(-0.000424356 -0.000208339 0)
(-0.00035286 -0.000209123 0)
(-0.000281114 -0.000209692 0)
(-0.000209146 -0.000209602 0)
(-0.000137355 -0.000206136 0)
(-6.8637e-05 -0.00018649 0)
(-1.08071e-05 -0.000107661 0)
(1.08455e-05 -0.00014873 0)
(6.90736e-05 -0.000252272 0)
(0.00013887 -0.000276049 0)
(0.000211379 -0.000280104 0)
(0.000283767 -0.000280547 0)
(0.000355778 -0.000280222 0)
(0.00042747 -0.0002795 0)
(0.000498858 -0.000278453 0)
(0.000569916 -0.000277122 0)
(0.000640602 -0.000275538 0)
(0.000710863 -0.000273719 0)
(0.000780645 -0.000271676 0)
(0.000849894 -0.000269419 0)
(0.000918555 -0.000266949 0)
(0.000986573 -0.000264271 0)
(0.0010539 -0.000261383 0)
(0.00112047 -0.000258288 0)
(0.00118624 -0.000254984 0)
(0.00125115 -0.000251472 0)
(0.00131515 -0.000247751 0)
(0.00137819 -0.00024382 0)
(0.00144021 -0.00023968 0)
(0.00150117 -0.000235329 0)
(0.00156099 -0.000230767 0)
(0.00161964 -0.000225994 0)
(0.00167706 -0.000221009 0)
(0.00173318 -0.000215812 0)
(0.00178797 -0.000210404 0)
(0.00184137 -0.000204784 0)
(0.00189331 -0.000198952 0)
(0.00194375 -0.000192909 0)
(0.00199263 -0.000186656 0)
(0.00203989 -0.000180193 0)
(0.00208549 -0.000173522 0)
(0.00212937 -0.000166643 0)
(0.00217148 -0.00015956 0)
(0.00221176 -0.000152272 0)
(0.00225016 -0.000144783 0)
(0.00228663 -0.000137095 0)
(0.00232111 -0.000129211 0)
(0.00235357 -0.000121134 0)
(0.00238394 -0.000112868 0)
(0.00241217 -0.000104417 0)
(0.00243823 -9.57856e-05 0)
(0.00246207 -8.69786e-05 0)
(0.00248363 -7.80015e-05 0)
(0.00250287 -6.88602e-05 0)
(0.00251975 -5.9561e-05 0)
(0.00253424 -5.01104e-05 0)
(0.00254628 -4.05159e-05 0)
(0.00255585 -3.07853e-05 0)
(0.00256291 -2.09273e-05 0)
(0.00256742 -1.09513e-05 0)
(0.00256936 -8.67822e-07 0)
(0.00256868 9.31454e-06 0)
(0.00256538 1.95874e-05 0)
(0.00255942 2.99405e-05 0)
(0.00255079 4.03622e-05 0)
(0.00253946 5.08403e-05 0)
(0.00252543 6.13622e-05 0)
(0.00250867 7.19152e-05 0)
(0.00248918 8.24859e-05 0)
(0.00246697 9.30609e-05 0)
(0.00244201 0.000103626 0)
(0.00241433 0.000114168 0)
(0.00238392 0.00012467 0)
(0.00235079 0.000135119 0)
(0.00231496 0.000145497 0)
(0.00227645 0.000155791 0)
(0.00223528 0.000165984 0)
(0.00219147 0.00017606 0)
(0.00214506 0.000186003 0)
(0.00209608 0.000195796 0)
(0.00204457 0.000205424 0)
(0.00199058 0.000214868 0)
(0.00193415 0.000224114 0)
(0.00187534 0.000233145 0)
(0.0018142 0.000241944 0)
(0.00175079 0.000250496 0)
(0.00168518 0.000258785 0)
(0.00161745 0.000266795 0)
(0.00154765 0.00027451 0)
(0.00147588 0.000281916 0)
(0.00140221 0.000288998 0)
(0.00132673 0.000295743 0)
(0.00124953 0.000302136 0)
(0.0011707 0.000308165 0)
(0.00109034 0.000313817 0)
(0.00100855 0.000319082 0)
(0.000925426 0.000323948 0)
(0.000841081 0.000328405 0)
(0.000755619 0.000332443 0)
(0.000669152 0.000336055 0)
(0.000581794 0.000339231 0)
(0.000493659 0.000341967 0)
(0.000404863 0.000344256 0)
(0.000315524 0.000346092 0)
(0.000225762 0.000347473 0)
(0.000135698 0.000348395 0)
(4.54533e-05 0.000348857 0)
(-4.48556e-05 0.000348857 0)
(-0.0001351 0.000348397 0)
(-0.000225165 0.000347477 0)
(-0.000314928 0.000346097 0)
(-0.000404268 0.000344262 0)
(-0.000493065 0.000341975 0)
(-0.000581202 0.00033924 0)
(-0.000668563 0.000336064 0)
(-0.000755031 0.000332454 0)
(-0.000840495 0.000328417 0)
(-0.000924843 0.000323962 0)
(-0.00100797 0.000319098 0)
(-0.00108976 0.000313834 0)
(-0.00117013 0.000308183 0)
(-0.00124896 0.000302155 0)
(-0.00132616 0.000295763 0)
(-0.00140165 0.00028902 0)
(-0.00147532 0.000281938 0)
(-0.00154709 0.000274533 0)
(-0.00161689 0.000266819 0)
(-0.00168463 0.00025881 0)
(-0.00175025 0.000250522 0)
(-0.00181366 0.000241971 0)
(-0.0018748 0.000233172 0)
(-0.00193362 0.000224142 0)
(-0.00199006 0.000214897 0)
(-0.00204406 0.000205453 0)
(-0.00209557 0.000195826 0)
(-0.00214456 0.000186034 0)
(-0.00219097 0.000176092 0)
(-0.00223478 0.000166017 0)
(-0.00227596 0.000155825 0)
(-0.00231448 0.000145532 0)
(-0.00235032 0.000135155 0)
(-0.00238345 0.000124708 0)
(-0.00241387 0.000114207 0)
(-0.00244156 0.000103667 0)
(-0.00246652 9.31026e-05 0)
(-0.00248874 8.25286e-05 0)
(-0.00250823 7.19586e-05 0)
(-0.00252499 6.14059e-05 0)
(-0.00253904 5.08843e-05 0)
(-0.00255037 4.04063e-05 0)
(-0.00255901 2.9984e-05 0)
(-0.00256498 1.96301e-05 0)
(-0.00256829 9.35658e-06 0)
(-0.00256896 -8.26134e-07 0)
(-0.00256704 -1.09092e-05 0)
(-0.00256253 -2.0884e-05 0)
(-0.00255549 -3.07403e-05 0)
(-0.00254592 -4.04684e-05 0)
(-0.00253389 -5.00605e-05 0)
(-0.00251941 -5.9509e-05 0)
(-0.00250253 -6.88062e-05 0)
(-0.00248329 -7.79458e-05 0)
(-0.00246174 -8.69215e-05 0)
(-0.00243791 -9.57274e-05 0)
(-0.00241186 -0.000104358 0)
(-0.00238362 -0.000112809 0)
(-0.00235326 -0.000121075 0)
(-0.00232081 -0.000129152 0)
(-0.00228633 -0.000137036 0)
(-0.00224987 -0.000144724 0)
(-0.00221147 -0.000152212 0)
(-0.0021712 -0.000159499 0)
(-0.0021291 -0.000166582 0)
(-0.00208522 -0.00017346 0)
(-0.00203963 -0.000180131 0)
(-0.00199236 -0.000186593 0)
(-0.00194349 -0.000192845 0)
(-0.00189305 -0.000198887 0)
(-0.00184112 -0.000204718 0)
(-0.00178773 -0.000210336 0)
(-0.00173294 -0.000215743 0)
(-0.00167682 -0.000220937 0)
(-0.0016194 -0.000225918 0)
(-0.00156075 -0.000230688 0)
(-0.00150092 -0.000235247 0)
(-0.00143996 -0.000239595 0)
(-0.00137793 -0.000243734 0)
(-0.00131489 -0.000247664 0)
(-0.00125087 -0.000251385 0)
(-0.00118595 -0.000254896 0)
(-0.00112016 -0.000258199 0)
(-0.00105357 -0.000261294 0)
(-0.000986217 -0.000264184 0)
(-0.000918164 -0.000266869 0)
(-0.000849459 -0.00026935 0)
(-0.000780154 -0.000271628 0)
(-0.0007103 -0.000273702 0)
(-0.000639947 -0.000275574 0)
(-0.000569147 -0.000277242 0)
(-0.000497949 -0.000278708 0)
(-0.000426406 -0.000279971 0)
(-0.000354571 -0.000281027 0)
(-0.000282487 -0.000281799 0)
(-0.000210182 -0.000281704 0)
(-0.000138063 -0.000277162 0)
(-6.90631e-05 -0.000251198 0)
(-1.09022e-05 -0.00014599 0)
(1.08494e-05 -0.000187014 0)
(6.90169e-05 -0.000317405 0)
(0.000138784 -0.000347703 0)
(0.000211532 -0.000352685 0)
(0.000284272 -0.000352932 0)
(0.000356654 -0.000352279 0)
(0.000428701 -0.000351231 0)
(0.000500417 -0.000349848 0)
(0.000571779 -0.00034815 0)
(0.00064275 -0.000346156 0)
(0.000713284 -0.000343878 0)
(0.000783331 -0.000341325 0)
(0.000852839 -0.000338504 0)
(0.000921756 -0.000335418 0)
(0.000990029 -0.000332069 0)
(0.0010576 -0.000328459 0)
(0.00112443 -0.000324587 0)
(0.00119045 -0.000320453 0)
(0.00125562 -0.000316057 0)
(0.00131988 -0.0003114 0)
(0.00138317 -0.000306479 0)
(0.00144545 -0.000301295 0)
(0.00150666 -0.000295846 0)
(0.00156674 -0.000290133 0)
(0.00162565 -0.000284154 0)
(0.00168332 -0.000277909 0)
(0.0017397 -0.000271397 0)
(0.00179475 -0.00026462 0)
(0.0018484 -0.000257577 0)
(0.00190059 -0.000250267 0)
(0.00195129 -0.000242692 0)
(0.00200042 -0.000234853 0)