/*--------------------------------*- C++ -*----------------------------------*\
| =========                 |                                                 |
| \\      /  F ield         | OpenFOAM: The Open Source CFD Toolbox           |
|  \\    /   O peration     | Version:  2412                                  |
|   \\  /    A nd           | Website:  www.openfoam.com                      |
|    \\/     M anipulation  |                                                 |
\*---------------------------------------------------------------------------*/
FoamFile
{
    version     2.0;
    format      ascii;
    arch        "LSB;label=32;scalar=64";
    class       surfaceScalarField;
    location    "1.24";
    object      alphaPhi0.water;
}
// * * * * * * * * * * * * * * * * * * * * * * * * * * * * * * * * * * * * * //

dimensions      [0 3 -1 0 0 0 0];

oriented        oriented;

internalField   nonuniform List<scalar> 
79600
(
4.07603e-195
-1.31711e-191
3.27144e-185
-3.79705e-182
7.19853e-184
-4.9497e-181
1.46988e-183
-7.00601e-181
1.97197e-183
-7.12202e-181
2.32454e-183
-6.74443e-181
2.55169e-183
-6.18889e-181
2.65992e-183
-5.54695e-181
2.65861e-183
-4.86727e-181
2.56208e-183
-4.18428e-181
2.38819e-183
-3.52379e-181
2.15696e-183
-2.90533e-181
1.88933e-183
-2.34325e-181
1.60541e-183
-1.84685e-181
1.32321e-183
-1.42082e-181
1.0574e-183
-1.06558e-181
8.18642e-184
-7.77968e-182
6.13622e-184
-5.52279e-182
4.44902e-184
-3.80688e-182
3.11627e-184
-2.54364e-182
2.10595e-184
-1.64471e-182
1.37133e-184
-1.02745e-182
8.59353e-185
-6.19157e-183
5.17377e-185
-3.59239e-183
2.98477e-185
-2.00131e-183
1.64385e-185
-1.06651e-183
8.60573e-186
-5.41368e-184
4.2595e-186
-2.60413e-184
1.9845e-186
-1.18222e-184
8.65742e-187
-5.03917e-185
3.51675e-187
-2.00481e-185
1.32361e-187
-7.40352e-186
4.60573e-188
-2.53026e-186
1.48187e-188
-7.99798e-187
4.40429e-189
-2.33553e-187
1.19988e-189
-6.25547e-188
2.96019e-190
-1.5196e-188
6.52793e-191
-3.3056e-189
1.27455e-191
-6.37314e-190
2.19509e-192
-1.08374e-190
3.32911e-193
-1.62138e-191
4.42871e-194
-2.12507e-192
5.13403e-195
-2.42306e-193
5.15225e-196
-2.38586e-194
4.45383e-197
-2.01637e-195
3.30527e-198
-1.45553e-196
2.10039e-199
-8.9328e-198
1.1397e-200
-4.63331e-199
5.25746e-202
-2.01154e-200
2.04502e-203
-7.17487e-202
6.59625e-205
-2.01645e-203
1.69892e-206
-3.95294e-205
3.14493e-208
-2.41296e-207
5.00079e-210
3.9166e-213
7.80107e-212
1.41913e-214
1.19366e-213
3.42409e-216
1.79091e-215
7.03581e-218
2.63358e-217
1.31756e-219
3.79379e-219
2.31235e-221
5.35064e-221
3.85686e-223
7.38363e-223
6.16183e-225
9.9625e-225
9.4735e-227
1.31334e-226
1.40569e-228
1.69025e-228
2.0166e-230
2.12187e-230
2.79997e-232
2.59585e-232
3.7646e-234
3.0918e-234
4.90207e-236
3.58149e-236
6.18119e-238
4.03044e-238
7.54458e-240
4.40113e-240
8.90891e-242
4.65743e-242
1.017e-243
4.7699e-244
1.12133e-245
4.7208e-246
1.19289e-247
4.508e-248
1.22291e-249
4.14644e-250
1.2065e-251
3.66687e-252
1.14378e-253
3.1116e-254
1.0402e-255
2.52821e-256
9.05845e-258
1.96232e-258
7.5383e-260
1.45128e-260
5.98149e-262
1.0199e-262
4.51441e-264
6.78993e-265
3.23209e-266
4.26788e-267
2.18862e-268
2.52335e-269
1.39712e-270
1.39747e-271
8.3768e-273
7.21527e-274
4.69792e-275
3.45439e-276
2.45293e-277
1.52406e-278
1.18602e-279
6.1518e-281
5.27777e-282
2.25242e-283
2.14601e-284
7.40394e-286
7.90546e-287
2.15742e-288
2.61137e-289
5.48416e-291
7.63754e-292
1.19105e-293
1.94644e-294
2.14813e-296
4.23326e-297
3.08812e-299
7.63705e-300
3.31717e-302
1.09694e-302
2.36721e-305
1.17592e-305
8.4335e-309
8.36462e-309
2.08504e-314
2.96637e-312
-9.47471e-309
3.34789e-312
-2.6871e-305
9.53022e-309
-3.77944e-302
1.34423e-305
-3.52421e-299
1.25568e-302
-2.45307e-296
8.74643e-300
-1.36026e-293
4.84804e-297
-6.26178e-291
2.22832e-294
-2.46218e-288
8.73866e-292
-8.44465e-286
2.98573e-289
-2.56716e-283
9.03141e-287
-7.00575e-281
2.44948e-284
-1.73411e-278
6.01847e-282
-3.92686e-276
1.35116e-279
-8.19428e-274
2.79171e-277
-1.58552e-271
5.3414e-275
-2.86001e-269
9.5144e-273
-4.83233e-267
1.58519e-270
-7.6799e-265
2.48057e-268
-1.15236e-262
3.65922e-266
-1.63801e-260
5.10536e-264
-2.2124e-258
6.75698e-262
-2.84728e-256
8.50623e-260
-3.50039e-254
1.02103e-257
-4.12035e-252
1.17118e-255
-4.65385e-250
1.28634e-253
-5.0537e-248
1.35531e-251
-5.28592e-246
1.37213e-249
-5.33434e-244
1.33684e-247
-5.20203e-242
1.25512e-245
-4.90943e-240
1.13692e-243
-4.48999e-238
9.94659e-242
-3.98443e-236
8.41242e-240
-3.43485e-234
6.88319e-238
-2.87972e-232
5.45151e-236
-2.35043e-230
4.18088e-234
-1.86947e-228
3.10535e-232
-1.45032e-226
2.2334e-230
-1.09838e-224
1.55452e-228
-8.12708e-223
1.04608e-226
-5.87931e-221
6.79384e-225
-4.16125e-219
4.24588e-223
-2.88334e-217
2.5416e-221
-1.95696e-215
1.44601e-219
-1.30164e-213
7.71036e-218
-8.48779e-212
3.74721e-216
-5.42773e-210
1.55219e-214
-3.40425e-208
4.30277e-213
-1.84087e-206
-2.53039e-207
-7.13676e-205
-4.26805e-205
-2.20649e-203
-2.17913e-203
-5.65162e-202
-7.73717e-202
-1.21968e-200
-2.16172e-200
-2.23631e-199
-4.95779e-199
-3.49957e-198
-9.5098e-198
-4.68822e-197
-1.54081e-196
-5.3916e-196
-2.12197e-195
-5.34188e-195
-2.49612e-194
-4.58331e-194
-2.52064e-193
-3.42838e-193
-2.19878e-192
-2.25035e-192
-1.66932e-191
-1.30116e-191
-1.11072e-190
-6.63841e-191
-6.50419e-190
-3e-190
-3.3604e-189
-1.2125e-189
-1.53951e-188
-4.43971e-189
-6.31935e-188
-1.49071e-188
-2.35363e-187
-4.62554e-188
-8.04332e-187
-1.32735e-187
-2.54038e-186
-3.52214e-187
-7.42218e-186
-8.66107e-187
-2.00724e-185
-1.98345e-186
-5.03958e-185
-4.25375e-186
-1.18119e-184
-8.58779e-186
-2.59964e-184
-1.63926e-185
-5.40021e-184
-2.97448e-185
-1.06307e-183
-5.15324e-185
-1.9935e-183
-8.55652e-185
-3.57636e-183
-1.36522e-184
-6.16151e-183
-2.09648e-184
-1.02225e-182
-3.10243e-184
-1.63623e-182
-4.42973e-184
-2.53045e-182
-6.1104e-184
-3.78718e-182
-8.15303e-184
-5.49438e-182
-1.05325e-183
-7.73984e-182
-1.31834e-183
-1.06012e-181
-1.60006e-183
-1.41365e-181
-1.88399e-183
-1.8378e-181
-2.15245e-183
-2.33222e-181
-2.3856e-183
-2.89271e-181
-2.56289e-183
-3.51041e-181
-2.66494e-183
-4.1716e-181
-2.67547e-183
-4.85837e-181
-2.58306e-183
-5.54938e-181
-2.38151e-183
-6.22087e-181
-2.06195e-183
-6.84438e-181
-1.57589e-183
-7.35079e-181
-7.75112e-184
-7.38075e-181
-3.25265e-185
-5.21693e-181
-3.20964e-195
-3.71049e-182
-1.04712e-191
2.89537e-191
-4.28095e-188
1.12691e-181
-6.30919e-179
2.15622e-180
-7.4028e-178
4.18384e-180
-1.01727e-177
5.47314e-180
-1.022e-177
6.37621e-180
-9.64889e-178
6.97435e-180
-8.87368e-178
7.27818e-180
-7.99356e-178
7.3026e-180
-7.06073e-178
7.07707e-180
-6.11645e-178
6.64287e-180
-5.19476e-178
6.04908e-180
-4.32314e-178
5.34846e-180
-3.52259e-178
4.59291e-180
-2.80752e-178
3.83013e-180
-2.18626e-178
3.10037e-180
-1.66135e-178
2.43425e-180
-1.23028e-178
1.85269e-180
-8.8686e-179
1.36561e-180
-6.21447e-179
9.73587e-181
-4.22571e-179
6.70456e-181
-2.78354e-179
4.45397e-181
-1.77331e-179
2.85076e-181
-1.0909e-179
1.75509e-181
-6.46822e-180
1.03674e-181
-3.68651e-180
5.85521e-182
-2.01246e-180
3.14899e-182
-1.0481e-180
1.60476e-182
-5.18291e-181
7.71935e-183
-2.42514e-181
3.48767e-183
-1.06847e-181
1.47165e-183
-4.40578e-182
5.7689e-184
-1.69022e-182
2.09516e-184
-6.01173e-183
7.04741e-185
-1.98013e-183
2.19362e-185
-6.03284e-184
6.27547e-186
-1.68895e-184
1.63225e-186
-4.30101e-185
3.81282e-187
-9.84123e-186
7.92119e-188
-2.00172e-186
1.45745e-188
-3.59976e-187
2.37095e-189
-5.70812e-188
3.39895e-190
-7.94755e-189
4.26954e-191
-9.64861e-190
4.6724e-192
-1.0138e-190
4.43742e-193
-9.16443e-192
3.65066e-194
-7.09588e-193
2.60111e-195
-4.68827e-194
1.60632e-196
-2.6316e-195
8.60917e-198
-1.24642e-196
4.00981e-199
-4.91728e-198
1.62415e-200
-1.57054e-199
5.71547e-202
-3.76221e-201
1.7396e-203
-4.83662e-203
4.77139e-205
3.05236e-208
1.27892e-206
2.85203e-209
3.34925e-208
1.28473e-210
8.56709e-210
4.67869e-212
2.1397e-211
1.52146e-213
5.21596e-213
4.584e-215
1.24046e-214
1.30235e-216
2.87664e-216
3.52281e-218
6.50123e-218
9.12465e-220
1.43104e-219
2.27116e-221
3.06588e-221
5.44439e-223
6.38834e-223
1.25869e-224
1.29359e-224
2.80862e-226
2.54329e-226
6.05089e-228
4.85028e-228
1.25865e-229
8.96316e-230
2.52724e-231
1.60321e-231
4.89602e-233
2.77223e-233
9.14561e-235
4.62823e-235
1.64589e-236
7.4497e-237
2.85093e-238
1.15438e-238
4.74767e-240
1.71924e-240
7.59159e-242
2.45665e-242
1.16392e-243
3.3616e-244
1.70833e-245
4.39593e-246
2.39615e-247
5.48128e-248
3.20561e-249
6.50092e-250
4.08167e-251
7.31409e-252
4.93484e-253
7.78302e-254
5.65048e-255
7.80745e-256
6.10967e-257
7.35607e-258
6.21826e-259
6.48285e-260
5.93561e-261
5.3191e-262
5.29219e-263
4.04149e-264
4.38699e-265
2.82616e-266
3.36321e-267
1.80582e-268
2.36994e-269
1.04536e-270
1.52404e-271
5.42623e-273
8.86825e-274
2.49384e-275
4.62163e-276
9.98686e-278
2.12998e-278
3.41288e-280
8.54353e-281
9.67407e-283
2.92096e-283
2.18313e-285
8.27384e-286
3.67663e-288
1.86367e-288
4.10794e-291
3.12916e-291
2.28707e-294
3.48162e-294
6.65674e-300
1.92786e-297
-2.55693e-294
2.16073e-297
-4.63177e-291
3.93387e-294
-4.15948e-288
3.54696e-291
-2.47412e-285
2.11593e-288
-1.09737e-282
9.40179e-286
-3.87317e-280
3.32052e-283
-1.13356e-277
9.71338e-281
-2.83052e-275
2.42144e-278
-6.15758e-273
5.25284e-276
-1.18588e-270
1.0076e-273
-2.04773e-268
1.73086e-271
-3.20321e-266
2.69021e-269
-4.57817e-264
3.8156e-267
-6.02182e-262
4.97408e-265
-7.33459e-260
5.99653e-263
-8.31683e-258
6.72097e-261
-8.82077e-256
7.03594e-259
-8.78653e-254
6.90785e-257
-8.25062e-252
6.38365e-255
-7.32733e-250
5.57062e-253
-6.17284e-248
4.60367e-251
-4.94623e-246
3.61248e-249
-3.77902e-244
2.69791e-247
-2.75913e-242
1.92175e-245
-1.92908e-240
1.30812e-243
-1.29401e-238
8.52394e-242
-8.34245e-237
5.32554e-240
-5.17754e-235
3.19473e-238
-3.098e-233
1.84249e-236
-1.78967e-231
1.02274e-234
-9.99452e-230
5.46935e-233
-5.40224e-228
2.82015e-231
-2.8294e-226
1.403e-229
-1.43739e-224
6.73731e-228
-7.08973e-223
3.12365e-226
-3.39816e-221
1.39825e-224
-1.58405e-219
6.04091e-223
-7.18667e-218
2.51692e-221
-3.1755e-216
1.00993e-219
-1.36738e-214
3.89419e-218
-5.74109e-213
1.43786e-216
-2.35151e-211
5.05458e-215
-9.40017e-210
1.67555e-213
-3.66884e-208
5.14682e-212
-1.39853e-206
1.41222e-210
-5.2082e-205
3.13644e-209
-1.89528e-203
3.39486e-208
-6.21771e-202
-5.23074e-203
-1.76268e-200
-4.09339e-201
-4.33792e-199
-1.7072e-199
-9.27649e-198
-5.33047e-198
-1.72268e-196
-1.34583e-196
-2.77472e-195
-2.82762e-195
-3.87193e-194
-5.00943e-194
-4.67814e-193
-7.53612e-193
-4.8961e-192
-9.67183e-192
-4.44771e-191
-1.06318e-190
-3.5213e-190
-1.0057e-189
-2.44388e-189
-8.23695e-189
-1.49528e-188
-5.88518e-188
-8.09179e-188
-3.69362e-187
-3.87966e-187
-2.04478e-186
-1.65518e-186
-1.00127e-185
-6.34538e-186
-4.36086e-185
-2.21265e-185
-1.70755e-184
-7.09384e-185
-6.0844e-184
-2.10543e-184
-1.99285e-183
-5.78859e-184
-6.04003e-183
-1.47476e-183
-1.69562e-182
-3.49108e-183
-4.41406e-182
-7.71946e-183
-1.06926e-181
-1.60348e-182
-2.42457e-181
-3.14431e-182
-5.17746e-181
-5.84278e-182
-1.04626e-180
-1.03396e-181
-2.00764e-180
-1.74962e-181
-3.67553e-180
-2.84107e-181
-6.44595e-180
-4.43813e-181
-1.0868e-179
-6.6803e-181
-1.7663e-179
-9.70094e-181
-2.77224e-179
-1.36085e-180
-4.20845e-179
-1.84654e-180
-6.18948e-179
-2.42668e-180
-8.83388e-179
-3.09156e-180
-1.22564e-178
-3.82061e-180
-1.6554e-178
-4.58372e-180
-2.17897e-178
-5.3412e-180
-2.79916e-178
-6.04612e-180
-3.51379e-178
-6.64729e-180
-4.31527e-178
-7.09279e-180
-5.19e-178
-7.3348e-180
-6.11845e-178
-7.3342e-180
-7.07584e-178
-7.06466e-180
-8.03317e-178
-6.51288e-180
-8.95935e-178
-5.65743e-180
-9.81787e-178
-4.36882e-180
-1.05181e-177
-2.22162e-180
-1.0577e-177
-1.0671e-181
-7.61418e-178
-2.25482e-191
-6.02574e-179
-3.44664e-188
3.44869e-188
-4.26764e-185
7.3746e-179
-3.43127e-176
1.29987e-177
-3.72323e-175
2.46869e-177
-5.03224e-175
3.19613e-177
-5.02351e-175
3.70747e-177
-4.73639e-175
4.05524e-177
-4.36501e-175
4.24394e-177
-3.94915e-175
4.27842e-177
-3.50866e-175
4.17183e-177
-3.06059e-175
3.94459e-177
-2.62005e-175
3.62222e-177
-2.19983e-175
3.23298e-177
-1.81011e-175
2.80544e-177
-1.45828e-175
2.36657e-177
-1.14901e-175
1.93985e-177
-8.84356e-176
1.54394e-177
-6.63995e-176
1.19255e-177
-4.85853e-176
8.93079e-178
-3.45958e-176
6.47585e-178
-2.39305e-176
4.54051e-178
-1.60519e-176
3.07424e-178
-1.04238e-176
2.00744e-178
-6.54266e-177
1.26215e-178
-3.96182e-177
7.62221e-179
-2.30836e-177
4.40656e-179
-1.28975e-177
2.42963e-179
-6.88502e-178
1.27184e-179
-3.4964e-178
6.30025e-180
-1.6844e-178
2.93958e-180
-7.66243e-179
1.28434e-180
-3.27105e-179
5.22481e-181
-1.3021e-179
1.97259e-181
-4.81342e-180
6.90563e-182
-1.64949e-180
2.23971e-182
-5.23347e-181
6.68784e-183
-1.52812e-181
1.8207e-183
-4.06956e-182
4.46592e-184
-9.76853e-183
9.76955e-185
-2.08974e-183
1.89686e-185
-3.95949e-184
3.26252e-186
-6.62457e-185
4.95445e-187
-9.74563e-186
6.60451e-188
-1.25156e-186
7.68257e-189
-1.39203e-187
7.76725e-190
-1.33246e-188
6.81371e-191
-1.0926e-189
5.18668e-192
-7.64548e-191
3.43071e-193
-4.54615e-192
1.97648e-194
-2.28284e-193
9.94842e-196
-9.57078e-195
4.39036e-197
-3.26928e-196
1.70501e-198
-8.54139e-198
5.84714e-200
-1.33495e-199
1.8131e-201
1.05925e-204
5.48128e-203
1.64819e-205
1.61551e-204
8.81552e-207
4.64146e-206
3.6852e-208
1.2997e-207
1.35966e-209
3.54622e-209
4.61983e-211
9.42514e-211
1.47449e-212
2.43915e-212
4.46807e-214
6.14349e-214
1.29358e-215
1.50515e-215
3.59214e-217
3.58477e-217
9.59103e-219
8.29387e-219
2.466e-220
1.86265e-220
6.11115e-222
4.05709e-222
1.46031e-223
8.5627e-224
3.36513e-225
1.74938e-225
7.47688e-227
3.45599e-227
1.60114e-228
6.59432e-229
3.30275e-230
1.21376e-230
6.55743e-232
2.15218e-232
1.252e-233
3.67088e-234
2.29628e-235
6.01346e-236
4.04078e-237
9.44489e-238
6.81284e-239
1.41965e-239
1.09887e-240
2.03797e-241
1.69269e-242
2.78796e-243
2.4854e-244
3.62572e-245
3.47129e-246
4.47056e-247
4.60101e-248
5.21088e-249
5.77245e-250
5.72294e-251
6.83541e-252
5.90062e-253
7.61503e-254
5.68801e-255
7.95274e-256
5.10248e-257
7.75416e-258
4.23688e-259
7.02617e-260
3.23653e-261
5.88534e-262
2.25818e-263
4.52933e-264
1.42684e-265
3.17976e-266
8.08097e-268
2.01909e-268
4.05062e-270
1.14778e-270
1.7685e-272
5.76785e-273
6.58651e-275
2.52162e-275
2.03396e-277
9.39301e-278
4.99866e-280
2.89774e-280
9.16451e-283
7.10609e-283
1.11434e-285
1.2985e-285
6.74953e-289
1.5718e-288
2.15456e-294
9.46598e-292
-7.56353e-289
1.06305e-291
-1.25981e-285
1.78028e-288
-1.03986e-282
1.47589e-285
-5.68285e-280
8.09191e-283
-2.31496e-277
3.30325e-280
-7.50126e-275
1.07139e-277
-2.01476e-272
2.87705e-275
-4.61511e-270
6.58134e-273
-9.20653e-268
1.30955e-270
-1.62527e-265
2.30319e-268
-2.57145e-263
3.62607e-266
-3.68413e-261
5.16309e-264
-4.82064e-259
6.70579e-262
-5.80254e-257
8.00156e-260
-6.46476e-255
8.82562e-258
-6.70232e-253
9.04613e-256
-6.49626e-251
8.65639e-254
-5.91091e-249
7.76484e-252
-5.06743e-247
6.55264e-250
-4.10663e-245
5.21895e-248
-3.15523e-243
3.93443e-246
-2.30451e-241
2.81471e-244
-1.60393e-239
1.91535e-242
-1.06613e-237
1.24233e-240
-6.78165e-236
7.69535e-239
-4.13585e-234
4.55995e-237
-2.42238e-232
2.58882e-235
-1.36475e-230
1.41011e-233
-7.40685e-229
7.37808e-232
-3.87764e-227
3.71224e-230
-1.96064e-225
1.79775e-228
-9.58578e-224
8.38588e-227
-4.53654e-222
3.77007e-225
-2.08028e-220
1.63419e-223
-9.25156e-219
6.83092e-222
-3.99368e-217
2.75322e-220
-1.67468e-215
1.06954e-218
-6.82636e-214
4.00094e-217
-2.70656e-212
1.43901e-215
-1.04436e-210
4.9642e-214
-3.92368e-209
1.63618e-212
-1.43585e-207
5.12002e-211
-5.11959e-206
1.50501e-209
-1.77899e-204
4.07466e-208
-6.02564e-203
9.74037e-207
-1.98961e-201
1.82244e-205
-6.40453e-200
1.19549e-204
-1.86409e-198
-1.4582e-199
-4.78708e-197
-9.35751e-198
-1.08091e-195
-3.57566e-196
-2.13812e-194
-1.04331e-194
-3.69232e-193
-2.47741e-193
-5.55023e-192
-4.9069e-192
-7.24629e-191
-8.20164e-191
-8.20738e-190
-1.16435e-189
-8.06575e-189
-1.41026e-188
-6.89088e-188
-1.46327e-187
-5.13932e-187
-1.30702e-186
-3.36631e-186
-1.0116e-185
-1.9477e-185
-6.83855e-185
-9.98637e-185
-4.0668e-184
-4.54666e-184
-2.1364e-183
-1.84722e-183
-9.9455e-183
-6.76576e-183
-4.12888e-182
-2.26026e-182
-1.54594e-181
-6.95421e-182
-5.2815e-181
-1.98305e-181
-1.66103e-180
-5.24457e-181
-4.83859e-180
-1.2875e-180
-1.3069e-179
-2.94343e-180
-3.27878e-179
-6.30242e-180
-7.67177e-179
-1.27126e-179
-1.68483e-178
-2.42692e-179
-3.49454e-178
-4.39898e-179
-6.8768e-178
-7.6052e-179
-1.28743e-177
-1.25883e-178
-2.303e-177
-2.00161e-178
-3.95099e-177
-3.06482e-178
-6.52296e-177
-4.52623e-178
-1.03906e-176
-6.45553e-178
-1.59992e-176
-8.90358e-178
-2.38518e-176
-1.18911e-177
-3.44848e-176
-1.53985e-177
-4.84367e-176
-1.93528e-177
-6.62103e-176
-2.36188e-177
-8.82079e-176
-2.80129e-177
-1.14644e-175
-3.23026e-177
-1.4557e-175
-3.62217e-177
-1.80801e-175
-3.94876e-177
-2.19902e-175
-4.18205e-177
-2.62179e-175
-4.29686e-177
-3.06681e-175
-4.27314e-177
-3.52233e-175
-4.0981e-177
-3.97505e-175
-3.76597e-177
-4.41077e-175
-3.26609e-177
-4.81322e-175
-2.5274e-177
-5.14093e-175
-1.30644e-177
-5.1691e-175
-6.89258e-179
-3.76828e-175
-2.76937e-188
-3.25519e-176
-3.52508e-185
1.95164e-185
-2.2827e-182
2.33993e-176
-1.01195e-173
3.86333e-175
-1.02398e-172
7.26602e-175
-1.36952e-172
9.37791e-175
-1.3632e-172
1.08745e-174
-1.28548e-172
1.19173e-174
-1.18754e-172
1.25185e-174
-1.0789e-172
1.26854e-174
-9.63863e-173
1.24481e-174
-8.46381e-173
1.18576e-174
-7.30129e-173
1.09807e-174
-6.18353e-173
9.89367e-175
-5.13734e-173
8.67544e-175
-4.18302e-173
7.40266e-175
-3.3345e-173
6.14417e-175
-2.59923e-173
4.95691e-175
-1.97857e-173
3.88538e-175
-1.46951e-173
2.95603e-175
-1.06332e-173
2.1799e-175
-7.48232e-174
1.556e-175
-5.11096e-174
1.07359e-175
-3.38319e-174
7.15067e-176
-2.16663e-174
4.59016e-176
-1.33982e-174
2.83297e-176
-7.97972e-175
1.67575e-176
-4.56251e-175
9.46726e-177
-2.49592e-175
5.08747e-177
-1.30132e-175
2.5937e-177
-6.45345e-176
1.24901e-177
-3.03094e-176
5.64716e-178
-1.33957e-176
2.38262e-178
-5.53352e-177
9.34452e-179
-2.12624e-177
3.40164e-179
-7.58062e-178
1.14825e-179
-2.50426e-178
3.57377e-180
-7.62411e-179
1.01675e-180
-2.12297e-179
2.61431e-181
-5.34621e-180
6.00977e-182
-1.20301e-180
1.22823e-182
-2.40148e-181
2.22649e-183
-4.23828e-182
3.56808e-184
-6.58577e-183
5.02416e-185
-8.94294e-184
6.17584e-186
-1.05227e-184
6.59798e-187
-1.06556e-185
6.11395e-188
-9.24001e-187
4.91293e-189
-6.83279e-188
3.42745e-190
-4.28966e-189
2.08065e-191
-2.27216e-190
1.10256e-192
-1.00439e-191
5.11981e-194
-3.62173e-193
2.0924e-195
-1.00587e-194
7.56097e-197
-1.74306e-196
2.45546e-198
1.2617e-201
7.76382e-200
3.01924e-202
2.39029e-201
1.74589e-203
7.16587e-203
7.71553e-205
2.09168e-204
2.98801e-206
5.94365e-206
1.06191e-207
1.64368e-207
3.53701e-209
4.42202e-209
1.11665e-210
1.15683e-210
3.36349e-212
2.94123e-212
9.70572e-214
7.26345e-214
2.68998e-215
1.74109e-215
7.17232e-217
4.04806e-217
1.84155e-218
9.12167e-219
4.55559e-220
1.99032e-220
1.08597e-221
4.20128e-222
2.49432e-223
8.57042e-224
5.5183e-225
1.68771e-225
1.17528e-226
3.20436e-227
2.40799e-228
5.85812e-229
4.74196e-230
1.02974e-230
8.96613e-232
1.7377e-232
1.62583e-233
2.8104e-234
2.82349e-235
4.34815e-236
4.68894e-237
6.42266e-238
7.43378e-239
9.03744e-240
1.12299e-240
1.20851e-241
1.61311e-242
1.5317e-243
2.19823e-244
1.83462e-245
2.83458e-246
2.06989e-247
3.44878e-248
2.19177e-249
3.94652e-250
2.16922e-251
4.23229e-252
1.99736e-253
4.23632e-254
1.70192e-255
3.9396e-256
1.33378e-257
3.38589e-258
9.54485e-260
2.67296e-260
6.18428e-262
1.92443e-262
3.59071e-264
1.25288e-264
1.84478e-266
7.30061e-267
8.25357e-269
3.75976e-269
3.14931e-271
1.68413e-271
9.96174e-274
6.42624e-274
2.50723e-276
2.03038e-276
4.70668e-279
5.09833e-279
5.8589e-282
9.5375e-282
3.63257e-285
1.18171e-284
1.22396e-290
7.28363e-288
-4.10174e-285
8.24203e-288
-6.67649e-282
1.34911e-284
-5.38386e-279
1.09285e-281
-2.87382e-276
5.85339e-279
-1.14318e-273
2.33371e-276
-3.61651e-271
7.39102e-274
-9.48129e-269
1.93759e-271
-2.11944e-266
4.32599e-269
-4.12506e-264
8.39949e-267
-7.10322e-262
1.44117e-264
-1.09599e-259
2.21297e-262
-1.53092e-257
3.07252e-260
-1.95256e-255
3.89021e-258
-2.2903e-253
4.52402e-256
-2.48591e-251
4.86191e-254
-2.51015e-249
4.85422e-252
-2.36896e-247
4.52341e-250
-2.09817e-245
3.95009e-248
-1.7504e-243
3.24418e-246
-1.37995e-241
2.51391e-244
-1.03108e-239
1.84324e-242
-7.32122e-238
1.2821e-240
-4.95196e-236
8.47954e-239
-3.19764e-234
5.34364e-237
-1.97521e-232
3.21466e-235
-1.1693e-230
1.84926e-233
-6.64506e-229
1.01879e-231
-3.63088e-227
5.38253e-230
-1.91022e-225
2.73034e-228
-9.68922e-224
1.33115e-226
-4.7441e-222
6.24307e-225
-2.24474e-220
2.81864e-223
-1.02748e-218
1.2257e-221
-4.55394e-217
5.13546e-220
-1.95609e-215
2.07336e-218
-8.14934e-214
8.06488e-217
-3.29539e-212
3.02082e-215
-1.29429e-210
1.08852e-213
-4.94027e-209
3.76722e-212
-1.83357e-207
1.24901e-210
-6.62015e-206
3.95096e-209
-2.32606e-204
1.18462e-207
-7.9557e-203
3.32898e-206
-2.6492e-201
8.58601e-205
-8.58939e-200
1.94139e-203
-2.7115e-198
3.36002e-202
-8.33314e-197
1.45255e-201
-2.30117e-195
-1.91959e-196
-5.61357e-194
-1.1096e-194
-1.20412e-192
-3.98633e-193
-2.26133e-191
-1.10124e-191
-3.70414e-190
-2.47869e-190
-5.27624e-189
-4.65143e-189
-6.52195e-188
-7.3591e-188
-6.98945e-187
-9.8799e-187
-6.49712e-186
-1.13089e-185
-5.25056e-185
-1.10858e-184
-3.70603e-184
-9.35563e-184
-2.29971e-183
-6.84555e-183
-1.26217e-182
-4.38008e-182
-6.14695e-182
-2.46875e-181
-2.6629e-181
-1.23071e-180
-1.03204e-180
-5.44609e-180
-3.61705e-180
-2.15503e-179
-1.15928e-179
-7.71706e-179
-3.42683e-179
-2.52847e-178
-9.39707e-179
-7.63691e-178
-2.39231e-178
-2.13816e-177
-5.66259e-178
-5.55584e-177
-1.25098e-177
-1.34319e-176
-2.5953e-177
-3.03568e-176
-5.08658e-177
-6.4574e-176
-9.45949e-177
-1.30112e-175
-1.67339e-176
-2.49393e-175
-2.82759e-176
-4.55618e-175
-4.57968e-176
-7.96476e-175
-7.13247e-176
-1.3368e-174
-1.07068e-175
-2.16117e-174
-1.55165e-175
-3.37412e-174
-2.1738e-175
-5.09682e-174
-2.94799e-175
-7.46166e-174
-3.87544e-175
-1.06048e-173
-4.94534e-175
-1.46582e-173
-6.13164e-175
-1.97407e-173
-7.3903e-175
-2.59409e-173
-8.66509e-175
-3.32917e-173
-9.88779e-175
-4.17839e-173
-1.09824e-174
-5.13488e-173
-1.18706e-174
-6.18548e-173
-1.24763e-174
-7.31091e-173
-1.2733e-174
-8.48578e-173
-1.25894e-174
-9.67966e-173
-1.20145e-174
-1.08587e-172
-1.0997e-174
-1.19876e-172
-9.51048e-175
-1.30261e-172
-7.35891e-175
-1.3869e-172
-3.84709e-175
-1.39368e-172
-2.19976e-176
-1.02677e-172
-1.62869e-185
-9.61389e-174
-1.93477e-182
7.16624e-183
-8.05458e-180
4.78976e-174
-1.95895e-171
7.41395e-173
-1.85e-170
1.38566e-172
-2.45479e-170
1.78849e-172
-2.44163e-170
2.07744e-172
-2.30553e-170
2.28353e-172
-2.13607e-170
2.40905e-172
-1.949e-170
2.45448e-172
-1.75078e-170
2.42423e-172
-1.54751e-170
2.3266e-172
-1.34513e-170
2.17291e-172
-1.14903e-170
1.97645e-172
-9.6384e-171
1.75137e-172
-7.93177e-171
1.51173e-172
-6.397e-171
1.27058e-172
-5.05031e-171
1.03912e-172
-3.89784e-171
8.26635e-173
-2.93886e-171
6.3901e-173
-2.16132e-171
4.79319e-173
-1.54747e-171
3.48361e-173
-1.07665e-171
2.44975e-173
-7.26651e-172
1.66454e-173
-4.74911e-172
1.09101e-173
-2.9997e-172
6.88181e-174
-1.82644e-172
4.16492e-174
-1.06872e-172
2.41084e-174
-5.99138e-173
1.32984e-174
-3.20721e-173
6.97768e-175
-1.63742e-173
3.46835e-175
-7.94162e-174
1.62312e-175
-3.63514e-174
7.10466e-176
-1.55905e-174
2.89554e-176
-6.23053e-175
1.09631e-176
-2.31226e-175
3.85191e-177
-7.95591e-176
1.24956e-177
-2.52612e-176
3.71574e-178
-7.35823e-177
1.0019e-178
-1.94555e-177
2.42148e-179
-4.60959e-178
5.21117e-180
-9.704e-179
9.95894e-181
-1.80813e-179
1.6846e-181
-2.9705e-180
2.5062e-182
-4.27015e-181
3.25605e-183
-5.32241e-182
3.67591e-184
-5.70967e-183
3.59712e-185
-5.24318e-184
3.0492e-186
-4.10279e-185
2.24069e-187
-2.72254e-186
1.43012e-188
-1.52222e-187
7.95082e-190
-7.09385e-189
3.86467e-191
-2.69556e-190
1.64947e-192
-7.91105e-192
6.21083e-194
-1.48033e-193
2.08693e-195
8.65281e-199
6.82028e-197
3.26257e-199
2.16836e-198
1.99605e-200
6.70696e-200
9.18139e-202
2.0181e-201
3.6821e-203
5.90601e-203
1.35151e-204
1.68055e-204
4.64085e-206
4.64795e-206
1.50832e-207
1.24895e-207
4.67167e-209
3.25906e-209
1.38476e-210
8.2542e-211
3.93886e-212
2.02781e-212
1.07699e-213
4.82896e-214
2.83372e-215
1.11385e-215
7.1789e-217
2.4865e-217
1.75151e-218
5.36708e-219
4.1152e-220
1.11903e-220
9.30816e-222
2.25124e-222
2.02587e-223
4.36478e-224
4.2397e-225
8.14516e-226
8.52442e-227
1.4609e-227
1.64498e-228
2.51453e-229
3.04306e-230
4.14653e-231
5.38938e-232
6.53896e-233
9.12419e-234
9.8416e-235
1.47418e-235
1.41061e-236
2.26879e-237
1.92084e-238
3.31917e-239
2.47841e-240
4.60528e-241
3.02122e-242
6.04455e-243
3.4682e-244
7.48367e-245
3.73561e-246
8.7121e-247
3.75989e-248
9.50241e-249
3.51988e-250
9.67145e-251
3.04869e-252
9.14319e-253
2.42809e-254
7.98659e-255
1.76548e-256
6.40663e-257
1.162e-258
4.68593e-259
6.85229e-261
3.09863e-261
3.57482e-263
1.83357e-263
1.62377e-265
9.58725e-266
6.28915e-268
4.35938e-268
2.01898e-270
1.68827e-270
5.15626e-273
5.41278e-273
9.82044e-276
1.37897e-275
1.24006e-278
2.61684e-278
7.79817e-282
3.28851e-281
2.69703e-287
2.05554e-284
-8.90021e-282
2.35123e-284
-1.42842e-278
3.79531e-281
-1.13551e-275
3.03119e-278
-5.97408e-273
1.60042e-275
-2.34189e-270
6.28888e-273
-7.29965e-268
1.9627e-270
-1.88523e-265
5.06938e-268
-4.15069e-263
1.11492e-265
-7.95521e-261
2.13201e-263
-1.3487e-258
3.60203e-261
-2.04839e-256
5.44521e-259
-2.81592e-254
7.44135e-257
-3.53378e-252
9.27161e-255
-4.07753e-250
1.0608e-252
-4.35271e-248
1.12136e-250
-4.32155e-246
1.101e-248
-4.00918e-244
1.00867e-246
-3.48968e-242
8.65766e-245
-2.86031e-240
6.98701e-243
-2.21487e-238
5.31875e-241
-1.62504e-236
3.82994e-239
-1.13268e-234
2.61548e-237
-7.51831e-233
1.6978e-235
-4.76265e-231
1.04977e-233
-2.88508e-229
6.19426e-232
-1.67433e-227
3.49378e-230
-9.32451e-226
1.88654e-228
-4.99089e-224
9.76511e-227
-2.57105e-222
4.8511e-225
-1.2764e-220
2.31524e-223
-6.11399e-219
1.06246e-221
-2.82878e-217
4.69124e-220
-1.26545e-215
1.99407e-218
-5.4785e-214
8.16213e-217
-2.29725e-212
3.2174e-215
-9.33708e-211
1.2211e-213
-3.68101e-209
4.45949e-212
-1.40844e-207
1.56551e-210
-5.23309e-206
5.27368e-209
-1.88901e-204
1.70014e-207
-6.62743e-203
5.22319e-206
-2.26072e-201
1.51884e-204
-7.49999e-200
4.13211e-203
-2.42032e-198
1.02903e-201
-7.59833e-197
2.23518e-200
-2.32038e-195
3.65628e-199
-6.89112e-194
1.02505e-198
-1.82568e-192
-1.6432e-193
-4.26289e-191
-8.78886e-192
-8.73133e-190
-2.98644e-190
-1.56207e-188
-7.82459e-189
-2.43222e-187
-1.6695e-187
-3.28704e-186
-2.96604e-186
-3.84926e-185
-4.43655e-185
-3.90401e-184
-5.62496e-184
-3.43243e-183
-6.07605e-183
-2.62332e-182
-5.61911e-182
-1.75193e-181
-4.47455e-181
-1.02968e-180
-3.09166e-180
-5.35937e-180
-1.87057e-179
-2.47818e-179
-9.9839e-179
-1.02098e-178
-4.7185e-178
-3.77315e-178
-1.98281e-177
-1.26521e-177
-7.47255e-177
-3.89038e-177
-2.55803e-176
-1.10478e-176
-8.03605e-176
-2.9126e-176
-2.3302e-175
-7.13524e-176
-6.26721e-175
-1.62792e-175
-1.56573e-174
-3.47462e-175
-3.64586e-174
-6.98361e-175
-7.95602e-174
-1.32994e-174
-1.63885e-173
-2.40948e-174
-3.20758e-173
-4.16013e-174
-5.98834e-173
-6.8706e-174
-1.06756e-172
-1.08882e-173
-1.82358e-172
-1.66078e-173
-2.99388e-172
-2.44381e-173
-4.73872e-172
-3.47484e-173
-7.24951e-172
-4.78107e-173
-1.07404e-171
-6.37442e-173
-1.54373e-171
-8.24733e-173
-2.15628e-171
-1.03695e-172
-2.93249e-171
-1.26829e-172
-3.89028e-171
-1.50953e-172
-5.04198e-171
-1.7496e-172
-6.38887e-171
-1.97553e-172
-7.92545e-171
-2.17334e-172
-9.63638e-171
-2.32894e-172
-1.14963e-170
-2.42902e-172
-1.34703e-170
-2.4622e-172
-1.55141e-170
-2.42006e-172
-1.75757e-170
-2.29788e-172
-1.9599e-170
-2.09448e-172
-2.15258e-170
-1.80568e-172
-2.32914e-170
-1.39616e-172
-2.47187e-170
-7.36933e-173
-2.48195e-170
-4.54926e-174
-1.84607e-170
-6.17054e-183
-1.86933e-171
-6.97757e-180
1.92449e-180
-2.06727e-177
7.09143e-172
-2.72863e-169
1.02601e-170
-2.40038e-168
1.90597e-170
-3.16269e-168
2.46263e-170
-3.14697e-168
2.86788e-170
-2.97804e-168
3.16371e-170
-2.76844e-168
3.35303e-170
-2.53739e-168
3.43548e-170
-2.29208e-168
3.41558e-170
-2.0394e-168
3.30291e-170
-1.78623e-168
3.11119e-170
-1.53904e-168
2.85704e-170
-1.30349e-168
2.55855e-170
-1.08421e-168
2.23424e-170
-8.84749e-169
1.90177e-170
-7.07517e-169
1.57685e-170
-5.53734e-169
1.27334e-170
-4.23919e-169
1.00036e-170
-3.16948e-169
7.63434e-171
-2.30969e-169
5.65105e-171
-1.63732e-169
4.05148e-171
-1.12713e-169
2.80917e-171
-7.52049e-170
1.88051e-171
-4.85351e-170
1.21253e-171
-3.02195e-170
7.50922e-172
-1.81e-170
4.45395e-172
-1.04002e-170
2.52214e-172
-5.71663e-171
1.36224e-172
-3.00532e-171
6.99149e-173
-1.50577e-171
3.38813e-173
-7.14205e-172
1.53952e-173
-3.18249e-172
6.52463e-174
-1.32387e-172
2.57098e-174
-5.11806e-173
9.40672e-175
-1.83522e-173
3.18187e-175
-6.08017e-174
9.89533e-176
-1.85395e-174
2.80066e-176
-5.15232e-175
7.12504e-177
-1.28707e-175
1.61651e-177
-2.86113e-176
3.26035e-178
-5.63519e-177
5.82833e-179
-9.80123e-178
9.17456e-180
-1.49402e-178
1.2619e-180
-1.97636e-179
1.50812e-181
-2.25066e-180
1.56146e-182
-2.19349e-181
1.39905e-183
-1.82044e-182
1.08506e-184
-1.27984e-183
7.29507e-186
-7.57052e-185
4.26244e-187
-3.72689e-186
2.17186e-188
-1.49444e-187
9.69029e-190
-4.63354e-189
3.80343e-191
-9.28612e-191
1.3235e-192
3.67252e-196
4.47518e-194
2.52652e-196
1.47062e-195
1.62924e-197
4.69642e-197
7.79056e-199
1.45733e-198
3.23333e-200
4.39345e-200
1.22517e-201
1.28652e-201
4.33569e-203
3.65831e-203
1.45033e-204
1.00984e-204
4.61832e-206
2.70497e-206
1.40612e-207
7.02746e-208
4.10485e-209
1.76978e-209
1.15106e-210
4.31768e-211
3.1039e-212
1.01972e-212
8.05383e-214
2.32947e-214
2.0114e-215
5.14281e-216
4.83483e-217
1.09619e-217
1.11824e-218
2.25346e-219
2.48745e-220
4.46254e-221
5.31803e-222
8.50216e-223
1.09185e-223
1.55628e-224
2.15062e-225
2.73273e-226
4.05929e-227
4.59555e-228
7.3325e-229
7.388e-230
1.26569e-230
1.13319e-231
2.08426e-232
1.65473e-233
3.26834e-234
2.2949e-235
4.87032e-236
3.01488e-237
6.88097e-238
3.74093e-239
9.19387e-240
4.37007e-241
1.15843e-241
4.78871e-243
1.3721e-243
4.90228e-245
1.52228e-245
4.66673e-247
1.57559e-247
4.10922e-249
1.51439e-249
3.32641e-251