/*--------------------------------*- C++ -*----------------------------------*\
| =========                 |                                                 |
| \\      /  F ield         | OpenFOAM: The Open Source CFD Toolbox           |
|  \\    /   O peration     | Version:  2412                                  |
|   \\  /    A nd           | Website:  www.openfoam.com                      |
|    \\/     M anipulation  |                                                 |
\*---------------------------------------------------------------------------*/
FoamFile
{
    version     2.0;
    format      ascii;
    arch        "LSB;label=32;scalar=64";
    class       volScalarField;
    location    "1.24";
    object      alpha.water;
}
// * * * * * * * * * * * * * * * * * * * * * * * * * * * * * * * * * * * * * //

dimensions      [0 0 0 0 0 0 0];

internalField   nonuniform List<scalar> 
40000
(
2.99924e-184
7.65521e-175
9.31485e-174
1.29514e-173
1.3125e-173
1.24222e-173
1.13948e-173
1.02082e-173
8.95228e-174
7.69096e-174
6.47207e-174
5.33162e-174
4.29602e-174
3.38229e-174
2.59895e-174
1.94662e-174
1.41922e-174
1.00597e-174
6.92309e-175
4.61831e-175
2.9815e-175
1.85985e-175
1.11936e-175
6.48781e-176
3.61118e-176
1.92283e-176
9.75075e-177
4.68347e-177
2.12109e-177
9.0095e-178
3.56882e-178
1.31176e-178
4.46388e-179
1.40648e-179
4.09895e-180
1.09636e-180
2.65879e-181
5.77034e-182
1.11006e-182
1.88578e-183
2.82422e-184
3.71404e-185
4.26077e-186
4.23588e-187
3.63118e-188
2.67506e-189
1.6892e-190
9.11727e-192
4.18776e-193
1.62358e-194
5.22492e-196
1.34401e-197
2.48731e-199
3.9582e-201
6.1859e-203
9.49234e-205
1.42978e-206
2.11305e-208
3.06249e-210
4.35037e-212
6.05341e-214
8.24535e-216
1.09861e-217
1.43076e-219
1.81981e-221
2.25861e-223
2.73278e-225
3.22024e-227
3.69175e-229
4.11289e-231
4.44745e-233
4.66192e-235
4.73052e-237
4.63982e-239
4.39187e-241
4.00506e-243
3.5122e-245
2.95594e-247
2.38244e-249
1.83462e-251
1.34636e-253
9.38999e-256
6.20485e-258
3.87168e-260
2.27272e-262
1.24983e-264
6.4086e-267
3.04747e-269
1.33563e-271
5.3562e-274
1.94863e-276
6.36538e-279
1.84343e-281
4.65786e-284
1.00563e-286
1.80319e-289
2.57744e-292
2.753e-295
1.95358e-298
6.91998e-302
7.81005e-302
2.22584e-298
3.14705e-295
2.95039e-292
2.06505e-289
1.1516e-286
5.33204e-284
2.10905e-281
7.27738e-279
2.22602e-276
6.11326e-274
1.52298e-271
3.47155e-269
7.29303e-267
1.42085e-264
2.58097e-262
4.3921e-260
7.03127e-258
1.0629e-255
1.52234e-253
2.07211e-251
2.68784e-249
3.33108e-247
3.9534e-245
4.50293e-243
4.93199e-241
5.20419e-239
5.29944e-237
5.21607e-235
4.96976e-233
4.58991e-231
4.11441e-229
3.58399e-227
3.03717e-225
2.50654e-223
2.01656e-221
1.58301e-219
1.21359e-217
9.09348e-216
6.6649e-214
4.78156e-212
3.36002e-210
2.31404e-208
1.56273e-206
1.03534e-204
6.73193e-203
4.29704e-201
2.69295e-199
1.45659e-197
5.65411e-196
1.75208e-194
4.50248e-193
9.75858e-192
1.79876e-190
2.83268e-189
3.82272e-188
4.43311e-187
4.43366e-186
3.84397e-185
2.90859e-184
1.93334e-183
1.13326e-182
5.86806e-182
2.69453e-181
1.10787e-180
4.13176e-180
1.41479e-179
4.48276e-179
1.31534e-178
3.57387e-178
9.01201e-178
2.11962e-177
4.67623e-177
9.72824e-177
1.91696e-176
3.59766e-176
6.45982e-176
1.11409e-175
1.85069e-175
2.96648e-175
4.59491e-175
6.88813e-175
1.00091e-174
1.41209e-174
1.93684e-174
2.58605e-174
3.3659e-174
4.27615e-174
5.30898e-174
6.44805e-174
7.66839e-174
8.93693e-174
1.02141e-173
1.14558e-173
1.26103e-173
1.3557e-173
1.36705e-173
9.85439e-174
7.50268e-175
2.36603e-184
9.65958e-181
1.3028e-171
1.43267e-170
1.93482e-170
1.938e-170
1.82878e-170
1.68139e-170
1.5141e-170
1.33682e-170
1.15744e-170
9.82429e-171
8.17018e-171
6.65195e-171
5.2969e-171
4.1207e-171
3.12798e-171
2.31371e-171
1.66577e-171
1.16572e-171
7.91643e-172
5.20853e-172
3.31491e-172
2.03779e-172
1.20777e-172
6.88299e-173
3.75795e-173
1.9575e-173
9.67908e-174
4.5251e-174
1.99021e-174
8.18733e-175
3.13352e-175
1.11265e-175
3.66398e-176
1.11795e-176
3.13897e-177
8.02278e-178
1.84369e-178
3.77252e-179
6.84407e-180
1.099e-180
1.55681e-181
1.93439e-182
2.09616e-183
1.97325e-184
1.61076e-185
1.13989e-186
6.99868e-188
3.73299e-189
1.73207e-190
6.99599e-192
2.45748e-193
7.47378e-195
2.05036e-196
5.5026e-198
1.44431e-199
3.70674e-201
9.29862e-203
2.27917e-204
5.45612e-206
1.27506e-207
2.90729e-209
6.46404e-211
1.40055e-212
2.95503e-214
6.06684e-216
1.21097e-217
2.34791e-219
4.4175e-221
8.05672e-223
1.42276e-224
2.42977e-226
4.00762e-228
6.37506e-230
9.76562e-232
1.43821e-233
2.03277e-235
2.75212e-237
3.56175e-239
4.3964e-241
5.16298e-243
5.75309e-245
6.06463e-247
6.02806e-249
5.62887e-251
4.91743e-253
4.00031e-255
3.01415e-257
2.0906e-259
1.32519e-261
7.61152e-264
3.92084e-266
1.78853e-268
7.11001e-271
2.41235e-273
6.78995e-276
1.52171e-278
2.54537e-281
2.82497e-284
1.56232e-287
1.75103e-287
3.1919e-284
2.88518e-281
1.72765e-278
7.71536e-276
2.74222e-273
8.08317e-271
2.03315e-268
4.45607e-266
8.64759e-264
1.50492e-261
2.37295e-259
3.4193e-257
4.53523e-255
5.57131e-253
6.37291e-251
6.81989e-249
6.85603e-247
6.49867e-245
5.82731e-243
4.95789e-241
4.01313e-239
3.09812e-237
2.28621e-235
1.61599e-233
1.09621e-231
7.14903e-230
4.48959e-228
2.71914e-226
1.5905e-224
8.99677e-223
4.9274e-221
2.61592e-219
1.34761e-217
6.7432e-216
3.28038e-214
1.55275e-212
7.15705e-211
3.2146e-209
1.40786e-207
6.01569e-206
2.50918e-204
1.02212e-202
4.06799e-201
1.58243e-199
6.01834e-198
2.23846e-196
8.14401e-195
2.67386e-193
7.59389e-192
1.87408e-190
4.02292e-189
7.50667e-188
1.21613e-186
1.70859e-185
2.08052e-184
2.19675e-183
2.0153e-182
1.61298e-181
1.13288e-180
7.02219e-180
3.85397e-179
1.8761e-178
8.13576e-178
3.174e-177
1.12767e-176
3.68812e-176
1.11809e-175
3.14412e-175
8.2043e-175
1.99204e-174
4.52484e-174
9.6705e-174
1.95437e-173
3.74948e-173
6.86349e-173
1.20378e-172
2.03042e-172
3.30228e-172
5.18814e-172
7.8853e-172
1.16119e-171
1.65947e-171
2.30529e-171
3.11719e-171
4.10752e-171
5.28189e-171
6.63642e-171
8.15677e-171
9.81734e-171
1.15811e-170
1.34008e-170
1.52215e-170
1.69838e-170
1.86193e-170
1.9965e-170
2.01536e-170
1.47766e-170
1.24548e-171
7.71617e-181
9.81645e-178
7.36478e-169
7.51108e-168
9.97786e-168
9.92954e-168
9.35657e-168
8.62032e-168
7.79625e-168
6.92357e-168
6.03623e-168
5.16419e-168
4.33283e-168
3.56232e-168
2.86725e-168
2.25685e-168
1.73508e-168
1.30117e-168
9.50806e-169
6.76075e-169
4.66997e-169
3.12844e-169
2.02931e-169
1.27271e-169
7.7033e-170
4.48808e-170
2.50822e-170
1.33939e-170
6.8025e-171
3.27485e-171
1.48731e-171
6.33484e-172
2.51588e-172
9.2858e-173
3.18216e-173
1.01159e-173
2.96431e-174
7.9291e-175
1.91314e-175
4.12146e-176
7.88922e-177
1.33919e-177
2.00927e-178
2.64906e-179
3.05079e-180
3.05683e-181
2.66026e-182
2.01095e-183
1.32221e-184
7.57963e-186
3.79996e-187
1.67197e-188
6.48023e-190
2.22012e-191
6.88434e-193
2.0834e-194
6.15316e-196
1.77335e-197
4.9865e-199
1.36774e-200
3.65836e-202
9.53869e-204
2.42335e-205
5.9958e-207
1.44385e-208
3.38185e-210
7.69885e-212
1.70212e-213
3.65146e-215
7.59362e-217
1.52932e-218
2.97946e-220
5.60868e-222
1.01886e-223
1.78365e-225
3.00473e-227
4.86307e-229
7.54878e-231
1.12174e-232
1.59246e-234
2.15498e-236
2.77305e-238
3.38415e-240
3.90512e-242
4.24703e-244
4.33722e-246
4.1421e-248
3.682e-250
3.03029e-252
2.29479e-254
1.58757e-256
9.94814e-259
5.58858e-261
2.77912e-263
1.20396e-265
4.44997e-268
1.36397e-270
3.32765e-273
6.05726e-276
7.31339e-279
4.39877e-282
4.93988e-282
8.28332e-279
6.88462e-276
3.78922e-273
1.55481e-270
5.07558e-268
1.37361e-265
3.17095e-263
6.37593e-261
1.13473e-258
1.81028e-256
2.61569e-254
3.45245e-252
4.19278e-250
4.71401e-248
4.93305e-246
4.82731e-244
4.43561e-242
3.84107e-240
3.14506e-238
2.44213e-236
1.80316e-234
1.26907e-232
8.53266e-231
5.49187e-229
3.39003e-227
2.0104e-225
1.14723e-223
6.30879e-222
3.34781e-220
1.71651e-218
8.51353e-217
4.0891e-215
1.90388e-213
8.60104e-212
3.77348e-210
1.60901e-208
6.67298e-207
2.69345e-205
1.05872e-203
4.05474e-202
1.5137e-200
5.51023e-199
1.95649e-197
6.77741e-196
2.29083e-194
7.55622e-193
2.43227e-191
7.0863e-190
1.82341e-188
4.1295e-187
8.20105e-186
1.4233e-184
2.15229e-183
2.82964e-182
3.23059e-181
3.20348e-180
2.76436e-179
2.08457e-178
1.38201e-177
8.10183e-177
4.21352e-176
1.94798e-175
8.0456e-175
2.99922e-174
1.02099e-173
3.20491e-173
9.33605e-173
2.52565e-172
6.35105e-172
1.4894e-171
3.27625e-171
6.79995e-171
1.33799e-170
2.50406e-170
4.47832e-170
7.68337e-170
1.26906e-169
2.02314e-169
3.11863e-169
4.65531e-169
6.74004e-169
9.48035e-169
1.29766e-168
1.73088e-168
2.25219e-168
2.86271e-168
3.5589e-168
4.33221e-168
5.16898e-168
6.05035e-168
6.95308e-168
7.85073e-168
8.71518e-168
9.51456e-168
1.01711e-167
1.02642e-167
7.61656e-168
6.98711e-169
8.05421e-178
5.41954e-175
2.27744e-166
2.17125e-165
2.85422e-165
2.83183e-165
2.66858e-165
2.46439e-165
2.23802e-165
1.99842e-165
1.75382e-165
1.51191e-165
1.27945e-165
1.06202e-165
8.63857e-166
6.87839e-166
5.35495e-166
4.07072e-166
3.01869e-166
2.18067e-166
1.53192e-166
1.04476e-166
6.90608e-167
4.41786e-167
2.73003e-167
1.62551e-167
9.2946e-168
5.08555e-168
2.65139e-168
1.31363e-168
6.15727e-169
2.71378e-169
1.11775e-169
4.28541e-170
1.52701e-170
5.05199e-171
1.54297e-171
4.31291e-172
1.09078e-172
2.4692e-173
4.97478e-174
8.89984e-175
1.40904e-175
1.96215e-176
2.38776e-177
2.52799e-178
2.32377e-179
1.85419e-180
1.28576e-181
7.76596e-183
4.09859e-184
1.89739e-185
7.73838e-187
2.79332e-188
9.07095e-190
2.87087e-191
8.85635e-193
2.66313e-194
7.80552e-196
2.22951e-197
6.20444e-199
1.68161e-200
4.43705e-202
1.13917e-203
2.84421e-205
6.90152e-207
1.62644e-208
3.71973e-210
8.24918e-212
1.77234e-213
3.6855e-215
7.40977e-217
1.43872e-218
2.69447e-220
4.86092e-222
8.43489e-224
1.40565e-225
2.24578e-227
3.43359e-229
5.0135e-231
6.97569e-233
9.22645e-235
1.15698e-236
1.37145e-238
1.53172e-240
1.60595e-242
1.57418e-244
1.43588e-246
1.2123e-248
9.41584e-251
6.67938e-253
4.29078e-255
2.47053e-257
1.25892e-259
5.58745e-262
2.11534e-264
6.63997e-267
1.65865e-269
3.09081e-272
3.81963e-275
2.35124e-278
2.66062e-278
4.3607e-275
3.54156e-272
1.90427e-269
7.63181e-267
2.43286e-264
6.42815e-262
1.44846e-259
2.84226e-257
4.93536e-255
7.68038e-253
1.08226e-250
1.39277e-248
1.64875e-246
1.80649e-244
1.84178e-242
1.75545e-240
1.57064e-238
1.32401e-236
1.055e-234
7.96974e-233
5.72297e-231
3.91595e-229
2.55889e-227
1.60007e-225
9.59203e-224
5.52207e-222
3.05771e-220
1.63088e-218
8.38995e-217
4.16817e-215
2.00205e-213
9.30692e-212
4.19139e-210
1.83029e-208
7.75624e-207
3.1921e-205
1.27672e-203
4.96574e-202
1.87924e-200
6.9232e-199
2.48396e-197
8.68249e-196
2.95745e-194
9.81819e-193
3.17695e-191
1.00193e-189
3.07933e-188
8.51248e-187
2.08085e-185
4.47713e-184
8.4422e-183
1.38986e-181
1.99173e-180
2.47937e-179
2.67854e-178
2.51249e-177
2.05098e-176
1.4638e-175
9.19432e-175
5.11324e-174
2.52604e-173
1.11126e-172
4.37854e-172
1.56194e-171
5.10141e-171
1.53859e-170
4.31027e-170
1.1225e-169
2.72167e-169
6.16806e-169
1.31467e-168
2.65138e-168
5.08224e-168
9.28309e-168
1.6227e-167
2.72427e-167
4.40738e-167
6.88858e-167
1.04202e-166
1.52791e-166
2.17515e-166
3.01156e-166
4.06207e-166
5.34523e-166
6.86861e-166
8.6307e-166
1.06174e-165
1.28016e-165
1.51432e-165
1.75893e-165
2.00767e-165
2.25346e-165
2.48892e-165
2.70581e-165
2.88339e-165
2.90791e-165
2.18009e-165
2.1629e-166
4.56757e-175
1.9891e-172
4.65481e-164
4.15139e-163
5.4143e-163
5.36728e-163
5.06429e-163
4.69013e-163
4.27741e-163
3.84028e-163
3.39225e-163
2.9464e-163
2.51468e-163
2.10727e-163
1.73217e-163
1.39521e-163
1.09993e-163
8.47606e-164
6.37919e-164
4.68224e-164
3.34568e-164
2.32323e-164
1.56518e-164
1.02142e-164
6.44476e-165
3.92173e-165
2.29429e-165
1.28615e-165
6.8829e-166
3.50957e-166
1.69795e-166
7.74573e-167
3.3097e-167
1.31858e-167
4.88668e-168
1.68274e-168
5.35659e-169
1.5649e-169
4.15026e-170
9.87722e-171
2.09542e-171
3.95184e-172
6.6038e-173
9.71572e-174
1.24957e-174
1.39794e-175
1.35696e-176
1.14215e-177
8.3421e-179
5.29728e-180
2.933e-181
1.42123e-182
6.05312e-184
2.2767e-185
7.64932e-187
2.50218e-188
7.97073e-190
2.47284e-191
7.47101e-193
2.19769e-194
6.2927e-196
1.75328e-197
4.75157e-199
1.252e-200
3.20576e-202
7.9721e-204
1.9242e-205
4.50462e-207
1.02201e-208
2.24525e-210
4.77181e-212
9.80083e-214
1.9432e-215
3.7147e-217
6.83762e-219
1.21016e-220
2.05618e-222
3.34833e-224
5.21607e-226
7.75776e-228
1.09914e-229
1.47995e-231
1.8887e-233
2.27788e-235
2.5878e-237
2.75916e-239
2.74974e-241
2.54946e-243
2.18746e-245
1.72621e-247
1.24391e-249
8.11561e-252
4.74486e-254
2.45471e-256
1.10588e-258
4.24902e-261
1.35337e-263
3.42986e-266
6.48329e-269
8.12614e-272
5.07277e-275
5.80249e-275
9.37842e-272
7.50978e-269
3.9806e-266
1.57239e-263
4.93958e-261
1.28595e-258
2.85451e-256
5.51692e-254
9.4336e-252
1.44539e-249
2.00488e-247
2.53924e-245
2.95768e-243
3.18793e-241
3.1966e-239
2.99581e-237
2.63494e-235
2.18293e-233
1.70901e-231
1.26811e-229
8.94189e-228
6.00635e-226
3.85172e-224
2.36282e-222
1.38912e-220
7.84001e-219
4.25435e-217
2.22286e-215
1.11976e-213
5.44497e-212
2.55866e-210
1.16311e-208
5.1195e-207
2.18377e-205
9.03434e-204
3.62749e-202
1.41453e-200
5.35998e-199
1.97459e-197
7.07532e-196
2.46684e-194
8.37151e-193
2.76598e-191
8.89931e-190
2.78836e-188
8.50716e-187
2.52671e-185
6.70142e-184
1.56805e-182
3.22169e-181
5.7874e-180
9.05725e-179
1.23151e-177
1.4524e-176
1.48501e-175
1.31755e-174
1.01719e-173
6.8692e-173
4.08677e-172
2.15546e-171
1.01106e-170
4.23019e-170
1.5894e-169
5.42478e-169
1.69988e-168
4.92541e-168
1.32661e-167
3.32462e-167
7.7702e-167
1.70136e-166
3.51327e-166
6.8848e-166
1.28569e-165
2.29214e-165
3.91617e-165
6.43321e-165
1.01933e-164
1.56174e-164
2.31793e-164
3.33805e-164
4.67197e-164
6.36627e-164
8.4609e-164
1.0983e-163
1.39368e-163
1.73112e-163
2.10728e-163
2.5166e-163
2.95137e-163
3.40184e-163
3.85655e-163
4.30307e-163
4.72858e-163
5.11896e-163
5.43745e-163
5.47917e-163
4.14664e-163
4.43964e-164
1.71469e-172
5.34179e-170
6.89104e-162
5.7391e-161
7.43253e-161
7.37034e-161
6.96904e-161
6.47555e-161
5.93206e-161
5.35532e-161
4.76155e-161
4.16699e-161
3.58687e-161
3.03452e-161
2.52081e-161
2.0541e-161
1.63998e-161
1.28125e-161
9.78821e-162
7.30134e-162
5.30792e-162
3.75384e-162
2.5783e-162
1.71693e-162
1.10639e-162
6.882e-163
4.11977e-163
2.36643e-163
1.30004e-163
6.82335e-164
3.40848e-164
1.61009e-164
7.14162e-165
2.95858e-165
1.14109e-165
4.09167e-166
1.35807e-166
4.1492e-167
1.15503e-167
2.89338e-168
6.47088e-169
1.2879e-169
2.27435e-170
3.54034e-171
4.82034e-172
5.70852e-173
5.86263e-174
5.21556e-175
4.02033e-176
2.68911e-177
1.56473e-178
7.94776e-180
3.53848e-181
1.38726e-182
4.82667e-184
1.6335e-185
5.37825e-187
1.72265e-188
5.36707e-190
1.62631e-191
4.79194e-193
1.37266e-194
3.82141e-196
1.03355e-197
2.71456e-199
6.91982e-201
1.71105e-202
4.10116e-204
9.52151e-206
2.13942e-207
4.64819e-209
9.75508e-211
1.97544e-212
3.85536e-214
7.24219e-216
1.30758e-217
2.26562e-219
3.76103e-221
5.97077e-223
9.04679e-225
1.30542e-226
1.7896e-228
2.3247e-230
2.85305e-232
3.29741e-234
3.57584e-236
3.62364e-238
3.41552e-240
2.97856e-242
2.3885e-244
1.74862e-246
1.15882e-248
6.88055e-251
3.61429e-253
1.65301e-255
6.44654e-258
2.08377e-260
5.35838e-263
1.02755e-265
1.3064e-268
8.27094e-272
9.58036e-272
1.52667e-268
1.2051e-265
6.29588e-263
2.45082e-260
7.58597e-258
1.94554e-255
4.25371e-253
8.09604e-251
1.36305e-248
2.05586e-246
2.80665e-244
3.49784e-242
4.00824e-240
4.24932e-238
4.18993e-236
3.86044e-234
3.33724e-232
2.7167e-230
2.08935e-228
1.52254e-226
1.05405e-224
6.9491e-223
4.3724e-221
2.63087e-219
1.51657e-217
8.38941e-216
4.46043e-214
2.28249e-212
1.12562e-210
5.35607e-209
2.46174e-207
1.094e-205
4.70505e-204
1.95996e-202
7.91386e-201
3.09943e-199
1.17811e-197
4.34833e-196
1.55915e-194
5.43303e-193
1.84041e-191
6.06195e-190
1.94185e-188
6.05044e-187
1.83389e-185
5.40728e-184
1.55064e-182
3.94423e-181
8.8249e-180
1.72882e-178
2.95333e-177
4.38499e-176
5.64555e-175
6.29518e-174
6.07979e-173
5.09285e-172
3.71236e-171
2.36864e-170
1.33317e-169
6.6613e-169
2.96333e-168
1.17775e-167
4.21573e-167
1.37587e-166
4.13478e-166
1.15045e-165
2.97728e-165
7.17522e-165
1.61549e-164
3.41599e-164
6.83193e-164
1.30067e-163
2.36611e-163
4.11681e-163
6.87377e-163
1.10466e-162
1.71382e-162
2.57323e-162
3.74613e-162
5.29699e-162
7.2869e-162
9.77038e-162
1.2792e-161
1.63783e-161
2.05214e-161
2.51953e-161
3.03463e-161
3.58937e-161
4.17318e-161
4.77307e-161
5.37424e-161
5.96082e-161
6.51688e-161
7.02501e-161
7.43795e-161
7.48801e-161
5.71778e-161
6.6047e-162
4.68854e-170
1.10665e-167
7.77043e-160
6.02776e-159
7.75285e-159
7.69491e-159
7.29527e-159
6.80354e-159
6.26164e-159
5.68485e-159
5.0881e-159
4.48671e-159
3.89538e-159
3.32729e-159
2.79357e-159
2.30314e-159
1.86247e-159
1.47542e-159
1.14442e-159
8.67803e-160
6.4206e-160
4.6262e-160
3.24068e-160
2.20296e-160
1.45034e-160
9.22443e-161
5.65181e-161
3.32707e-161
1.87662e-161
1.01411e-161
5.23256e-162
2.56093e-162
1.18003e-162
5.08776e-163
2.04381e-163
7.6362e-164
2.6441e-164
8.45465e-165
2.47321e-165
6.53049e-166
1.54181e-166
3.24269e-167
6.06039e-168
9.99941e-169
1.44425e-169
1.81461e-170
1.97648e-171
1.86328e-172
1.51993e-173
1.07388e-174
6.58547e-176
3.51617e-177
1.64094e-178
6.72338e-180
2.43126e-181
8.54013e-183
2.9137e-184
9.65628e-186
3.10885e-187
9.7235e-189
2.9543e-190
8.71827e-192
2.49833e-193
6.94991e-195
1.87605e-196
4.91178e-198
1.24659e-199
3.06494e-201
7.29495e-203
1.6795e-204
3.73686e-206
8.02757e-208
1.66321e-209
3.31959e-211
6.37451e-213
1.17605e-214
2.08146e-216
3.52817e-218
5.71724e-220
8.83935e-222
1.3011e-223
1.81894e-225
2.40882e-227
3.01303e-229
3.5482e-231
3.91961e-233
4.04512e-235
3.88207e-237
3.44614e-239
2.8124e-241
2.09497e-243
1.41235e-245
8.52913e-248
4.55593e-250
2.11846e-252
8.39816e-255
2.75893e-257
7.20916e-260
1.40456e-262
1.81395e-265
1.16638e-268
1.37002e-268
2.14927e-265
1.66997e-262
8.58639e-260
3.28899e-257
1.00158e-254
2.52674e-252
5.4332e-250
1.01683e-247
1.68302e-245
2.49509e-243
3.34738e-241
4.09873e-239
4.61359e-237
4.80332e-235
4.6501e-233
4.2055e-231
3.56765e-229
2.84928e-227
2.14922e-225
1.53564e-223
1.04208e-221
6.73206e-220
4.14931e-218
2.44479e-216
1.37953e-214
7.46732e-213
3.88328e-211
1.94285e-209
9.36349e-208
4.35214e-206
1.95298e-204
8.46923e-203
3.55244e-201
1.44242e-199
5.67347e-198
2.16309e-196
7.99848e-195
2.86982e-193
9.99504e-192
3.38013e-190
1.1102e-188
3.54197e-187
1.09772e-185
3.30475e-184
9.66383e-183
2.74479e-181
7.57295e-180
1.84246e-178
3.9308e-177
7.32122e-176
1.1859e-174
1.66572e-173
2.02501e-172
2.1293e-171
1.93769e-170
1.52898e-169
1.05013e-168
6.31911e-168
3.35986e-167
1.58831e-166
6.69159e-166
2.52274e-165
8.593e-165
2.67966e-164
7.71904e-164
2.06107e-163
5.12085e-163
1.18576e-162
2.56991e-162
5.24491e-162
1.01555e-161
1.87786e-161
3.32721e-161
5.64872e-161
9.21498e-161
1.44832e-160
2.19934e-160
3.23485e-160
4.61745e-160
6.40836e-160
8.66208e-160
1.14248e-159
1.47321e-159
1.86015e-159
2.30101e-159
2.79208e-159
3.32708e-159
3.89731e-159
4.49186e-159
5.09774e-159
5.70048e-159
6.28488e-159
6.83598e-159
7.33764e-159
7.74357e-159
7.78778e-159
5.99831e-159
7.48179e-160
9.85276e-168
1.82623e-165
6.87467e-158
4.95212e-157
6.32521e-157
6.28532e-157
5.97665e-157
5.59563e-157
5.17491e-157
4.72541e-157
4.25788e-157
3.78358e-157
3.31354e-157
2.85788e-157
2.42539e-157
2.0234e-157
1.65758e-157
1.33175e-157
1.0491e-157
8.08989e-158
6.094e-158
4.47546e-158
3.19902e-158
2.22103e-158
1.49461e-158
9.72386e-159
6.09985e-159
3.68095e-159
2.13217e-159
1.18667e-159
6.3274e-160
3.21056e-160
1.53815e-160
6.90925e-161
2.8937e-161
1.12742e-161
4.07518e-162
1.36494e-162
4.20121e-163
1.17117e-163
2.92349e-164
6.50656e-165
1.28903e-165
2.25883e-166
3.46866e-167
4.63502e-168
5.36837e-169
5.37808e-170
4.65643e-171
3.48586e-172
2.26006e-173
1.27255e-174
6.2452e-176
2.68274e-177
1.01347e-178
3.70357e-180
1.31239e-181
4.51118e-183
1.50455e-184
4.86927e-186
1.52924e-187
4.66026e-189
1.37782e-190
3.9511e-192
1.09859e-193
2.96046e-195
7.72804e-197
1.95303e-198
4.77512e-200
1.12866e-201
2.57677e-203
5.6769e-205
1.20564e-206
2.46549e-208
4.84862e-210
9.15738e-212
1.65849e-213
2.8756e-215
4.76481e-217
7.53024e-219
1.13262e-220
1.6175e-222
2.18751e-224
2.79348e-226
3.35757e-228
3.7846e-230
3.98436e-232
3.89972e-234
3.52974e-236
2.93649e-238
2.22933e-240
1.53141e-242
9.42146e-245
5.12587e-247
2.42719e-249
9.79666e-252
3.27616e-254
8.71285e-257
1.7274e-259
2.26974e-262
1.48462e-265
1.77083e-265
2.73055e-262
2.08502e-259
1.05338e-256
3.96403e-254
1.18572e-251
2.93763e-249
6.20228e-247
1.13951e-244
1.85118e-242
2.69306e-240
3.54463e-238
4.25722e-236
4.69923e-234
4.79663e-232
4.55153e-230
4.03368e-228
3.35228e-226
2.62208e-224
1.93651e-222
1.35432e-220
8.99272e-219
5.6827e-217
3.42489e-215
1.97251e-213
1.08756e-211
5.7498e-210
2.91925e-208
1.42529e-206
6.70028e-205
3.03622e-203
1.32763e-201
5.60703e-200
2.28913e-198
9.04107e-197
3.45681e-195
1.28025e-193
4.59513e-192
1.59907e-190
5.39698e-189
1.76708e-187
5.61374e-186
1.73049e-184
5.17597e-183
1.50198e-181
4.22746e-180
1.15367e-178
3.04678e-177
7.06722e-176
1.43298e-174
2.52915e-173
3.87193e-172
5.12858e-171
5.86933e-170
5.80308e-169
4.96262e-168
3.67962e-167
2.37578e-166
1.34561e-165
6.74785e-165
3.01372e-164
1.20058e-163
4.28659e-163
1.38767e-162
4.13126e-162
1.13998e-161
2.91874e-161
6.9552e-161
1.54581e-160
3.2222e-160
6.34313e-160
1.18852e-159
2.13389e-159
3.68165e-159
6.09739e-159
9.71525e-159
1.49273e-158
2.21768e-158
3.19369e-158
4.46754e-158
6.08306e-158
8.07578e-158
1.0474e-157
1.32981e-157
1.65553e-157
2.02146e-157
2.42388e-157
2.85723e-157
3.31432e-157
3.78647e-157
4.26364e-157
4.73486e-157
5.18886e-157
5.61477e-157
6.00102e-157
6.31209e-157
6.34133e-157
4.92573e-157
6.64629e-158
1.6448e-165
2.45055e-163
4.8566e-156
3.23684e-155
4.10506e-155
4.08449e-155
3.89626e-155
3.66279e-155
3.4043e-155
3.12697e-155
2.83689e-155
2.54059e-155
2.2446e-155
1.95504e-155
1.67735e-155
1.41625e-155
1.17555e-155
9.58116e-156
7.66813e-156
6.01569e-156
4.61593e-156
3.45706e-156
2.523e-156
1.79017e-156
1.23208e-156
8.20397e-157
5.27148e-157
3.26208e-157
1.94104e-157
1.11302e-157
6.1361e-158
3.23025e-158
1.6107e-158
7.54698e-159
3.29933e-159
1.34175e-159
5.06674e-160
1.77935e-160
5.7708e-161
1.70144e-161
4.49821e-162
1.06104e-162
2.23212e-163
4.16319e-164
6.81345e-165
9.70807e-166
1.19899e-166
1.28027e-167
1.18026e-168
9.39281e-170
6.46041e-171
3.84937e-172
1.99352e-173
9.00945e-175
3.56938e-176
1.36089e-177
5.02336e-179
1.79605e-180
6.22223e-182
2.0892e-183
6.79935e-185
2.14495e-186
6.55824e-188
1.94312e-189
5.57738e-191
1.55032e-192
4.17134e-194
1.08581e-195
2.73261e-197
6.64414e-199
1.55948e-200
3.53025e-202
7.69979e-204
1.61627e-205
3.26123e-207
6.31675e-209
1.17277e-210
2.08371e-212
3.53668e-214
5.72329e-216
8.81171e-218
1.2877e-219
1.78149e-221
2.32653e-223
2.85888e-225
3.29364e-227
3.54314e-229
3.54262e-231
3.27484e-233
2.78182e-235
2.15591e-237
1.51149e-239
9.48854e-242
5.26654e-244
2.54361e-246
1.04696e-248
3.56976e-251
9.67775e-254
1.95555e-256
2.6184e-259
1.74492e-262
2.117e-262
3.20343e-259
2.40011e-256
1.18956e-253
4.39076e-251
1.28797e-248
3.1287e-246
6.47551e-244
1.16603e-241
1.85619e-239
2.64549e-237
3.41054e-235
4.01115e-233
4.3347e-231
4.33062e-229
4.02108e-227
3.48613e-225
2.83347e-223
2.16687e-221
1.56418e-219
1.06889e-217
6.93271e-216
4.27777e-214
2.51654e-212
1.41418e-210
7.60488e-209
3.91982e-207
1.93939e-205
9.22308e-204
4.22112e-202
1.86125e-200
7.91485e-199
3.24891e-197
1.28838e-195
4.93942e-194
1.83192e-192
6.57614e-191
2.28596e-189
7.69767e-188
2.51166e-186
7.94243e-185
2.43429e-183
7.23118e-182
2.08167e-180
5.80598e-179
1.56836e-177
4.10114e-176
1.03241e-174
2.27507e-173
4.36862e-172
7.28057e-171
1.04976e-169
1.30678e-168
1.4033e-167
1.30063e-166
1.04227e-165
7.24269e-165
4.38523e-164
2.3327e-163
1.10137e-162
4.64006e-162
1.74481e-161
5.88952e-161
1.80945e-160
5.13796e-160
1.35706e-159
3.32847e-159
7.59802e-159
1.61886e-158
3.24227e-158
6.152e-158
1.11488e-157
1.94286e-157
3.26313e-157
5.27e-157
8.19767e-157
1.23067e-156
1.78767e-156
2.51907e-156
3.45128e-156
4.60803e-156
6.00563e-156
7.65605e-156
9.56738e-156
1.17408e-155
1.4148e-155
1.67611e-155
1.95423e-155
2.24451e-155
2.54156e-155
2.83928e-155
3.13113e-155
3.41053e-155
3.67132e-155
3.90695e-155
4.09574e-155
4.11009e-155
3.21937e-155
4.71206e-156
2.22838e-163
2.7098e-161
2.76535e-154
1.69766e-153
2.13743e-153
2.12965e-153
2.03825e-153
1.9242e-153
1.79756e-153
1.66107e-153
1.51747e-153
1.36977e-153
1.22102e-153
1.07416e-153
9.3185e-154
7.96461e-154
6.70013e-154
5.54126e-154
4.5075e-154
3.59933e-154
2.81483e-154
2.1512e-154
1.60416e-154
1.16414e-154
8.20075e-155
5.59271e-155
3.68321e-155
2.33844e-155
1.42997e-155
8.45187e-156
4.82066e-156
2.63512e-156
1.36914e-156
6.70129e-157
3.06251e-157
1.30154e-157
5.13944e-158
1.89451e-158
6.48446e-159
2.0261e-159
5.68417e-160
1.42343e-160
3.18585e-161
6.3396e-162
1.10871e-162
1.68914e-163
2.23117e-164
2.5474e-165
2.50895e-166
2.13007e-167
1.55986e-168
9.87185e-170
5.41519e-171
2.58441e-172
1.07777e-173
4.30146e-175
1.65912e-176
6.18853e-178
2.23335e-179
7.8008e-181
2.63773e-182
8.63528e-184
2.73702e-185
8.39822e-187
2.4941e-188
7.16678e-190
1.9918e-191
5.35135e-193
1.38907e-194
3.48122e-196
8.41687e-198
1.96156e-199
4.40209e-201
9.50286e-203
1.97092e-204
3.92218e-206
7.47829e-208
1.36396e-209
2.37554e-211
3.94325e-213
6.2252e-215
9.32495e-217
1.32194e-218
1.76847e-220
2.22543e-222
2.62485e-224
2.89004e-226
2.95676e-228
2.79606e-230
2.4291e-232
1.92488e-234
1.37955e-236
8.851e-239
5.01981e-241
2.47681e-243
1.04127e-245
3.62557e-248
1.00354e-250
2.07e-253
2.82877e-256
1.92358e-259
2.37824e-259
3.52607e-256
2.58807e-253
1.2564e-250
4.54144e-248
1.30435e-245
3.10169e-243
6.28304e-241
1.10708e-238
1.72411e-236
2.40343e-234
3.02991e-232
3.48382e-230
3.67975e-228
3.5923e-226
3.25846e-224
2.75893e-222
2.18937e-220
1.6342e-218
1.15106e-216
7.67253e-215
4.85236e-213
2.91848e-211
1.67289e-209
9.15633e-208
4.79379e-206
2.40453e-204
1.15719e-202
5.35027e-201
2.37936e-199
1.01889e-197
4.20538e-196
1.67442e-194
6.43646e-193
2.39026e-191
8.58046e-190
2.97892e-188
1.0006e-186
3.25275e-185
1.02356e-183
3.11815e-182
9.19597e-181
2.62523e-179
7.25279e-178
1.93845e-176
5.00954e-175
1.251e-173
2.99058e-172
6.23699e-171
1.12983e-169
1.77119e-168
2.39625e-167
2.7933e-166
2.80491e-165
2.4291e-164
1.81859e-163
1.18101e-162
6.68752e-162
3.33305e-161
1.47885e-160
5.86707e-160
2.07842e-159
6.61913e-159
1.92699e-158
5.21312e-158
1.31671e-157
3.09e-157
6.74714e-157
1.37616e-156
2.64512e-156
4.83357e-156
8.46691e-156
1.43148e-155
2.33948e-155
3.68258e-155
5.589e-155
8.19222e-155
1.16263e-154
1.60181e-154
2.14779e-154
2.81022e-154
3.59352e-154
4.50056e-154
5.53331e-154
6.6915e-154
7.95586e-154
9.31041e-154
1.07352e-153
1.22066e-153
1.36981e-153
1.51806e-153
1.66232e-153
1.79955e-153
1.927e-153
2.04175e-153
2.13315e-153
2.1381e-153
1.68871e-153
2.69156e-154
2.48445e-161
2.48979e-159
1.27275e-152
7.15679e-152
8.94415e-152
8.92433e-152
8.57068e-152
8.12619e-152
7.63108e-152
7.09502e-152
6.52764e-152
5.93988e-152
5.34312e-152
4.74843e-152
4.16604e-152
3.60537e-152
3.07473e-152
2.58123e-152
2.13512e-152
1.73642e-152
1.38492e-152
1.08082e-152
8.24273e-153
6.12397e-153
4.41999e-153
3.09021e-153
2.08765e-153
1.36084e-153
8.55703e-154
5.21636e-154
3.08044e-154
1.75018e-154
9.48837e-155
4.85962e-155
2.32578e-155
1.03454e-155
4.27674e-156
1.65692e-156
5.99611e-157
1.99006e-157
5.93784e-158
1.58164e-158
3.77419e-159
8.03444e-160
1.5059e-160
2.46055e-161
3.48715e-162
4.27174e-163
4.51112e-164
4.10118e-165
3.21009e-166
2.1664e-167
1.26382e-168
6.39523e-170
2.81856e-171
1.1817e-172
4.77857e-174
1.86531e-175
7.03315e-177
2.56274e-178
9.02751e-180
3.07492e-181
1.01285e-182
3.22619e-184
9.93606e-186
2.95813e-187
8.51045e-189
2.36501e-190
6.34491e-192
1.64232e-193
4.09839e-195
9.85212e-197
2.27929e-198
5.06955e-200
1.08276e-201
2.21782e-203
4.35046e-205
8.15978e-207
1.46085e-208
2.49167e-210
4.04037e-212
6.21429e-214
9.04241e-216
1.24125e-217
1.60225e-219
1.93796e-221
2.1875e-223
2.29374e-225
2.22251e-227
1.97789e-229
1.60515e-231
1.17787e-233
7.73582e-236
4.49011e-238
2.26686e-240
9.74915e-243
3.47189e-245
9.82702e-248
2.07238e-250
2.89483e-253
2.01173e-256
2.54023e-256
3.68444e-253
2.64515e-250
1.25579e-247
4.43829e-245
1.24613e-242
2.89619e-240
5.73281e-238
9.86849e-236
1.50113e-233
2.04345e-231
2.51501e-229
2.82252e-227
2.9091e-225
2.7705e-223
2.4509e-221
2.02328e-219
1.56497e-217
1.13823e-215
7.8094e-214
5.0688e-212
3.1204e-210
1.82617e-208
1.01814e-206
5.41794e-205
2.75659e-203
1.34308e-201
6.27541e-200
2.81546e-198
1.21431e-196
5.04009e-195
2.01502e-193
7.76635e-192
2.88778e-190
1.03656e-188
3.59368e-187
1.20388e-185
3.89828e-184
1.22041e-182
3.69435e-181
1.08137e-179
3.06036e-178
8.37206e-177
2.21309e-175
5.65009e-174
1.39224e-172
3.3084e-171
7.47997e-170
1.47027e-168
2.50219e-167
3.67466e-166
4.64601e-165
5.05181e-164
4.72592e-163
3.81078e-162
2.65678e-161
1.60749e-160
8.48762e-160
3.95276e-159
1.64464e-158
6.13252e-158
2.04198e-157
6.12147e-157
1.68568e-156
4.3392e-156
1.04683e-155
2.34693e-155
4.89307e-155
9.5373e-155
1.75692e-154
3.08892e-154
5.22613e-154
8.56695e-154
1.3616e-153
2.08751e-153
3.08845e-153
4.4158e-153
6.1166e-153
8.23139e-153
1.07919e-152
1.38276e-152
1.73371e-152
2.13191e-152
2.57754e-152
3.07067e-152
3.60115e-152
4.16192e-152
4.74474e-152
5.34024e-152
5.93822e-152
6.52757e-152
7.09687e-152
7.63503e-152
8.13234e-152
8.5786e-152
8.93162e-152
8.94124e-152
7.12078e-152
1.24233e-152
2.29929e-159
1.90896e-157
4.71945e-151
2.4135e-150
2.99363e-150
2.9915e-150
2.88319e-150
2.74582e-150
2.59234e-150
2.42539e-150
2.24761e-150
2.06211e-150
1.8722e-150
1.68117e-150
1.49208e-150
1.30783e-150
1.13108e-150
9.64225e-151
8.11498e-151
6.72612e-151
5.47529e-151
4.36719e-151
3.41009e-151
2.59701e-151
1.92295e-151
1.38007e-151
9.57551e-152
6.41526e-152
4.15164e-152
2.61241e-152
1.59879e-152
9.45258e-153
5.35581e-153
2.87629e-153
1.44485e-153
6.73985e-154
2.9214e-154
1.19144e-154
4.56816e-155
1.61484e-155
5.13807e-156
1.45901e-156
3.72093e-157
8.50003e-158
1.71307e-158
3.01186e-159
4.59582e-160
6.06302e-161
6.89224e-162
6.73717e-163
5.66012e-164
4.09093e-165
2.54916e-166
1.3737e-167
6.42628e-169
2.84105e-170
1.20875e-171
4.95429e-173