/*--------------------------------*- C++ -*----------------------------------*\
| =========                 |                                                 |
| \\      /  F ield         | OpenFOAM: The Open Source CFD Toolbox           |
|  \\    /   O peration     | Version:  2412                                  |
|   \\  /    A nd           | Website:  www.openfoam.com                      |
|    \\/     M anipulation  |                                                 |
\*---------------------------------------------------------------------------*/
FoamFile
{
    version     2.0;
    format      ascii;
    arch        "LSB;label=32;scalar=64";
    class       volScalarField;
    location    "1.22";
    object      alpha.water;
}
// * * * * * * * * * * * * * * * * * * * * * * * * * * * * * * * * * * * * * //

dimensions      [0 0 0 0 0 0 0];

internalField   nonuniform List<scalar> 
40000
(
3.91712e-185
7.92306e-176
8.23433e-175
1.09782e-174
1.10419e-174
1.0433e-174
9.55607e-175
8.546e-175
7.47949e-175
6.41078e-175
5.38023e-175
4.41837e-175
3.54757e-175
2.78198e-175
2.12829e-175
1.58641e-175
1.15054e-175
8.10864e-176
5.54636e-176
3.67646e-176
2.35817e-176
1.46163e-176
8.74226e-177
5.03623e-177
2.78598e-177
1.47344e-177
7.41188e-178
3.52312e-178
1.57332e-178
6.56223e-179
2.54319e-179
9.12473e-180
3.03077e-180
9.33839e-181
2.66575e-181
6.97053e-182
1.64225e-182
3.43495e-183
6.33027e-184
1.02786e-184
1.46994e-185
1.84088e-186
2.0013e-187
1.87506e-188
1.50747e-189
1.03749e-190
6.10325e-192
3.06384e-193
1.30881e-194
4.73034e-196
1.4288e-197
3.50807e-199
6.51357e-201
9.64018e-203
1.40348e-204
2.00919e-206
2.82716e-208
3.90816e-210
5.30449e-212
7.0647e-214
9.22638e-216
1.18073e-217
1.47955e-219
1.81396e-221
2.1741e-223
2.54506e-225
2.90714e-227
3.23696e-229
3.50936e-231
3.70019e-233
3.78939e-235
3.76424e-237
3.62173e-239
3.36992e-241
3.02742e-243
2.6213e-245
2.18344e-247
1.74613e-249
1.33778e-251
9.79613e-254
6.83894e-256
4.53929e-258
2.85585e-260
1.69736e-262
9.49482e-265
4.97806e-267
2.4347e-269
1.10485e-271
4.62323e-274
1.77101e-276
6.15758e-279
1.92321e-281
5.32788e-284
1.28835e-286
2.66312e-289
4.57376e-292
6.26387e-295
6.41191e-298
4.36057e-301
1.47892e-304
1.72306e-304
5.10048e-301
7.50394e-298
7.32703e-295
5.3449e-292
3.10838e-289
1.50173e-286
6.20145e-284
2.23524e-281
7.14587e-279
2.05215e-276
5.34903e-274
1.27637e-271
2.80843e-269
5.73363e-267
1.09198e-264
1.94923e-262
3.27486e-260
5.19782e-258
7.81994e-256
1.11855e-253
1.52538e-251
1.98823e-249
2.48276e-247
2.97656e-245
3.43304e-243
3.81626e-241
4.09588e-239
4.25128e-237
4.27389e-235
4.16757e-233
3.9472e-231
3.63572e-229
3.26063e-227
2.85038e-225
2.43131e-223
2.02548e-221
1.6495e-219
1.31425e-217
1.02527e-215
7.83717e-214
5.87419e-212
4.32009e-210
3.11935e-208
2.21262e-206
1.54255e-204
1.05742e-202
7.13031e-201
3.8384e-199
1.55973e-197
5.14578e-196
1.41745e-194
3.30095e-193
6.53762e-192
1.10444e-190
1.59443e-189
1.97044e-188
2.08986e-187
1.91092e-186
1.51761e-185
1.05607e-184
6.47535e-184
3.49919e-183
1.66668e-182
7.0516e-182
2.68961e-181
9.40146e-181
3.04597e-180
9.15637e-180
2.54846e-179
6.56779e-179
1.57299e-178
3.51914e-178
7.39747e-178
1.46944e-177
2.77643e-177
5.01594e-177
8.70329e-177
1.45474e-176
2.34671e-176
3.6584e-176
5.51917e-176
8.06911e-176
1.14495e-175
1.5787e-175
2.118e-175
2.7688e-175
3.53154e-175
4.4e-175
5.36086e-175
6.39299e-175
7.46839e-175
8.55347e-175
9.61067e-175
1.05974e-174
1.14258e-174
1.16494e-174
8.8038e-175
7.83054e-176
3.03623e-185
1.25863e-181
1.44069e-172
1.37142e-171
1.77713e-171
1.76563e-171
1.66317e-171
1.52714e-171
1.37291e-171
1.2097e-171
1.04486e-171
8.84401e-172
7.33129e-172
5.94701e-172
4.71591e-172
3.65173e-172
2.75784e-172
2.02855e-172
1.45152e-172
1.00912e-172
6.80592e-173
4.44652e-173
2.81019e-173
1.71575e-173
1.01014e-173
5.71826e-174
3.09949e-174
1.60081e-174
7.82969e-175
3.60751e-175
1.55692e-175
6.26046e-176
2.33605e-176
8.08462e-177
2.59958e-177
7.7588e-178
2.1272e-178
5.27544e-179
1.16656e-179
2.28194e-180
3.94703e-181
6.03571e-182
8.11802e-183
9.52596e-184
9.68825e-185
8.51066e-186
6.45099e-187
4.22142e-188
2.38839e-189
1.17076e-190
4.98348e-192
1.84548e-193
5.94931e-195
1.66607e-196
4.13833e-198
1.00652e-199
2.39665e-201
5.58555e-203
1.27373e-204
2.84112e-206
6.19603e-208
1.32049e-209
2.74855e-211
5.58399e-213
1.1065e-214
2.13695e-216
4.01896e-218
7.35405e-220
1.30805e-221
2.25929e-223
3.78531e-225
6.14493e-227
9.65353e-229
1.46568e-230
2.14766e-232
3.03254e-234
4.1196e-236
5.3746e-238
6.72127e-240
8.04031e-242
9.17977e-244
9.97834e-246
1.02986e-247
1.00622e-249
9.27615e-252
8.03897e-254
6.52214e-256
4.9306e-258
3.45463e-260
2.22952e-262
1.3158e-264
7.04079e-267
3.38086e-269
1.43845e-271
5.33664e-274
1.69074e-276
4.446e-279
9.3135e-282
1.45677e-284
1.51229e-287
7.82056e-291
8.96573e-291
1.74188e-287
1.68046e-284
1.07488e-281
5.13114e-279
1.95073e-276
6.1544e-274
1.65789e-271
3.89397e-269
8.10334e-267
1.51317e-264
2.5618e-262
3.96606e-260
5.65549e-258
7.47418e-256
9.20383e-254
1.06102e-251
1.14982e-249
1.17568e-247
1.13799e-245
1.04587e-243
9.15114e-242
7.64195e-240
6.1044e-238
4.67401e-236
3.43694e-234
2.43138e-232
1.65746e-230
1.09042e-228
6.93304e-227
4.26577e-225
2.543e-223
1.47052e-221
8.25721e-220
4.50683e-218
2.39328e-216
1.2376e-214
6.2372e-213
3.06586e-211
1.47085e-209
6.89156e-208
3.15531e-206
1.41241e-204
6.18376e-203
2.64898e-201
1.11062e-199
4.55842e-198
1.83194e-196
6.52974e-195
2.01992e-193
5.43443e-192
1.27091e-190
2.57892e-189
4.53113e-188
6.88006e-187
9.01653e-186
1.01957e-184
9.95986e-184
8.43593e-183
6.23727e-182
4.05861e-181
2.33582e-180
1.18911e-179
5.3572e-179
2.15333e-178
7.83354e-178
2.61891e-177
8.13061e-177
2.3457e-176
6.27757e-176
1.55925e-175
3.6091e-175
7.82612e-175
1.59888e-174
3.09363e-174
5.70401e-174
1.00713e-173
1.71004e-173
2.80024e-173
4.43023e-173
6.78081e-173
1.00545e-172
1.4464e-172
2.02169e-172
2.74904e-172
3.64104e-172
4.70387e-172
5.935e-172
7.32189e-172
8.84158e-172
1.04602e-171
1.21343e-171
1.38131e-171
1.54413e-171
1.6958e-171
1.82359e-171
1.86021e-171
1.42481e-171
1.38072e-172
9.8712e-182
1.34185e-178
8.94795e-170
7.99935e-169
1.02104e-168
1.0075e-168
9.47443e-169
8.71699e-169
7.87049e-169
6.97512e-169
6.06631e-169
5.17513e-169
4.32771e-169
3.54474e-169
2.84096e-169
2.22549e-169
1.70195e-169
1.26895e-169
9.21325e-170
6.50593e-170
4.46138e-170
2.96653e-170
1.91001e-170
1.1892e-170
7.14722e-171
4.13497e-171
2.29365e-171
1.21424e-171
6.09947e-172
2.89352e-172
1.28919e-172
5.36498e-173
2.07604e-173
7.46225e-174
2.49509e-174
7.75422e-175
2.21791e-175
5.75429e-176
1.33513e-176
2.74718e-177
5.00881e-178
8.08973e-179
1.15128e-179
1.4315e-180
1.54446e-181
1.44084e-182
1.16118e-183
8.08954e-185
4.88113e-186
2.55825e-187
1.16892e-188
4.67579e-190
1.6446e-191
5.108e-193
1.41806e-194
3.84684e-196
1.01975e-197
2.64135e-199
6.68363e-201
1.65162e-202
3.98422e-204
9.37789e-206
2.15262e-207
4.81596e-209
1.04949e-210
2.2262e-212
4.59324e-214
9.21086e-216
1.79363e-217
3.38854e-219
6.20444e-221
1.09984e-222
1.88533e-224
3.1212e-226
4.98355e-228
7.66297e-230
1.13293e-231
1.60769e-233
2.18564e-235
2.84084e-237
3.52235e-239
4.15602e-241
4.65387e-243
4.93121e-245
4.92794e-247
4.62757e-249
4.06652e-251
3.32844e-253
2.52398e-255
1.76229e-257
1.12481e-259
6.507e-262
3.3768e-264
1.55219e-266
6.21938e-269
2.12737e-271
6.0379e-274
1.36473e-276
2.3026e-279
2.57778e-282
1.4374e-285
1.64861e-285
2.97315e-282
2.6612e-279
1.57867e-276
6.98673e-274
2.46167e-271
7.19519e-269
1.79508e-266
3.90335e-264
7.51745e-262
1.29867e-259
2.0333e-257
2.91004e-255
3.83465e-253
4.68129e-251
5.32283e-249
5.66357e-247
5.66244e-245
5.33926e-243
4.76378e-241
4.03371e-239
3.25018e-237
2.49817e-235
1.83576e-233
1.29234e-231
8.73224e-230
5.67297e-228
3.54916e-226
2.14148e-224
1.24786e-222
7.03132e-221
3.83559e-219
2.0278e-217
1.04004e-215
5.17983e-214
2.50722e-212
1.18038e-210
5.40916e-209
2.41437e-207
1.05031e-205
4.45574e-204
1.84433e-202
7.45209e-201
2.94045e-199
1.13339e-197
4.26842e-196
1.57073e-194
5.64766e-193
1.81449e-191
5.14308e-190
1.28062e-188
2.78902e-187
5.29106e-186
8.71294e-185
1.24209e-183
1.53031e-182
1.62872e-181
1.49923e-180
1.19801e-179
8.36935e-179
5.15523e-178
2.8142e-177
1.36182e-176
5.84696e-176
2.24647e-175
7.8334e-175
2.515e-174
7.50857e-174
2.08565e-173
5.38229e-173
1.29175e-172
2.89621e-172
6.0998e-172
1.21343e-171
2.29068e-171
4.12738e-171
7.13105e-171
1.18615e-170
1.90476e-170
2.95807e-170
4.44862e-170
6.48782e-170
9.18904e-170
1.2659e-169
1.69835e-169
2.22164e-169
2.8375e-169
3.54279e-169
4.32914e-169
5.18277e-169
6.08444e-169
7.0103e-169
7.93297e-169
8.82333e-169
9.64969e-169
1.03447e-168
1.05437e-168
8.15052e-169
8.48953e-170
1.08423e-178
7.94056e-176
3.08035e-167
2.60544e-166
3.29714e-166
3.24354e-166
3.04986e-166
2.81239e-166
2.54966e-166
2.27194e-166
1.98893e-166
1.70964e-166
1.44195e-166
1.19234e-166
9.65662e-167
7.65167e-167
5.92481e-167
4.47719e-167
3.29812e-167
2.3654e-167
1.64908e-167
1.11589e-167
7.31842e-168
4.64579e-168
2.84965e-168
1.68439e-168
9.5579e-169
5.18421e-169
2.6734e-169
1.30528e-169
6.00195e-170
2.5842e-170
1.03668e-170
3.86858e-171
1.34422e-171
4.34626e-172
1.29558e-172
3.51266e-173
8.54183e-174
1.84614e-174
3.54169e-175
6.02786e-176
9.05137e-177
1.1883e-177
1.35387e-178
1.3335e-179
1.13403e-180
8.32961e-182
5.29282e-183
2.91733e-184
1.39994e-185
5.87449e-187
2.16618e-188
7.05547e-190
2.04437e-191
5.78316e-193
1.59688e-194
4.30308e-196
1.13129e-197
2.90099e-199
7.25368e-201
1.76789e-202
4.19812e-204
9.70835e-206
2.18519e-207
4.7843e-209
1.01821e-210
2.10482e-212
4.22278e-214
8.21477e-216
1.54804e-217
2.82289e-219
4.97549e-221
8.46575e-223
1.38866e-224
2.19279e-226
3.32796e-228
4.84613e-230
6.75834e-232
9.00801e-234
1.14498e-235
1.38451e-237
1.58838e-239
1.72383e-241
1.76396e-243
1.69568e-245
1.52501e-247
1.27715e-249
9.90692e-252
7.07425e-254
4.61678e-256
2.73026e-258
1.44811e-260
6.80184e-263
2.78438e-265
9.72844e-268
2.81986e-270
6.50809e-273
1.12104e-275
1.2811e-278
7.29157e-282
8.42846e-282
1.4898e-278
1.3066e-275
7.59304e-273
3.2913e-270
1.13556e-267
3.24952e-265
7.93546e-263
1.68869e-260
3.18211e-258
5.37753e-256
8.23438e-254
1.15232e-251
1.48438e-249
1.77104e-247
1.9676e-245
2.04507e-243
1.99677e-241
1.8382e-239
1.60076e-237
1.32256e-235
1.03948e-233
7.79097e-232
5.58085e-230
3.82847e-228
2.51986e-226
1.59404e-224
9.70681e-223
5.69829e-221
3.22915e-219
1.76867e-217
9.37388e-216
4.81245e-214
2.39558e-212
1.1573e-210
5.43031e-209
2.47671e-207
1.09874e-205
4.74405e-204
1.9947e-202
8.17127e-201
3.26264e-199
1.2702e-197
4.82324e-196
1.78683e-194
6.4598e-193
2.2795e-191
7.85221e-190
2.40499e-188
6.49993e-187
1.54216e-185
3.19639e-184
5.76279e-183
9.00597e-182
1.21697e-180
1.42006e-179
1.43079e-178
1.24664e-177
9.43155e-177
6.24303e-176
3.64843e-175
1.89249e-174
8.71748e-174
3.57102e-173
1.3129e-172
4.39266e-172
1.35551e-171
3.89408e-171
1.04186e-170
2.59345e-170
6.01596e-170
1.30696e-169
2.67453e-169
5.18279e-169
9.54947e-169
1.68204e-168
2.84454e-168
4.63617e-168
7.30203e-168
1.11328e-167
1.64522e-167
2.36008e-167
3.29127e-167
4.46903e-167
5.91597e-167
7.64346e-167
9.65156e-167
1.19254e-166
1.44346e-166
1.71333e-166
1.99604e-166
2.28423e-166
2.56962e-166
2.84356e-166
3.0968e-166
3.30908e-166
3.36877e-166
2.62439e-166
2.92308e-167
6.60975e-176
3.16004e-173
7.06369e-165
5.65539e-164
7.11581e-164
6.99561e-164
6.58571e-164
6.08986e-164
5.54422e-164
4.96712e-164
4.37668e-164
3.79039e-164
3.22414e-164
2.69139e-164
2.20263e-164
1.76541e-164
1.38414e-164
1.06015e-164
7.9243e-165
5.77286e-165
4.09224e-165
2.81835e-165
1.88302e-165
1.21888e-165
7.63066e-166
4.60816e-166
2.67483e-166
1.4864e-166
7.86867e-167
3.95451e-167
1.87708e-167
8.36484e-168
3.48027e-168
1.34884e-168
4.87179e-169
1.63895e-169
5.09198e-170
1.44318e-170
3.68029e-171
8.36091e-172
1.6887e-172
3.03015e-173
4.80332e-174
6.66202e-175
8.01997e-176
8.34421e-177
7.49064e-178
5.80118e-179
3.88021e-180
2.24664e-181
1.12983e-182
4.95594e-184
1.90537e-185
6.45422e-187
1.93674e-188
5.65807e-190
1.611e-191
4.47062e-193
1.20912e-194
3.18667e-196
8.18241e-198
2.04632e-199
4.98255e-201
1.18066e-202
2.7213e-204
6.0975e-206
1.3273e-207
2.80487e-209
5.74963e-211
1.14228e-212
2.19731e-214
4.08837e-216
7.34948e-218
1.27491e-219
2.13127e-221
3.42856e-223
5.29926e-225
7.85622e-227
1.11507e-228
1.51218e-230
1.95506e-232
2.40394e-234
2.80371e-236
3.09252e-238
3.21544e-240
3.13999e-242
2.86806e-244
2.43892e-246
1.92061e-248
1.39199e-250
9.21865e-253
5.53122e-255
2.97596e-257
1.4177e-259
5.88497e-262
2.0847e-264
6.1255e-267
1.4329e-269
2.5013e-272
2.89634e-275
1.67017e-278
1.95257e-278
3.40677e-275
2.94873e-272
1.69089e-269
7.2311e-267
2.461e-264
6.94571e-262
1.67259e-259
3.50922e-257
6.51843e-255
1.08566e-252
1.63812e-250
2.25841e-248
2.8655e-246
3.36678e-244
3.68266e-242
3.76764e-240
3.62014e-238
3.27881e-236
2.80845e-234
2.28167e-232
1.76293e-230
1.29855e-228
9.13879e-227
6.15739e-225
3.97911e-223
2.47057e-221
1.47607e-219
8.49847e-218
4.72147e-216
2.53423e-214
1.31565e-212
6.61313e-211
3.22152e-209
1.52223e-207
6.98251e-206
3.11147e-204
1.3478e-202
5.67859e-201
2.32826e-199
9.29373e-198
3.61305e-196
1.36839e-194
5.05001e-193
1.81625e-191
6.36613e-190
2.17456e-188
7.23432e-187
2.12983e-185
5.51863e-184
1.25192e-182
2.47456e-181
4.24433e-180
6.29703e-179
8.06491e-178
8.9095e-177
8.49344e-176
7.00054e-175
5.01146e-174
3.14151e-173
1.741e-172
8.57603e-172
3.75772e-171
1.46776e-170
5.16211e-170
1.65708e-169
4.91431e-169
1.35812e-168
3.49853e-168
8.39682e-168
1.88193e-167
3.96059e-167
7.87406e-167
1.48641e-166
2.67324e-166
4.60312e-166
7.61933e-166
1.21674e-165
1.87941e-165
2.81268e-165
4.08399e-165
5.76172e-165
7.91039e-165
1.05856e-164
1.38252e-164
1.76408e-164
2.20212e-164
2.69252e-164
3.22811e-164
3.79883e-164
4.39176e-164
4.99175e-164
5.58215e-164
6.14585e-164
6.6648e-164
7.09818e-164
7.21645e-164
5.66134e-164
6.72983e-165
2.69631e-173
9.26661e-171
1.17962e-162
8.92487e-162
1.11763e-161
1.09946e-161
1.03722e-161
9.62274e-162
8.79947e-162
7.92709e-162
7.03056e-162
6.13476e-162
5.26289e-162
4.43522e-162
3.66815e-162
2.97414e-162
2.36132e-162
1.8334e-162
1.39078e-162
1.02937e-162
7.42124e-163
5.20322e-163
3.54244e-163
2.33865e-163
1.49456e-163
9.22246e-164
5.47642e-164
3.11804e-164
1.69463e-164
8.76836e-165
4.29822e-165
1.98355e-165
8.56487e-166
3.44989e-166
1.29589e-166
4.53764e-167
1.46987e-167
4.35781e-168
1.16664e-168
2.78938e-169
5.93826e-170
1.1246e-170
1.88429e-171
2.76523e-172
3.5235e-173
3.87989e-174
3.6843e-175
3.01502e-176
2.12746e-177
1.29674e-178
6.84808e-180
3.14577e-181
1.26286e-182
4.45339e-184
1.38699e-185
4.18514e-187
1.22936e-188
3.5159e-190
9.7902e-192
2.6541e-193
7.00399e-195
1.79875e-196
4.49426e-198
1.09203e-199
2.57928e-201
5.91854e-203
1.31861e-204
2.85039e-206
5.97375e-208
1.21277e-209
2.38282e-211
4.52634e-213
8.30361e-215
1.46935e-216
2.5047e-218
4.10711e-220
6.4684e-222
9.76799e-224
1.41177e-225
1.94896e-227
2.56432e-229
3.20791e-231
3.80544e-233
4.26818e-235
4.5115e-237
4.4777e-239
4.15588e-241
3.59023e-243
2.87158e-245
2.11343e-247
1.42102e-249
8.6547e-252
4.7258e-254
2.2844e-256
9.62042e-259
3.45686e-261
1.03015e-263
2.44355e-266
4.32466e-269
5.07635e-272
2.96697e-275
3.51455e-275
6.04951e-272
5.16491e-269
2.92097e-266
1.23178e-263
4.13322e-261
1.14992e-258
2.72924e-256
5.64272e-254
1.03268e-251
1.69427e-249
2.51776e-247
3.41795e-245
4.2694e-243
4.93732e-241
5.31439e-239
5.34902e-237
5.0552e-235
4.50226e-233
3.79111e-231
3.02707e-229
2.298e-227
1.66262e-225
1.14897e-223
7.59904e-222
4.81888e-220
2.93495e-218
1.71946e-216
9.70378e-215
5.28219e-213
2.77673e-211
1.41117e-209
6.94055e-208
3.30656e-206
1.5272e-204
6.84354e-203
2.97736e-201
1.25839e-199
5.16966e-198
2.06527e-196
8.02658e-195
3.03569e-193
1.11754e-191
4.00508e-190
1.39743e-188
4.74687e-187
1.56958e-185
5.0297e-184
1.42187e-182
3.52668e-181
7.63515e-180
1.43619e-178
2.33827e-177
3.286e-176
3.97996e-175
4.15374e-174
3.73922e-173
2.91032e-172
1.96831e-171
1.16704e-170
6.12668e-170
2.86265e-169
1.19165e-168
4.4335e-168
1.49062e-167
4.58933e-167
1.30755e-166
3.47438e-166
8.61141e-166
1.99148e-165
4.31008e-165
8.78348e-165
1.69612e-164
3.11871e-164
5.47431e-164
9.21432e-164
1.49266e-163
2.33504e-163
3.53639e-163
5.19381e-163
7.40774e-163
1.02758e-162
1.38858e-162
1.83094e-162
2.35888e-162
2.97222e-162
3.66755e-162
4.43708e-162
5.26883e-162
6.14688e-162
7.05151e-162
7.96017e-162
8.8486e-162
9.69234e-162
1.04659e-161
1.11093e-161
1.12779e-161
8.90554e-162
1.12927e-162
8.06317e-171
2.10645e-168
1.50692e-160
1.07503e-159
1.34019e-159
1.32012e-159
1.24872e-159
1.16274e-159
1.06823e-159
9.67774e-160
8.64025e-160
7.59687e-160
6.57342e-160
5.59303e-160
4.67507e-160
3.83501e-160
3.08376e-160
2.42758e-160
1.86933e-160
1.40607e-160
1.0313e-160
7.36354e-161
5.11018e-161
3.44189e-161
2.24602e-161
1.41646e-161
8.60601e-162
5.02092e-162
2.80196e-162
1.49308e-162
7.56203e-163
3.61617e-163
1.62179e-163
6.7948e-164
2.65631e-164
9.68582e-165
3.27272e-165
1.01578e-165
2.85839e-166
7.20297e-167
1.61841e-167
3.23881e-168
5.7444e-169
8.93588e-170
1.20767e-170
1.41063e-171
1.42045e-172
1.23153e-173
9.19284e-175
5.91553e-176
3.29002e-177
1.58727e-178
6.67251e-180
2.45632e-181
7.96073e-183
2.48775e-184
7.55869e-186
2.23341e-187
6.41831e-189
1.79394e-190
4.87631e-192
1.28883e-193
3.31136e-195
8.26754e-197
2.00505e-198
4.72099e-200
1.07859e-201
2.3895e-203
5.12942e-205
1.06608e-206
2.14326e-208
4.16389e-210
7.80892e-212
1.41201e-213
2.45854e-215
4.11626e-217
6.6168e-219
1.0195e-220
1.50292e-222
2.11556e-224
2.83733e-226
3.61702e-228
4.3712e-230
4.99335e-232
5.37417e-234
5.42974e-236
5.12881e-238
4.50824e-240
3.6681e-242
2.74568e-244
1.87722e-246
1.16234e-248
6.4512e-251
3.16911e-253
1.35608e-255
4.95016e-258
1.49833e-260
3.60937e-263
6.48621e-266
7.72947e-269
4.58563e-272
5.51168e-272
9.34527e-269
7.85828e-266
4.37642e-263
1.81711e-260
6.00234e-258
1.64366e-255
3.839e-253
7.80945e-251
1.40596e-248
2.26871e-246
3.31522e-244
4.42464e-242
5.4325e-240
6.17375e-238
6.52882e-236
6.45471e-234
5.99037e-232
5.23776e-230
4.32879e-228
3.39143e-226
2.52548e-224
1.7918e-222
1.21385e-220
7.8674e-219
4.88744e-217
2.91499e-215
1.67172e-213
9.23142e-212
4.91486e-210
2.52583e-208
1.25435e-206
6.02531e-205
2.80207e-203
1.26261e-201
5.51654e-200
2.33859e-198
9.62456e-197
3.84734e-195
1.49442e-193
5.64247e-192
2.07137e-190
7.39463e-189
2.56732e-187
8.6685e-186
2.84614e-184
9.08482e-183
2.79685e-181
7.57091e-180
1.7923e-178
3.69218e-177
6.58969e-176
1.01543e-174
1.34783e-173
1.53966e-172
1.51425e-171
1.28425e-170
9.41917e-170
6.00749e-169
3.36409e-168
1.67092e-167
7.39566e-167
2.92058e-166
1.03372e-165
3.31991e-165
9.79898e-165
2.68082e-164
6.84422e-164
1.63082e-163
3.63109e-163
7.58388e-163
1.49587e-162
2.80486e-162
5.02279e-162
8.60402e-162
1.41543e-161
2.24349e-161
3.43709e-161
5.10218e-161
7.35121e-161
1.02955e-160
1.40378e-160
1.86655e-160
2.4245e-160
3.0807e-160
3.83251e-160
4.674e-160
5.59458e-160
6.57919e-160
7.60886e-160
8.66086e-160
9.70972e-160
1.07287e-159
1.16912e-159
1.25701e-159
1.32978e-159
1.3479e-159
1.07097e-159
1.44921e-160
1.86146e-168
3.82849e-166
1.51613e-158
1.01727e-157
1.26256e-157
1.24567e-157
1.18187e-157
1.10481e-157
1.01994e-157
9.29384e-158
8.35356e-158
7.40155e-158
6.46029e-158
5.55037e-158
4.68953e-158
3.89257e-158
3.1707e-158
2.53124e-158
1.97918e-158
1.51346e-158
1.12978e-158
8.21844e-159
5.81642e-159
3.99857e-159
2.66533e-159
1.71844e-159
1.06851e-159
6.38895e-160
3.66161e-160
2.01006e-160
1.05238e-160
5.21857e-161
2.43312e-161
1.0614e-161
4.32205e-162
1.64213e-162
5.7908e-163
1.88329e-163
5.57804e-164
1.48384e-164
3.52381e-165
7.46167e-166
1.40311e-166
2.31822e-167
3.33046e-168
4.13657e-169
4.42869e-170
4.07953e-171
3.23102e-172
2.20179e-173
1.29373e-174
6.57637e-176
2.90421e-177
1.11962e-178
3.78773e-180
1.22951e-181
3.87497e-183
1.18611e-184
3.52694e-186
1.01889e-187
2.85963e-189
7.79656e-191
2.06452e-192
5.30808e-194
1.32465e-195
3.20709e-197
7.52907e-199
1.71288e-200
3.77366e-202
8.04477e-204
1.65806e-205
3.30072e-207
6.33983e-209
1.17356e-210
2.09095e-212
3.5809e-214
5.88562e-216
9.26893e-218
1.39612e-219
2.0073e-221
2.74891e-223
3.57712e-225
4.41153e-227
5.14121e-229
5.64357e-231
5.81406e-233
5.59847e-235
5.01542e-237
4.15806e-239
3.1707e-241
2.20791e-243
1.3921e-245
7.86617e-248
3.93335e-250
1.71289e-252
6.36216e-255
1.95911e-257
4.80031e-260
8.77293e-263
1.06303e-265
6.41154e-269
7.83116e-269
1.30588e-265
1.0798e-262
5.91244e-260
2.41318e-257
7.83459e-255
2.10822e-252
4.83788e-250
9.66733e-248
1.70932e-245
2.70838e-243
3.88536e-241
5.08972e-239
6.1322e-237
6.83701e-235
7.09169e-233
6.87514e-231
6.25513e-229
5.36032e-227
4.34061e-225
3.33106e-223
2.42898e-221
1.68699e-219
1.11836e-217
7.0908e-216
4.30755e-214
2.51133e-212
1.40725e-210
7.58977e-209
3.94484e-207
1.97821e-205
9.58114e-204
4.48619e-202
2.0325e-200
8.91686e-199
3.79074e-197
1.56254e-195
6.2483e-194
2.42498e-192
9.13755e-191
3.34385e-189
1.18862e-187
4.10452e-186
1.37691e-184
4.48674e-183
1.41985e-181
4.36204e-180
1.28606e-178
3.32269e-177
7.48312e-176
1.46199e-174
2.46775e-173
3.58762e-172
4.48419e-171
4.81718e-170
4.45262e-169
3.54898e-168
2.4473e-167
1.46902e-166
7.75717e-166
3.6406e-165
1.52419e-164
5.70092e-164
1.917e-163
5.87588e-163
1.66176e-162
4.36277e-162
1.06926e-161
2.4469e-161
5.24057e-161
1.05552e-160
2.01403e-160
3.66585e-160
6.39214e-160
1.06839e-159
1.71738e-159
2.66263e-159
3.99341e-159
5.80789e-159
8.20542e-159
1.12795e-158
1.51109e-158
1.97633e-158
2.52805e-158
3.16747e-158
3.88976e-158
4.68784e-158
5.55073e-158
6.46395e-158
7.40995e-158
8.36836e-158
9.31681e-158
1.02323e-157
1.10924e-157
1.18748e-157
1.25196e-157
1.26699e-157
1.01267e-157
1.46405e-158
3.42566e-166
5.67562e-164
1.22248e-156
7.69122e-156
9.50306e-156
9.39268e-156
8.94053e-156
8.39191e-156
7.78604e-156
7.13684e-156
6.45886e-156
5.76765e-156
5.07871e-156
4.40652e-156
3.76391e-156
3.16197e-156
2.60962e-156
2.11327e-156
1.67846e-156
1.30543e-156
9.92291e-157
7.358e-157
5.3137e-157
3.73063e-157
2.54146e-157
1.67588e-157
1.06677e-157
6.53882e-158
3.84949e-158
2.17776e-158
1.17932e-158
6.06911e-159
2.94485e-159
1.33917e-159
5.68621e-160
2.25286e-160
8.29648e-161
2.82998e-161
8.83584e-162
2.48567e-162
6.24888e-163
1.40203e-163
2.79998e-164
4.92414e-165
7.53799e-166
9.98113e-167
1.13932e-167
1.11838e-168
9.42778e-170
6.82588e-171
4.25161e-172
2.28493e-173
1.0637e-174
4.30926e-176
1.52696e-177
5.16436e-179
1.6932e-180
5.38404e-182
1.66094e-183
4.97202e-185
1.44438e-186
4.07185e-188
1.11381e-189
2.95558e-191
7.60606e-193
1.89753e-194
4.58695e-196
1.07379e-197
2.43271e-199
5.32985e-201
1.12832e-202
2.3059e-204
4.54455e-206
8.62774e-208
1.57586e-209
2.76543e-211
4.65573e-213
7.50728e-215
1.15738e-216
1.70261e-218
2.38489e-220
3.17329e-222
4.00042e-224
4.76425e-226
5.34289e-228
5.62186e-230
5.5276e-232
5.05518e-234
4.27738e-236
3.32814e-238
2.36424e-240
1.52038e-242
8.76048e-245
4.46605e-247
1.98244e-249
7.50423e-252
2.35456e-254
5.87749e-257
1.09411e-259
1.35015e-262
8.29161e-266
1.03093e-265
1.68807e-262
1.3704e-259
7.36581e-257
2.95064e-254
9.40019e-252
2.48172e-249
5.5863e-247
1.09478e-244
1.89804e-242
2.94824e-240
4.14539e-238
5.32122e-236
6.28085e-234
6.85883e-232
6.96639e-230
6.61155e-228
5.88716e-226
4.93613e-224
3.90974e-222
2.93392e-220
2.09133e-218
1.41937e-216
9.19185e-215
5.69103e-213
3.3747e-211
1.91973e-209
1.04919e-207
5.51651e-206
2.79389e-204
1.36451e-202
6.433e-201
2.93035e-199
1.29079e-197
5.50231e-196
2.27126e-194
9.08375e-193
3.52167e-191
1.32399e-189
4.82844e-188
1.70846e-186
5.86582e-185
1.95429e-183
6.31753e-182
1.98113e-180
6.02479e-179
1.77595e-177
4.99711e-176
1.22793e-174
2.62153e-173
4.84033e-172
7.70007e-171
1.05259e-169
1.23488e-168
1.24374e-167
1.07739e-166
8.04944e-166
5.20606e-165
2.93469e-164
1.45882e-163
6.46024e-163
2.55423e-162
9.03241e-162
2.88121e-161
8.42044e-161
2.28034e-160
5.74073e-160
1.34922e-159
2.96173e-159
6.09509e-159
1.18293e-158
2.18225e-158
3.85432e-158
6.54277e-158
1.06675e-157
1.67499e-157
2.5391e-157
3.72612e-157
5.30631e-157
7.34683e-157
9.90737e-157
1.30343e-156
1.67606e-156
2.11057e-156
2.60681e-156
3.15936e-156
3.76194e-156
4.40577e-156
5.07993e-156
5.77167e-156
6.46656e-156
7.14913e-156
7.8037e-156
8.41551e-156
8.96987e-156
9.42443e-156
9.52178e-156
7.65424e-156
1.18477e-156
5.13123e-164
6.95255e-162
7.97462e-155
4.68628e-154
5.76392e-154
5.70766e-154
5.45131e-154
5.13851e-154
4.79201e-154
4.41903e-154
4.02719e-154
3.62487e-154
3.22057e-154
2.8224e-154
2.4377e-154
2.07306e-154
1.73399e-154
1.42484e-154
1.15007e-154
9.10252e-155
7.04982e-155
5.3323e-155
3.9323e-155
2.82158e-155
1.96583e-155
1.32658e-155
8.6487e-156
5.43633e-156
3.28851e-156
1.91804e-156
1.07502e-156
5.74671e-157
2.90555e-157
1.37942e-157
6.11559e-158
2.52912e-158
9.73382e-159
3.48625e-159
1.14935e-159
3.42624e-160
9.13445e-161
2.17485e-161
4.62148e-162
8.67187e-163
1.41821e-163
2.00741e-164
2.45025e-165
2.57119e-166
2.31468e-167
1.78673e-168
1.18396e-169
6.75184e-171
3.32568e-172
1.42105e-173
5.29347e-175
1.87136e-176
6.40224e-178
2.12093e-179
6.80676e-181
2.11696e-182
6.3815e-184
1.86468e-185
5.28132e-187
1.44969e-188
3.85571e-190
9.93305e-192
2.47758e-193
5.98024e-195
1.39601e-196
3.14948e-198
6.86151e-200
1.44227e-201
2.92205e-203
5.69989e-205
1.06919e-206
1.92608e-208
3.32728e-210
5.50302e-212
8.69851e-214
1.31153e-215
1.88225e-217
2.56521e-219
3.31119e-221
4.03654e-223
4.63236e-225
4.98654e-227
5.01457e-229
4.68922e-231
4.05606e-233
3.22542e-235
2.3412e-237
1.53803e-239
9.05132e-242
4.71183e-244
2.13532e-246
8.25047e-249
2.64186e-251
6.72883e-254
1.27784e-256
1.60837e-259
1.00728e-262
1.2774e-262
2.05068e-259
1.63192e-256
8.59679e-254
3.37459e-251
1.0533e-248
2.72391e-246
6.00492e-244
1.15229e-241
1.95572e-239
2.97329e-237
4.09088e-235
5.13736e-233
5.93091e-231
6.33316e-229
6.28833e-227
5.83273e-225
5.07453e-223
4.15597e-221
3.21439e-219
2.35465e-217
1.63789e-215
1.08441e-213
6.84815e-212
4.13305e-210
2.38807e-208
1.32313e-206
7.03991e-205
3.60183e-203
1.77417e-201
8.42283e-200
3.85783e-198
1.70622e-196
7.29256e-195
3.01423e-193
1.20556e-191
4.66807e-190
1.75067e-188
6.36111e-187
2.23987e-185
7.6442e-184
2.52857e-182
8.10622e-181
2.51813e-179
7.57729e-178
2.20761e-176
6.22346e-175
1.66504e-173
3.87667e-172
7.81587e-171
1.35866e-169
2.02949e-168
2.59929e-167
2.85244e-166
2.68484e-165
2.17311e-164
1.51767e-163
9.18195e-163
4.84895e-162
2.26489e-161
9.44949e-161
3.52191e-160
1.17511e-159
3.54995e-159
9.88157e-159
2.56056e-158
6.17511e-158
1.38986e-157
2.9223e-157
5.77154e-157
1.07837e-156
1.92212e-156
3.2929e-156
5.44011e-156
8.64924e-156
1.32598e-155
1.96414e-155
2.81835e-155
3.92707e-155
5.32449e-155
7.03908e-155
9.08879e-155
1.14842e-154
1.42298e-154
1.73201e-154
2.07111e-154
2.43602e-154
2.82126e-154
3.22034e-154
3.62592e-154
4.0299e-154
4.42375e-154
4.79902e-154
5.14797e-154
5.463e-154
5.71986e-154
5.76904e-154
4.66359e-154
7.7534e-155
6.34144e-162
7.09428e-160
4.22159e-153
2.30529e-152
2.82222e-152
2.8001e-152
2.6837e-152
2.54072e-152
2.38185e-152
2.21002e-152
2.02841e-152
1.84059e-152
1.65028e-152
1.46108e-152
1.27631e-152
1.09906e-152
9.32001e-153
7.77403e-153
6.38038e-153
5.1425e-153
4.06117e-153
3.13588e-153
2.36374e-153
1.73511e-153
1.23746e-153
8.55266e-154
5.71472e-154
3.68554e-154
2.29173e-154
1.3788e-154
8.00439e-155
4.44935e-155
2.3476e-155
1.16565e-155
5.40515e-156
2.33619e-156
9.4056e-157
3.54149e-157
1.23521e-157
3.91105e-158
1.10806e-158
2.8044e-159
6.35411e-160
1.27561e-160
2.23503e-161
3.39171e-162
4.44093e-163
4.99858e-164
4.82265e-165
3.98366e-166
2.81905e-167
1.7126e-168
8.96087e-170
4.05466e-171
1.59405e-172
5.91072e-174
2.11686e-175
7.32832e-177
2.4538e-178
7.95055e-180
2.49351e-181
7.57109e-183
2.22571e-184
6.33456e-186
1.74517e-187
4.65281e-189
1.20005e-190
2.99285e-192
7.21334e-194
1.67907e-195
3.77188e-197
8.17019e-199
1.70481e-200
3.42317e-202
6.60653e-204
1.2239e-205
2.1733e-207
3.69324e-209
5.99591e-211
9.28172e-213
1.36713e-214
1.91157e-216
2.53071e-218
3.16319e-220
3.72089e-222
4.10437e-224
4.2283e-226
4.04951e-228
3.58647e-230
2.91947e-232
2.16873e-234
1.45776e-236
8.77589e-239
4.67233e-241
2.16511e-243
8.55229e-246
2.79907e-248
7.2855e-251
1.41361e-253
1.81757e-256
1.16258e-259
1.50724e-259
2.36863e-256
1.84487e-253
9.51037e-251
3.65253e-248
1.1152e-245
2.82058e-243
6.08006e-241
1.14059e-238
1.8921e-236
2.81094e-234
3.77839e-232
4.6345e-230
5.22459e-228
5.44637e-226
5.27793e-224
4.77663e-222
4.05361e-220
3.23732e-218
2.44085e-216
1.74243e-214
1.18073e-212
7.61266e-211
4.67985e-209
2.74832e-207
1.54454e-205
8.31977e-204
4.3016e-202
2.13757e-200
1.0221e-198
4.70776e-197
2.09071e-195
8.95983e-194
3.70816e-192
1.48303e-190
5.73475e-189
2.1451e-187
7.76432e-186
2.72016e-184
9.22538e-183
3.02897e-181
9.62718e-180
2.96152e-178
8.81462e-177
2.53727e-175
7.05885e-174
1.89651e-172
4.80513e-171
1.0557e-169
2.00177e-168
3.26284e-167
4.55828e-166
5.44882e-165
5.57275e-164
4.88499e-163
3.6826e-162
2.397e-161
1.35262e-160
6.67371e-160
2.923e-159
1.14699e-158
4.02139e-158
1.26302e-157
3.60672e-157
9.5505e-157
2.36576e-156
5.4584e-156
1.17452e-155
2.36115e-155
4.46867e-155
8.02958e-155
1.38181e-154
2.29497e-154
3.6884e-154
5.71549e-154
8.54933e-154
1.23648e-153
1.73323e-153
2.36074e-153
3.13144e-153
4.05513e-153
5.13487e-153
6.37127e-153
7.76361e-153
9.30869e-153
1.0979e-152
1.27523e-152
1.46017e-152
1.64969e-152
1.84045e-152
2.02885e-152
2.21116e-152
2.38375e-152
2.54342e-152
2.68708e-152
2.80345e-152
2.82255e-152
2.29437e-152
4.11635e-153
6.52098e-160
6.05477e-158
1.8084e-151
9.11287e-151
1.11031e-150
1.10381e-150
1.06176e-150
1.00968e-150
9.51634e-151
8.8856e-151
8.21484e-151
7.51609e-151
6.80212e-151
6.08551e-151
5.37808e-151
4.69105e-151
4.03461e-151
3.4178e-151
2.85425e-151
2.34461e-151
1.88975e-151
1.49116e-151
1.15029e-151
8.64906e-152
6.32216e-152
4.48031e-152
3.07115e-152
2.03373e-152
1.30076e-152
8.07811e-153
4.86197e-153
2.81384e-153
1.55214e-153
8.07827e-154
3.92657e-154
1.77673e-154
7.49185e-155
2.96999e-155
1.09831e-155
3.7041e-156
1.11797e-156
3.01368e-157
7.29811e-158
1.57238e-158
2.96102e-159
4.83289e-160
6.81141e-161
8.25383e-162
8.56738e-163
7.6034e-164
5.76983e-165
3.74994e-166
2.09323e-167
1.00732e-168
4.19753e-170
1.63853e-171
6.16435e-173