/*--------------------------------*- C++ -*----------------------------------*\
| =========                 |                                                 |
| \\      /  F ield         | OpenFOAM: The Open Source CFD Toolbox           |
|  \\    /   O peration     | Version:  2412                                  |
|   \\  /    A nd           | Website:  www.openfoam.com                      |
|    \\/     M anipulation  |                                                 |
\*---------------------------------------------------------------------------*/
FoamFile
{
    version     2.0;
    format      ascii;
    arch        "LSB;label=32;scalar=64";
    class       surfaceScalarField;
    location    "1.22";
    object      alphaPhi0.water;
}
// * * * * * * * * * * * * * * * * * * * * * * * * * * * * * * * * * * * * * //

dimensions      [0 3 -1 0 0 0 0];

oriented        oriented;

internalField   nonuniform List<scalar> 
79600
(
6.3664e-196
-2.04752e-192
3.76016e-186
-4.49565e-183
6.87753e-185
-4.94465e-182
1.32972e-184
-6.68152e-182
1.75843e-184
-6.73399e-182
2.06057e-184
-6.36425e-182
2.25222e-184
-5.8304e-182
2.33893e-184
-5.21625e-182
2.32953e-184
-4.56812e-182
2.23707e-184
-3.91827e-182
2.07764e-184
-3.29096e-182
1.86922e-184
-2.70488e-182
1.6305e-184
-2.17383e-182
1.3793e-184
-1.70653e-182
1.13138e-184
-1.3071e-182
8.99436e-185
-9.7555e-183
6.92495e-185
-7.08471e-183
5.15981e-185
-5.00019e-183
3.7176e-185
-3.42516e-183
2.58707e-185
-2.2737e-183
1.73687e-185
-1.46043e-183
1.12368e-185
-9.06345e-184
6.99744e-186
-5.42703e-184
4.1871e-186
-3.12943e-184
2.40067e-186
-1.73267e-184
1.31327e-186
-9.17208e-185
6.82e-187
-4.61911e-185
3.34074e-187
-2.19926e-185
1.53482e-187
-9.84639e-186
6.57535e-188
-4.12135e-186
2.61343e-188
-1.60395e-186
9.6025e-189
-5.77976e-187
3.26169e-189
-1.92698e-187
1.02638e-189
-5.95337e-188
2.9884e-190
-1.70229e-188
7.96026e-191
-4.45691e-189
1.90817e-191
-1.05181e-189
4.05607e-192
-2.20456e-190
7.58782e-193
-4.06938e-191
1.24926e-193
-6.60864e-192
1.80953e-194
-9.43344e-193
2.29285e-195
-1.17642e-193
2.51933e-196
-1.26985e-194
2.38319e-197
-1.17683e-195
1.93248e-198
-9.31272e-197
1.34008e-199
-6.26889e-198
7.935e-201
-3.57716e-199
4.00547e-202
-1.72239e-200
1.71882e-203
-6.94447e-202
6.23414e-205
-2.30979e-203
1.88777e-206
-6.13155e-205
4.64196e-208
-1.18687e-206
8.62317e-210
-1.08838e-208
1.27555e-211
6.89524e-215
1.85411e-213
2.92046e-216
2.64737e-215
6.94164e-218
3.71148e-217
1.36599e-219
5.10634e-219
2.42732e-221
6.89049e-221
4.02732e-223
9.11356e-223
6.34049e-225
1.18066e-224
9.5562e-227
1.49707e-226
1.38601e-228
1.85655e-228
1.94064e-230
2.24988e-230
2.62824e-232
2.6621e-232
3.44689e-234
3.07252e-234
4.38019e-236
3.45569e-236
5.39449e-238
3.78336e-238
6.43795e-240
4.02733e-240
7.44247e-242
4.16303e-242
8.32896e-244
4.17325e-244
9.01611e-246
4.05123e-246
9.43153e-248
3.80263e-248
9.52358e-250
3.44552e-250
9.27112e-252
3.00845e-252
8.6891e-254
2.5266e-254
7.82814e-256
2.03688e-256
6.76778e-258
1.57287e-258
5.60446e-260
1.16068e-260
4.43654e-262
8.16428e-263
3.34982e-264
5.45904e-265
2.40665e-266
3.45931e-267
1.64082e-268
2.07054e-269
1.05847e-270
1.16622e-271
6.43941e-273
6.15557e-274
3.68104e-275
3.03041e-276
1.96909e-277
1.38402e-278
9.81086e-280
5.82774e-281
4.52871e-282
2.24612e-283
1.92482e-284
7.8563e-286
7.47869e-287
2.46817e-288
2.63373e-289
6.87682e-291
8.32063e-292
1.67225e-293
2.32851e-294
3.47568e-296
5.68044e-297
6.00146e-299
1.18305e-299
8.26265e-302
2.04451e-302
8.50192e-305
2.81395e-305
5.81166e-308
2.89115e-308
1.98129e-311
1.97103e-311
2.66631e-317
6.69294e-315
-2.29909e-311
7.7978e-315
-6.77442e-308
2.30549e-311
-9.91856e-305
3.38356e-308
-9.63652e-302
3.29156e-305
-6.99371e-299
2.38922e-302
-4.04597e-296
1.38084e-299
-1.94423e-293
6.62126e-297
-7.98469e-291
2.71031e-294
-2.86181e-288
9.67074e-292
-9.09632e-286
3.05651e-289
-2.59689e-283
8.66624e-287
-6.72805e-281
2.22713e-284
-1.59551e-278
5.23216e-282
-3.48842e-276
1.13179e-279
-7.07571e-274
2.2682e-277
-1.33863e-271
4.23393e-275
-2.37326e-269
7.39577e-273
-3.95948e-267
1.21392e-270
-6.23961e-265
1.8791e-268
-9.31871e-263
2.75227e-266
-1.32297e-260
3.82557e-264
-1.79035e-258
5.05962e-262
-2.31536e-256
6.38276e-260
-2.86815e-254
7.69709e-258
-3.41055e-252
8.89102e-256
-3.9008e-250
9.85567e-254
-4.29934e-248
1.05017e-251
-4.57428e-246
1.07732e-249
-4.70571e-244
1.06548e-247
-4.68784e-242
1.0172e-245
-4.52882e-240
9.38443e-244
-4.24858e-238
8.37464e-242
-3.87515e-236
7.23478e-240
-3.4405e-234
6.05396e-238
-2.97654e-232
4.90875e-236
-2.51184e-230
3.85737e-234
-2.0695e-228
2.93713e-232
-1.66613e-226
2.16562e-230
-1.31183e-224
1.54444e-228
-1.0109e-222
1.06332e-226
-7.62975e-221
7.04442e-225
-5.64405e-219
4.46741e-223
-4.09474e-217
2.68856e-221
-2.9152e-215
1.51088e-219
-2.0377e-213
7.66797e-218
-1.39906e-211
3.22456e-216
-9.43919e-210
7.65808e-215
-5.07884e-208
-1.18183e-208
-2.06068e-206
-1.29721e-206
-6.78146e-205
-6.69247e-205
-1.86146e-203
-2.51306e-203
-4.31541e-202
-7.52246e-202
-8.49972e-201
-1.85613e-200
-1.42657e-199
-3.83274e-199
-2.04401e-198
-6.67466e-198
-2.5045e-197
-9.85091e-197
-2.63094e-196
-1.23671e-195
-2.38024e-195
-1.32593e-194
-1.86837e-194
-1.221e-193
-1.28367e-193
-9.73761e-193
-7.76257e-193
-6.78859e-192
-4.13244e-192
-4.16168e-191
-1.93683e-191
-2.24526e-190
-8.05409e-191
-1.06724e-189
-3.01568e-190
-4.50809e-189
-1.03351e-189
-1.71731e-188
-3.27877e-189
-5.99277e-188
-9.6381e-189
-1.93637e-187
-2.61954e-188
-5.79896e-187
-6.58282e-188
-1.60706e-186
-1.53498e-187
-4.12432e-186
-3.33812e-187
-9.84333e-186
-6.80933e-187
-2.19664e-185
-1.31025e-186
-4.6099e-185
-2.39355e-186
-9.14673e-185
-4.17238e-186
-1.72669e-184
-6.97028e-186
-3.11675e-184
-1.11911e-185
-5.4027e-184
-1.72969e-185
-9.02051e-184
-2.57649e-185
-1.45331e-183
-3.70281e-185
-2.2625e-183
-5.14003e-185
-3.40829e-183
-6.89947e-185
-4.97565e-183
-8.96272e-185
-7.0501e-183
-1.12766e-184
-9.70785e-183
-1.37524e-184
-1.30074e-182
-1.62656e-184
-1.69845e-182
-1.86613e-184
-2.16401e-182
-2.07643e-184
-2.69354e-182
-2.23912e-184
-3.27894e-182
-2.33681e-184
-3.90719e-182
-2.35481e-184
-4.56127e-182
-2.28262e-184
-5.22084e-182
-2.11458e-184
-5.86314e-182
-1.84452e-184
-6.462e-182
-1.4359e-184
-6.96147e-182
-7.50309e-185
-7.0751e-182
-3.78e-186
-5.26517e-182
-4.92266e-196
-4.42678e-183
-1.60057e-192
4.09347e-192
-6.54691e-189
1.29864e-182
-7.94877e-180
2.11211e-181
-7.99351e-179
3.89625e-181
-1.04978e-178
5.02946e-181
-1.04511e-178
5.82987e-181
-9.84808e-179
6.35441e-181
-9.0448e-179
6.60984e-181
-8.13398e-179
6.6108e-181
-7.17014e-179
6.38552e-181
-6.19655e-179
5.97274e-181
-5.24841e-179
5.41821e-181
-4.35396e-179
4.7708e-181
-3.53482e-179
4.07825e-181
-2.80567e-179
3.38411e-181
-2.17476e-179
2.72459e-181
-1.6442e-179
2.1268e-181
-1.21079e-179
1.60849e-181
-8.67422e-180
1.17764e-181
-6.0378e-180
8.33709e-182
-4.07689e-180
5.7005e-182
-2.66635e-180
3.76022e-182
-1.68657e-180
2.39018e-182
-1.03037e-180
1.46168e-182
-6.06852e-181
8.57624e-183
-3.43583e-181
4.80856e-183
-1.8624e-181
2.56413e-183
-9.61985e-182
1.29257e-183
-4.70724e-182
6.12776e-184
-2.17147e-182
2.71679e-184
-9.39043e-183
1.12057e-184
-3.78533e-183
4.28284e-185
-1.41577e-183
1.5161e-185
-4.90711e-184
4.97986e-186
-1.57805e-184
1.51635e-186
-4.70361e-185
4.2361e-187
-1.28632e-185
1.06919e-187
-3.17995e-186
2.40344e-188
-7.00356e-187
4.77387e-189
-1.362e-187
8.37524e-190
-2.33565e-188
1.29761e-190
-3.52831e-189
1.76643e-191
-4.6663e-190
2.0957e-192
-5.35132e-191
2.15274e-193
-5.27757e-192
1.90806e-194
-4.45198e-193
1.45781e-195
-3.20105e-194
9.60595e-197
-1.95605e-195
5.46714e-198
-1.01227e-196
2.69318e-199
-4.41186e-198
1.1509e-200
-1.6019e-199
4.27457e-202
-4.73055e-201
1.38067e-203
-1.06688e-202
3.87009e-205
-1.43837e-204
9.61212e-207
3.71275e-210
2.33528e-208
4.67292e-211
5.54869e-210
2.01545e-212
1.28904e-211
6.81183e-214
2.92708e-213
2.03773e-215
6.49427e-215
5.62941e-217
1.40721e-216
1.46471e-218
2.97642e-218
3.62742e-220
6.14155e-220
8.60344e-222
1.23543e-221
1.9616e-223
2.42103e-223
4.3095e-225
4.61817e-225
9.1356e-227
8.56753e-227
1.87021e-228
1.54438e-228
3.69865e-230
2.70231e-230
7.06653e-232
4.585e-232
1.30398e-233
7.53483e-234
2.32297e-235
1.19787e-235
3.99248e-237
1.83987e-237
6.61486e-239
2.72643e-239
1.05551e-240
3.89209e-241
1.62028e-242
5.34378e-243
2.38976e-244
7.04419e-245
3.38173e-246
8.89831e-247
4.58418e-248
1.07494e-248
5.9424e-250
1.23904e-250
7.35199e-252
1.35939e-252
8.66292e-254
1.41577e-254
9.69881e-256
1.39553e-256
1.02904e-257
1.29762e-258
1.03169e-259
1.13402e-260
9.74233e-262
9.27603e-263
8.63373e-264
7.06865e-265
7.15126e-266
4.99137e-267
5.51061e-268
3.24586e-269
3.92954e-270
1.92989e-271
2.57716e-272
1.04019e-273
1.54339e-274
5.03035e-276
8.36846e-277
2.15514e-278
4.06615e-279
8.04994e-281
1.74818e-281
2.56733e-283
6.54501e-284
6.79508e-286
2.08972e-286
1.43252e-288
5.53067e-289
2.25469e-291
1.16453e-291
2.35501e-294
1.82851e-294
1.22528e-297
1.90304e-297
2.17733e-303
9.8537e-301
-1.4016e-297
1.12966e-300
-2.70728e-294
2.19196e-297
-2.59619e-291
2.10928e-294
-1.65042e-288
1.344e-291
-7.82917e-286
6.38296e-289
-2.95733e-283
2.41105e-286
-9.26889e-281
7.54793e-284
-2.4801e-278
2.01489e-281
-5.7851e-276
4.68336e-279
-1.1954e-273
9.63169e-277
-2.21614e-271
1.77498e-274
-3.72427e-269
2.96141e-272
-5.72219e-267
4.51155e-270
-8.09652e-265
6.32119e-268
-1.06153e-262
8.19574e-266
-1.29656e-260
9.88561e-264
-1.48222e-258
1.11445e-261
-1.59254e-256
1.17906e-259
-1.61407e-254
1.1749e-257
-1.54826e-252
1.10627e-255
-1.40977e-250
9.87131e-254
-1.22181e-248
8.36905e-252
-1.01037e-246
6.75751e-250
-7.99e-245
5.20754e-248
-6.05481e-243
3.83755e-246
-4.40517e-241
2.70899e-244
-3.08244e-239
1.83474e-242
-2.07777e-237
1.19391e-240
-1.35121e-235
7.47378e-239
-8.48944e-234
4.50578e-237
-5.15975e-232
2.61862e-235
-3.03738e-230
1.46824e-233
-1.73373e-228
7.94736e-232
-9.60591e-227
4.15477e-230
-5.17127e-225
2.09832e-228
-2.70745e-223
1.02374e-226
-1.37975e-221
4.82332e-225
-6.84961e-220
2.19278e-223
-3.31492e-218
9.60526e-222
-1.56498e-216
4.0447e-220
-7.21161e-215
1.63114e-218
-3.2454e-213
6.26096e-217
-1.42695e-211
2.26345e-215
-6.13228e-210
7.5577e-214
-2.57655e-208
2.23421e-212
-1.0587e-206
5.1816e-211
-4.25505e-205
4.1892e-210
-1.51526e-203
-1.5786e-204
-4.67827e-202
-1.1733e-202
-1.25497e-200
-5.19175e-201
-2.92338e-199
-1.7518e-199
-5.90298e-198
-4.80211e-198
-1.03102e-196
-1.09566e-196
-1.55471e-195
-2.10393e-195
-2.02142e-194
-3.41985e-194
-2.26545e-193
-4.72299e-193
-2.19113e-192
-5.55959e-192
-1.8356e-191
-5.59894e-191
-1.34096e-190
-4.85118e-190
-8.61214e-190
-3.64711e-189
-4.88671e-189
-2.40201e-188
-2.44997e-188
-1.3942e-187
-1.0858e-187
-7.13874e-187
-4.28838e-187
-3.22912e-186
-1.53105e-186
-1.30208e-185
-5.01728e-186
-4.74866e-185
-1.52486e-185
-1.58964e-184
-4.30098e-185
-4.93444e-184
-1.12376e-184
-1.42143e-183
-2.72122e-184
-3.79516e-183
-6.13137e-184
-9.40343e-183
-1.2922e-183
-2.17223e-182
-2.56152e-183
-4.70476e-182
-4.80049e-183
-9.60762e-182
-8.5569e-183
-1.85876e-181
-1.45771e-182
-3.42707e-181
-2.38294e-182
-6.05004e-181
-3.74818e-182
-1.02687e-180
-5.68181e-182
-1.6805e-180
-8.30995e-182
-2.65643e-180
-1.17394e-181
-4.06162e-180
-1.6037e-181
-6.01548e-180
-2.12095e-181
-8.64305e-180
-2.71785e-181
-1.2066e-179
-3.37697e-181
-1.63881e-179
-4.07169e-181
-2.16819e-179
-4.76637e-181
-2.7982e-179
-5.41816e-181
-3.52724e-179
-5.98003e-181
-4.34773e-179
-6.40389e-181
-5.24606e-179
-6.64515e-181
-6.2022e-179
-6.66699e-181
-7.19046e-179
-6.44413e-181
-8.18088e-179
-5.96416e-181
-9.14087e-179
-5.21223e-181
-1.00343e-178
-4.088e-181
-1.0783e-178
-2.19088e-181
-1.09684e-178
-1.23056e-182
-8.28057e-179
-3.11546e-192
-7.6085e-180
-5.18017e-189
4.97327e-189
-6.81646e-186
9.14898e-180
-4.74437e-177
1.39196e-178
-4.4738e-176
2.51946e-178
-5.78863e-176
3.21911e-178
-5.72438e-176
3.71548e-178
-5.38543e-176
4.0502e-178
-4.95637e-176
4.22539e-178
-4.47676e-176
4.2463e-178
-3.96934e-176
4.12691e-178
-3.45413e-176
3.88838e-178
-2.94869e-176
3.55693e-178
-2.46778e-176
3.16137e-178
-2.0231e-176
2.73062e-178
-1.62302e-176
2.29177e-178
-1.27278e-176
1.86814e-178
-9.74488e-177
1.47796e-178
-7.27453e-177
1.13407e-178
-5.28862e-177
8.43303e-179
-3.73954e-177
6.06982e-179
-2.56764e-177
4.22381e-179
-1.70928e-177
2.83834e-179
-1.10156e-177
1.83984e-179
-6.86308e-178
1.14857e-179
-4.12635e-178
6.88748e-180
-2.3875e-178
3.95201e-180
-1.32426e-178
2.16015e-180
-7.01036e-179
1.11841e-180
-3.52264e-179
5.45932e-181
-1.67304e-179
2.4989e-181
-7.46942e-180
1.06677e-181
-3.11638e-180
4.22847e-182
-1.20883e-180
1.55478e-182
-4.35165e-181
5.31084e-183
-1.45496e-181
1.684e-183
-4.51411e-182
4.90841e-184
-1.28726e-182
1.29618e-184
-3.32751e-183
3.05755e-185
-7.68558e-184
6.38881e-186
-1.57107e-184
1.18161e-186
-2.83704e-185
1.9338e-187
-4.52027e-186
2.78573e-188
-6.3142e-187
3.50245e-189
-7.65462e-188
3.81714e-190
-7.98304e-189
3.59347e-191
-7.12175e-190
2.91941e-192
-5.41455e-191
2.04826e-193
-3.49736e-192
1.24341e-194
-1.91247e-193
6.54996e-196
-8.80721e-195
3.00503e-197
-3.38227e-196
1.20575e-198
-1.0604e-197
4.24982e-200
-2.57065e-199
1.32139e-201
-3.96105e-201
3.66865e-203
9.9387e-207
9.94275e-205
2.72187e-207
2.63051e-206
1.37654e-208
6.79302e-208
5.2735e-210
1.7119e-209
1.76898e-211
4.20857e-211
5.45001e-213
1.0089e-212
1.57574e-214
2.35722e-214
4.32455e-216
5.36478e-216
1.1341e-217
1.18862e-217
2.85353e-219
2.56205e-219
6.90639e-221
5.36878e-221
1.61047e-222
1.09288e-222
3.62165e-224
2.1593e-224
7.85818e-226
4.13717e-226
1.64535e-227
7.67916e-228
3.32395e-229
1.37937e-229
6.47661e-231
2.39498e-231
1.21645e-232
4.01454e-233
2.20074e-234
6.48776e-235
3.8316e-236
1.00935e-236
6.41309e-238
1.50936e-238
1.03062e-239
2.1657e-240
1.58809e-241
2.9761e-242
2.34275e-243
3.90893e-244
3.30299e-245
4.89626e-246
4.44212e-247
5.83461e-248
5.68672e-249
6.59685e-250
6.91366e-251
7.05594e-252
7.96166e-253
7.11607e-254
8.65957e-255
6.74218e-256
8.86726e-257
5.97647e-258
8.51755e-259
4.93338e-260
7.6437e-261
3.77207e-262
6.37891e-263
2.65506e-264
4.92425e-265
1.70804e-266
3.4948e-267
9.95721e-269
2.26399e-269
5.20624e-271
1.32739e-271
2.41075e-273
6.97159e-274
9.72902e-276
3.23873e-276
3.35128e-278
1.30974e-278
9.57711e-281
4.51544e-281
2.17928e-283
1.28998e-283
3.7012e-286
2.93096e-286
4.17039e-289
4.9645e-289
2.34035e-292
5.57226e-292
4.89496e-298
3.11118e-295
-2.67906e-292
3.56834e-295
-4.80177e-289
6.42692e-292
-4.27071e-286
5.73769e-289
-2.51701e-283
3.39045e-286
-1.10654e-280
1.49271e-283
-3.87223e-278
5.22506e-281
-1.12393e-275
1.51525e-278
-2.78404e-273
3.74558e-276
-6.00968e-271
8.05887e-274
-1.14876e-268
1.53357e-271
-1.96936e-266
2.61404e-269
-3.05926e-264
4.03245e-267
-4.34324e-262
5.67776e-265
-5.67616e-260
7.34948e-263
-6.87095e-258
8.79986e-261
-7.74499e-256
9.79799e-259
-8.16767e-254
1.01918e-256
-8.0917e-252
9.94464e-255
-7.55855e-250
9.13519e-253
-6.67914e-248
7.92563e-251
-5.59978e-246
6.51313e-249
-4.46634e-244
5.08289e-247
-3.39719e-242
3.77582e-245
-2.46967e-240
2.67551e-243
-1.71946e-238
1.81185e-241
-1.14866e-236
1.17465e-239
-7.3753e-235
7.30175e-238
-4.55877e-233
4.35793e-236
-2.71661e-231
2.50033e-234
-1.56282e-229
1.38051e-232
-8.69022e-228
7.34182e-231
-4.67624e-226
3.76364e-229
-2.43764e-224
1.8608e-227
-1.23219e-222
8.8765e-226
-6.04524e-221
4.08597e-224
-2.88101e-219
1.81467e-222
-1.33477e-217
7.77215e-221
-6.016e-216
3.2071e-219
-2.63958e-214
1.27295e-217
-1.1281e-212
4.84761e-216
-4.69883e-211
1.76401e-214
-1.90841e-209
6.09325e-213
-7.56103e-208
1.97525e-211
-2.92321e-206
5.88178e-210
-1.10307e-204
1.53414e-208
-4.06304e-203
3.03549e-207
-1.46078e-201
1.15583e-206
-4.68819e-200
-4.38121e-201
-1.32608e-198
-2.84571e-199
-3.29177e-197
-1.17096e-197
-7.13992e-196
-3.71999e-196
-1.34768e-194
-9.6367e-195
-2.20586e-193
-2.07978e-193
-3.12249e-192
-3.77723e-192
-3.81619e-191
-5.80486e-191
-4.02497e-190
-7.57726e-190
-3.6678e-189
-8.42963e-189
-2.89853e-188
-8.02429e-188
-2.00046e-187
-6.5747e-187
-1.21605e-186
-4.67851e-186
-6.54415e-186
-2.92074e-185
-3.11843e-185
-1.60959e-184
-1.31696e-184
-7.83943e-184
-4.97129e-184
-3.38107e-183
-1.70109e-183
-1.30383e-182
-5.3529e-183
-4.56006e-182
-1.56434e-182
-1.46646e-181
-4.24784e-182
-4.3782e-181
-1.07016e-181
-1.21427e-180
-2.50377e-181
-3.12604e-180
-5.46422e-181
-7.48341e-180
-1.11844e-180
-1.67443e-179
-2.15868e-180
-3.52253e-179
-3.94685e-180
-7.0052e-179
-6.87483e-180
-1.32244e-178
-1.14598e-179
-2.38294e-178
-1.83515e-179
-4.11667e-178
-2.83061e-179
-6.84494e-178
-4.21191e-179
-1.09844e-177
-6.05274e-179
-1.70427e-177
-8.41005e-179
-2.56008e-177
-1.13118e-178
-3.72881e-177
-1.47454e-178
-5.27424e-177
-1.86439e-178
-7.25628e-177
-2.28808e-178
-9.72313e-177
-2.72765e-178
-1.27041e-176
-3.16007e-178
-1.62079e-176
-3.55859e-178
-2.02163e-176
-3.89461e-178
-2.4681e-176
-4.13959e-178
-2.95236e-176
-4.26768e-178
-3.4635e-176
-4.25808e-178
-3.98798e-176
-4.09718e-178
-4.51035e-176
-3.77907e-178
-5.01409e-176
-3.29598e-178
-5.48121e-176
-2.58751e-178
-5.87185e-176
-1.4041e-178
-5.96842e-176
-8.53496e-180
-4.54891e-176
-3.92335e-189
-4.50066e-177
-5.54979e-186
2.98868e-186
-3.90198e-183
3.20944e-177
-1.55793e-174
4.63475e-176
-1.38791e-173
8.3278e-176
-1.78086e-173
1.061e-175
-1.75607e-173
1.22419e-175
-1.65205e-173
1.33703e-175
-1.52396e-173
1.40011e-175
-1.38221e-173
1.41432e-175
-1.23232e-173
1.3833e-175
-1.0795e-173
1.31302e-175
-9.28603e-174
1.21123e-175
-7.8388e-174
1.08669e-175
-6.48821e-174
9.48426e-176
-5.26048e-174
8.0511e-176
-4.1733e-174
6.64464e-176
-3.23568e-174
5.32772e-176
-2.4485e-174
4.14764e-176
-1.80642e-174
3.13239e-176
-1.29758e-174
2.29214e-176
-9.06013e-175
1.62318e-176
-6.13933e-175
1.11106e-176
-4.0312e-175
7.34306e-177
-2.56134e-175
4.67852e-177
-1.57198e-175
2.86637e-177
-9.29404e-176
1.68253e-177
-5.27411e-176
9.42286e-178
-2.86095e-176
5.00842e-178
-1.47605e-176
2.51627e-178
-7.21723e-177
1.18871e-178
-3.32691e-177
5.25042e-179
-1.43693e-177
2.15762e-179
-5.78209e-178
8.23656e-180
-2.16233e-178
2.92387e-180
-7.51695e-179
9.64602e-181
-2.42725e-179
2.93027e-181
-7.21632e-180
8.08679e-182
-1.95062e-180
1.99933e-182
-4.72641e-181
4.38835e-183
-1.01597e-181
8.54033e-184
-1.93241e-182
1.47295e-184
-3.24769e-183
2.23892e-185
-4.79186e-184
2.97233e-186
-6.1412e-185
3.42098e-187
-6.77255e-186
3.40037e-188
-6.3881e-187
2.91529e-189
-5.13264e-188
2.15661e-190
-3.50053e-189
1.37877e-191
-2.01873e-190
7.63865e-193
-9.79093e-192
3.68075e-194
-3.95567e-193
1.5494e-195
-1.30471e-194
5.72557e-197
-3.34067e-196
1.86701e-198
-5.57612e-198
5.41051e-200
7.03945e-204
1.52919e-201
5.44323e-204
4.21442e-203
2.96313e-205
1.13229e-204
1.19476e-206
2.96488e-206
4.18915e-208
7.56418e-208
1.34428e-209
1.87966e-209
4.0389e-211
4.5477e-211
1.14993e-212
1.07079e-212
3.12427e-214
2.45244e-214
8.13508e-216
5.46027e-216
2.03562e-217
1.18106e-217
4.9034e-219
2.48002e-219
1.1382e-220
5.05149e-221
2.54742e-222
9.97206e-223
5.49827e-224
1.90606e-224
1.14434e-225
3.52389e-226
2.29583e-227
6.29438e-228
4.43763e-229
1.08491e-229
8.25809e-231
1.80207e-231
1.47823e-232
2.88043e-233
2.54267e-234
4.42354e-235
4.19756e-236
6.51587e-237
6.64164e-238
9.18883e-239
1.00569e-239
1.23811e-240
1.45486e-241
1.5904e-242
2.00693e-243
1.94293e-244
2.63443e-245
2.25139e-246
3.28304e-247
2.46723e-248
3.87419e-249
2.54867e-250
4.31674e-251
2.47271e-252
4.52697e-253
2.24389e-254
4.45218e-255
1.89572e-256
4.08966e-257
1.48312e-258
3.49257e-259
1.06791e-260
2.75834e-261
7.02622e-263
2.00233e-263
4.18823e-265
1.32646e-265
2.23867e-267
7.95107e-268
1.0595e-269
4.26846e-270
4.36932e-272
2.02645e-272
1.53768e-274
8.37295e-275
4.48866e-277
2.94877e-277
1.04315e-279
8.60374e-280
1.80906e-282
1.99617e-282
2.08113e-285
3.45203e-285
1.1923e-288
3.95525e-288
2.69291e-294
2.25414e-291
-1.37553e-288
2.6056e-291
-2.41597e-285
4.59961e-288
-2.10505e-282
4.02345e-285
-1.21513e-279
2.32897e-282
-5.23107e-277
1.00423e-279
-1.79217e-274
3.44202e-277
-5.09171e-272
9.77186e-275
-1.23429e-269
2.36424e-272
-2.60686e-267
4.97774e-270
-4.87448e-265
9.26728e-268
-8.17255e-263
1.54509e-265
-1.24132e-260
2.3308e-263
-1.72272e-258
3.20853e-261
-2.2003e-256
4.05951e-259
-2.60233e-254
4.74975e-257
-2.86533e-252
5.16652e-255
-2.95082e-250
5.24883e-253
-2.854e-248
5.00068e-251
-2.60195e-246
4.48396e-249
-2.24335e-244
3.79624e-247
-1.83455e-242
3.04334e-245
-1.42676e-240
2.31618e-243
-1.05782e-238
1.67737e-241
-7.49331e-237
1.15832e-239
-5.0817e-235
7.64169e-238
-3.30539e-233
4.82447e-236
-2.06563e-231
2.91925e-234
-1.24216e-229
1.69529e-232
-7.19823e-228
9.45987e-231
-4.02505e-226
5.07749e-229
-2.17444e-224
2.62373e-227
-1.13617e-222
1.30618e-225
-5.74791e-221
6.26802e-224
-2.81813e-219
2.90034e-222
-1.34022e-217
1.29419e-220
-6.18733e-216
5.56797e-219
-2.77493e-214
2.30834e-217
-1.20979e-212
9.21209e-216
-5.13008e-211
3.53285e-214
-2.11701e-209
1.29843e-212
-8.50549e-208
4.55382e-211
-3.3283e-206
1.51345e-209
-1.26893e-204
4.70963e-208
-4.71485e-203
1.34147e-206
-1.7078e-201
3.32406e-205
-6.03175e-200
6.11073e-204
-2.07748e-198
8.92883e-204
-6.3557e-197
-6.21564e-198
-1.71407e-195
-3.72399e-196
-4.05403e-194
-1.45015e-194
-8.36803e-193
-4.37682e-193
-1.50097e-191
-1.07713e-191
-2.33138e-190
-2.20586e-190
-3.12805e-189
-3.7962e-189
-3.62058e-188
-5.52152e-188
-3.61482e-187
-6.81572e-187
-3.11782e-186
-7.16745e-186
-2.33263e-185
-6.4492e-185
-1.52531e-184
-4.9966e-184
-8.79653e-184
-3.36522e-183
-4.49794e-183
-1.99124e-182
-2.04017e-182
-1.04162e-181
-8.22005e-182
-4.82372e-181
-2.96906e-181
-1.98299e-180
-9.74777e-181
-7.31271e-180
-2.94806e-180
-2.45312e-179
-8.28982e-180
-7.57958e-179
-2.16811e-179
-2.17636e-178
-5.26854e-179
-5.81019e-178
-1.19134e-178
-1.44188e-177
-2.51919e-178
-3.33427e-177
-5.00991e-178
-7.2257e-177
-9.41912e-178
-1.47653e-176
-1.68084e-177
-2.85992e-176
-2.86203e-177
-5.26901e-176
-4.66955e-177
-9.28028e-176
-7.32692e-177
-1.56901e-175
-1.10843e-176
-2.55581e-175
-1.61917e-176
-4.02181e-175
-2.28645e-176
-6.12442e-175
-3.12487e-176
-9.03806e-175
-4.13835e-176
-1.29453e-174
-5.31706e-176
-1.80246e-174
-6.6334e-176
-2.44374e-174
-8.04064e-176
-3.23042e-174
-9.47676e-176
-4.1682e-174
-1.08653e-175
-5.25683e-174
-1.21201e-175
-6.48805e-174
-1.31518e-175
-7.84527e-174
-1.3873e-175
-9.30372e-174
-1.42064e-175
-1.08304e-173
-1.4092e-175
-1.23854e-173
-1.34924e-175
-1.39243e-173
-1.23945e-175
-1.54006e-173
-1.07777e-175
-1.67642e-173
-8.45447e-176
-1.79003e-173
-4.62693e-176
-1.81734e-173
-3.0124e-177
-1.39597e-173
-2.46357e-186
-1.4789e-174
-3.2689e-183
1.18718e-183
-1.49249e-180
7.35617e-175
-3.38684e-172
1.00813e-173
-2.85172e-171
1.80436e-173
-3.63881e-171
2.2997e-173
-3.58637e-171
2.65789e-173
-3.37826e-171
2.91164e-173
-3.1252e-171
3.06211e-173
-2.84661e-171
3.11006e-173
-2.55186e-171
3.06161e-173
-2.25012e-171
2.9279e-173
-1.95032e-171
2.72389e-173
-1.66054e-171
2.46704e-173
-1.38766e-171
2.17575e-173
-1.13705e-171
1.86824e-173
-9.1259e-172
1.56122e-173
-7.1656e-172
1.2688e-173
-5.49709e-172
1.00227e-173
-4.11614e-172
7.68875e-174
-3.00417e-172
5.72082e-174
-2.1335e-172
4.12329e-174
-1.47189e-172
2.87531e-174
-9.84912e-173
1.93773e-174
-6.38305e-173
1.26009e-174
-3.99941e-173
7.88767e-175
-2.41639e-173
4.73626e-175
-1.40294e-173
2.71759e-175
-7.79823e-174
1.48285e-175
-4.13108e-174
7.66856e-176
-2.0799e-174
3.73979e-176
-9.90264e-175
1.70968e-176
-4.42984e-175
7.28691e-177
-1.85023e-175
2.88916e-177
-7.19234e-176
1.06612e-177
-2.60078e-176
3.65964e-178
-8.74269e-177
1.15874e-178
-2.71058e-177
3.34294e-179
-7.66602e-178
8.66755e-180
-1.95049e-178
1.9998e-180
-4.41375e-179
4.0976e-181
-8.85131e-180
7.45101e-182
-1.57057e-180
1.19566e-182
-2.45035e-181
1.67701e-183
-3.32424e-182
2.03948e-184
-3.88233e-183
2.14146e-185
-3.87804e-184
1.93813e-186
-3.29846e-185
1.51177e-187
-2.37933e-186
1.01742e-188
-1.44933e-187
5.92137e-190
-7.41262e-189
2.99029e-191
-3.15282e-190
1.31586e-192
-1.09355e-191
5.07006e-194
-2.94785e-193
1.71945e-195
-5.25041e-195
5.16051e-197
-1.60428e-198
1.50634e-198
6.60266e-201
4.28088e-200
3.79467e-202
1.1845e-201
1.58831e-203
3.19083e-203
5.75234e-205
8.36703e-205
1.90188e-206
2.13518e-206
5.87792e-208
5.30099e-208
1.71935e-209
1.27987e-209
4.79439e-211
3.00369e-211
1.28016e-212
6.84846e-213
3.28229e-214
1.51604e-214
8.0957e-216
3.25617e-216
1.92297e-217
6.78032e-218
4.40143e-219
1.36764e-219
9.70999e-221
2.66976e-221
2.06452e-222
5.03856e-223
4.22929e-224
9.18323e-225
8.34337e-226
1.61442e-226
1.58396e-227
2.734e-228
2.89134e-229
4.45373e-230
5.06952e-231
6.96821e-232
8.52772e-233
1.04534e-233
1.3744e-234
1.50085e-235
2.11913e-236
2.05821e-237
3.12054e-238
2.69006e-239
4.38047e-240
3.34279e-241
5.84958e-242
3.93894e-243
7.41378e-244
4.38833e-245
8.89511e-246
4.60736e-247
1.00744e-247
4.54206e-249
1.07362e-249
4.18717e-251
1.07274e-251
3.59281e-253
1.00088e-253
2.85418e-255
8.67996e-256
2.08638e-257
6.9599e-258
1.39329e-259
5.1284e-260
8.42808e-262
3.44781e-262
4.57071e-264
2.09697e-264
2.19436e-266
1.14202e-266
9.17818e-269
5.4991e-269
3.27544e-271
2.30415e-271
9.69414e-274
8.22764e-274
2.28379e-276
2.43361e-276
4.01435e-279
5.72298e-279
4.68006e-282
1.00298e-281
2.7169e-285
1.16444e-284
6.32198e-291
6.72356e-288
-3.16991e-285
7.86042e-288
-5.49491e-282
1.36966e-284
-4.72435e-279
1.18239e-281
-2.69054e-276
6.75346e-279
-1.14255e-273
2.87291e-276
-3.8606e-271
9.71299e-274
-1.08158e-268
2.71953e-271
-2.58494e-266
6.48796e-269
-5.38163e-264
1.3467e-266
-9.91754e-262
2.47132e-264
-1.63844e-259
4.06057e-262
-2.45168e-257
6.03543e-260
-3.3513e-255
8.18446e-258
-4.2151e-253
1.01987e-255
-4.90816e-251
1.175e-253
-5.31937e-249
1.25823e-251
-5.39082e-247
1.2581e-249
-5.12962e-245
1.17942e-247
-4.59977e-243
1.04034e-245
-3.89963e-241
8.66215e-244
-3.1349e-239
6.82753e-242
-2.396e-237
5.10742e-240
-1.74525e-235
3.63448e-238
-1.2142e-233
2.46542e-236
-8.08449e-232
1.5972e-234
-5.16111e-230
9.89869e-233
-3.1644e-228
5.87761e-231
-1.86625e-226
3.34819e-229
-1.06022e-224
1.83197e-227
-5.80954e-223
9.63757e-226
-3.07415e-221
4.87899e-224
-1.57263e-219
2.37852e-222
-7.78555e-218
1.11716e-220
-3.73348e-216
5.05692e-219
-1.73567e-214
2.20621e-217
-7.82855e-213
9.27458e-216
-3.42812e-211
3.75462e-214
-1.45834e-209
1.46213e-212
-6.03007e-208
5.46738e-211
-2.42467e-206
1.95757e-209
-9.4846e-205
6.68155e-208
-3.61043e-203
2.15841e-206
-1.33775e-201
6.51785e-205
-4.82535e-200
1.797e-203
-1.69452e-198
4.28841e-202
-5.79313e-197
7.46545e-201
-1.92693e-195
-9.03481e-199
-5.66632e-194
-5.90025e-195
-1.46501e-192
-3.31053e-193
-3.31288e-191
-1.22384e-191
-6.52099e-190
-3.51048e-190
-1.11271e-188
-8.20071e-189
-1.64073e-187
-1.59144e-187
-2.08638e-186
-2.59101e-186
-2.28617e-185
-3.56051e-185
-2.15955e-184
-4.14899e-184
-1.76195e-183
-4.11752e-183
-1.24728e-182
-3.49673e-182
-7.72364e-182
-2.55833e-181
-4.22384e-181
-1.62908e-180
-2.05095e-180
-9.12818e-180
-8.84858e-180
-4.52786e-179
-3.39935e-179
-1.99153e-178
-1.17452e-178
-7.79627e-178
-3.69957e-178
-2.74786e-177
-1.07526e-177
-8.83923e-177
-2.9086e-177
-2.62331e-176
-7.32406e-177
-7.24102e-176
-1.71596e-176
-1.85969e-175
-3.74888e-176
-4.44615e-175
-7.67918e-176
-9.92689e-175
-1.48363e-175
-2.08285e-174
-2.71718e-175
-4.13348e-174
-4.7327e-175
-7.79755e-174
-7.87778e-175
-1.40198e-173
-1.25801e-174
-2.41352e-173
-1.93399e-174
-3.99309e-173
-2.86928e-174
-6.37125e-173
-4.1142e-174
-9.82926e-173
-5.70811e-174
-1.46878e-172
-7.67222e-174
-2.12897e-172
-1.00027e-173
-2.99803e-172
-1.26656e-173
-4.10842e-172
-1.55893e-173
-5.48814e-172
-1.86621e-173
-7.15621e-172
-2.17442e-173
-9.11758e-172
-2.46697e-173
-1.1366e-171
-2.72575e-173
-1.38798e-171
-2.93243e-173
-1.66221e-171
-3.06953e-173
-1.95416e-171
-3.122e-173
-2.25721e-171
-3.07852e-173
-2.56363e-171
-2.93259e-173
-2.86494e-171
-2.6826e-173
-3.15244e-171
-2.32506e-173
-3.41689e-171
-1.82154e-173
-3.63635e-171
-1.00402e-173
-3.68676e-171
-6.97917e-175
-2.85176e-171
-1.0129e-183
-3.22851e-172
-1.28045e-180
3.48063e-181
-4.18412e-178
1.22796e-172
-5.32931e-170
1.59193e-171
-4.23332e-169
2.83869e-171
-5.37687e-169
3.62307e-171
-5.30338e-169
4.19823e-171
-5.00653e-169
4.61551e-171
-4.64699e-169
4.87643e-171
-4.25181e-169
4.98065e-171
-3.83286e-169
4.93549e-171
-3.40207e-169
4.75577e-171
-2.97132e-169
4.46235e-171
-2.55174e-169
4.08026e-171
-2.15304e-169
3.63659e-171
-1.78311e-169
3.15889e-171
-1.44796e-169
2.6732e-171
-1.15154e-169
2.20232e-171
-8.95721e-170
1.76558e-171
-6.80872e-170
1.3761e-171
-5.05047e-170
1.04135e-171
-3.64921e-170
7.64104e-172
-2.564e-170
5.42966e-172
-1.74899e-170
3.73206e-172
-1.15651e-170
2.4775e-172
-7.39973e-171
1.58467e-172
-4.56963e-171
9.73463e-173
-2.7148e-171
5.72301e-173
-1.54643e-171
3.20608e-173
-8.41252e-172
1.7071e-173
-4.3624e-172
8.59773e-174
-2.14618e-172
4.07046e-174
-9.94969e-173
1.80056e-174
-4.31688e-173
7.41967e-175
-1.74569e-173
2.84754e-175
-6.57054e-174
1.01743e-175
-2.3004e-174
3.35886e-176
-7.44072e-175
1.01369e-176
-2.20345e-175
2.7593e-177
-5.89401e-176
6.70043e-178
-1.40601e-176
1.44715e-178
-2.97658e-177
2.77742e-179
-5.58271e-178
4.71111e-180
-9.22268e-179
6.9918e-181
-1.32672e-179
9.00048e-182
-1.64409e-180
1.00024e-182
-1.74291e-181
9.57632e-184
-1.57292e-182
7.8933e-185
-1.20297e-183
5.60431e-186
-7.75931e-185
3.43382e-187
-4.19522e-186
1.82105e-188
-1.88286e-187
8.39229e-190
-6.88077e-189
3.37659e-191
-1.95444e-190
1.19219e-192
-3.70066e-192
3.71382e-194
-5.47998e-195
1.11971e-195
5.78734e-198
3.28305e-197
3.49997e-199
9.36227e-199
1.5196e-200
2.5967e-200
5.68476e-202
7.00429e-202
1.93717e-203
1.83708e-203
6.16135e-205
4.68384e-205
1.85258e-206
1.16047e-206
5.30497e-208
2.79283e-208
1.45336e-209
6.52547e-210
3.82047e-211
1.4794e-211
9.6542e-213
3.25226e-213
2.34788e-214
6.9277e-215
5.49892e-216
1.42871e-216
1.24062e-217
2.85007e-218
2.69617e-219
5.49413e-220
5.64269e-221
1.02235e-221
1.13671e-222
1.83421e-223
2.20266e-224
3.16871e-225
4.10219e-226
5.26371e-227
7.33539e-228
8.39483e-229
1.25795e-229
1.28327e-230
2.06616e-231
1.87681e-232
3.24545e-233
2.62094e-234
4.86713e-235
3.48722e-236
6.95589e-237
4.4101e-238
9.45399e-239
5.28712e-240
1.21917e-240
5.99129e-242
1.48795e-242
6.39649e-244
1.71377e-244
6.41068e-246
1.85684e-246
6.00659e-248
1.88581e-248
5.23718e-250
1.788e-250
4.22672e-252
1.57537e-252
3.13819e-254