/*--------------------------------*- C++ -*----------------------------------*\
| =========                 |                                                 |
| \\      /  F ield         | OpenFOAM: The Open Source CFD Toolbox           |
|  \\    /   O peration     | Version:  2412                                  |
|   \\  /    A nd           | Website:  www.openfoam.com                      |
|    \\/     M anipulation  |                                                 |
\*---------------------------------------------------------------------------*/
FoamFile
{
    version     2.0;
    format      ascii;
    arch        "LSB;label=32;scalar=64";
    class       surfaceScalarField;
    location    "1.22";
    object      phi;
}
// * * * * * * * * * * * * * * * * * * * * * * * * * * * * * * * * * * * * * //

dimensions      [0 3 -1 0 0 0 0];

oriented        oriented;

internalField   nonuniform List<scalar> 
79600
(
1.60965e-11
-1.61124e-11
4.71978e-11
-3.11008e-11
8.31858e-11
-3.59867e-11
1.20715e-10
-3.75287e-11
1.58778e-10
-3.80647e-11
1.96972e-10
-3.81946e-11
2.35087e-10
-3.81148e-11
2.73021e-10
-3.79334e-11
3.10722e-10
-3.76999e-11
3.48157e-10
-3.7435e-11
3.85303e-10
-3.71451e-11
4.22133e-10
-3.68303e-11
4.58623e-10
-3.64902e-11
4.94746e-10
-3.6124e-11
5.30477e-10
-3.57311e-11
5.65787e-10
-3.53106e-11
6.00648e-10
-3.48621e-11
6.35033e-10
-3.43852e-11
6.68913e-10
-3.38797e-11
7.02259e-10
-3.33456e-11
7.35043e-10
-3.27825e-11
7.67234e-10
-3.21905e-11
7.98804e-10
-3.15694e-11
8.29724e-10
-3.09193e-11
8.59965e-10
-3.02403e-11
8.89497e-10
-2.95322e-11
9.18292e-10
-2.87953e-11
9.46322e-10
-2.80298e-11
9.73558e-10
-2.72358e-11
9.99971e-10
-2.64136e-11
1.02553e-09
-2.55633e-11
1.05022e-09
-2.46853e-11
1.074e-09
-2.37796e-11
1.09684e-09
-2.28466e-11
1.11873e-09
-2.18864e-11
1.13963e-09
-2.08995e-11
1.15952e-09
-1.98864e-11
1.17836e-09
-1.88476e-11
1.19615e-09
-1.77838e-11
1.21284e-09
-1.66954e-11
1.22842e-09
-1.55829e-11
1.24287e-09
-1.44466e-11
1.25616e-09
-1.32873e-11
1.26826e-09
-1.21057e-11
1.27916e-09
-1.0903e-11
1.28885e-09
-9.68016e-12
1.29728e-09
-8.43828e-12
1.30446e-09
-7.17818e-12
1.31036e-09
-5.90066e-12
1.31497e-09
-4.60655e-12
1.31827e-09
-3.29676e-12
1.32024e-09
-1.97194e-12
1.32087e-09
-6.33021e-13
1.32014e-09
7.32846e-13
1.31804e-09
2.09523e-12
1.31458e-09
3.46622e-12
1.30974e-09
4.83977e-12
1.30352e-09
6.21572e-12
1.29593e-09
7.59376e-12
1.28695e-09
8.97292e-12
1.2766e-09
1.03519e-11
1.26487e-09
1.17293e-11
1.25177e-09
1.31033e-11
1.2373e-09
1.44722e-11
1.22146e-09
1.58338e-11
1.20428e-09
1.71861e-11
1.18575e-09
1.85276e-11
1.16589e-09
1.98564e-11
1.14472e-09
2.11708e-11
1.12226e-09
2.24687e-11
1.09851e-09
2.3748e-11
1.0735e-09
2.50066e-11
1.04726e-09
2.62425e-11
1.01981e-09
2.74542e-11
9.91169e-10
2.864e-11
9.61371e-10
2.9798e-11
9.30445e-10
3.09264e-11
8.98422e-10
3.20231e-11
8.65335e-10
3.30863e-11
8.3122e-10
3.41143e-11
7.96114e-10
3.51057e-11
7.60055e-10
3.60586e-11
7.23083e-10
3.69715e-11
6.85239e-10
3.78426e-11
6.46568e-10
3.86705e-11
6.07113e-10
3.94538e-11
5.66921e-10
4.01914e-11
5.26039e-10
4.08819e-11
4.84516e-10
4.15239e-11
4.42401e-10
4.21162e-11
3.99744e-10
4.26577e-11
3.56596e-10
4.31478e-11
3.13011e-10
4.35857e-11
2.69041e-10
4.39707e-11
2.2474e-10
4.43018e-11
1.80161e-10
4.45785e-11
1.35361e-10
4.48001e-11
9.03941e-11
4.49663e-11
4.53169e-11
4.50768e-11
1.85693e-13
4.51308e-11
-4.49457e-11
4.51308e-11
-9.00235e-11
4.50769e-11
-1.34991e-10
4.49663e-11
-1.79792e-10
4.48e-11
-2.24371e-10
4.45784e-11
-2.68674e-10
4.43019e-11
-3.12647e-10
4.39709e-11
-3.56234e-10
4.35863e-11
-3.99383e-10
4.31486e-11
-4.42042e-10
4.26588e-11
-4.8416e-10
4.21178e-11
-5.25685e-10
4.15263e-11
-5.66569e-10
4.08852e-11
-6.06764e-10
4.01954e-11
-6.46222e-10
3.94581e-11
-6.84897e-10
3.86747e-11
-7.22745e-10
3.78469e-11
-7.59721e-10
3.6976e-11
-7.95785e-10
3.60634e-11
-8.30895e-10
3.51109e-11
-8.65015e-10
3.41202e-11
-8.98106e-10
3.30925e-11
-9.30134e-10
3.20295e-11
-9.61067e-10
3.0933e-11
-9.90871e-10
2.98049e-11
-1.01952e-09
2.86469e-11
-1.04698e-09
2.74611e-11
-1.07323e-09
2.62493e-11
-1.09824e-09
2.50136e-11
-1.122e-09
2.37555e-11
-1.14447e-09
2.2477e-11
-1.16565e-09
2.11802e-11
-1.18551e-09
1.98668e-11
-1.20405e-09
1.85383e-11
-1.22125e-09
1.71968e-11
-1.23709e-09
1.58448e-11
-1.25158e-09
1.4484e-11
-1.26469e-09
1.31158e-11
-1.27644e-09
1.17424e-11
-1.2868e-09
1.03657e-11
-1.29579e-09
8.9865e-12
-1.3034e-09
7.60682e-12
-1.30962e-09
6.22855e-12
-1.31447e-09
4.85188e-12
-1.31795e-09
3.47703e-12
-1.32006e-09
2.10501e-12
-1.3208e-09
7.41911e-13
-1.32017e-09
-6.24758e-13
-1.31821e-09
-1.96339e-12
-1.31492e-09
-3.28732e-12
-1.31033e-09
-4.59572e-12
-1.30444e-09
-5.88792e-12
-1.29727e-09
-7.16408e-12
-1.28885e-09
-8.42319e-12
-1.27919e-09
-9.66389e-12
-1.2683e-09
-1.0886e-11
-1.25621e-09
-1.20884e-11
-1.24294e-09
-1.32697e-11
-1.22852e-09
-1.4429e-11
-1.21295e-09
-1.55654e-11
-1.19627e-09
-1.66785e-11
-1.1785e-09
-1.77676e-11
-1.15967e-09
-1.88313e-11
-1.1398e-09
-1.98698e-11
-1.11892e-09
-2.08826e-11
-1.09705e-09
-2.18688e-11
-1.07422e-09
-2.28279e-11
-1.05046e-09
-2.37598e-11
-1.0258e-09
-2.4665e-11
-1.00025e-09
-2.55429e-11
-9.73859e-10
-2.63928e-11
-9.46644e-10
-2.72151e-11
-9.18635e-10
-2.8009e-11
-8.89862e-10
-2.87727e-11
-8.60355e-10
-2.95063e-11
-8.30145e-10
-3.02107e-11
-7.99259e-10
-3.08861e-11
-7.67725e-10
-3.1533e-11
-7.35573e-10
-3.21519e-11
-7.02831e-10
-3.27429e-11
-6.69527e-10
-3.33045e-11
-6.3569e-10
-3.38361e-11
-6.01352e-10
-3.4338e-11
-5.66543e-10
-3.48098e-11
-5.31292e-10
-3.52509e-11
-4.95629e-10
-3.56617e-11
-4.59584e-10
-3.60443e-11
-4.23185e-10
-3.63988e-11
-3.86459e-10
-3.67245e-11
-3.49437e-10
-3.70221e-11
-3.12148e-10
-3.72895e-11
-2.74622e-10
-3.75266e-11
-2.3689e-10
-3.77331e-11
-1.98983e-10
-3.79066e-11
-1.60942e-10
-3.80417e-11
-1.22831e-10
-3.811e-11
-8.48646e-11
-3.79675e-11
-4.79925e-11
-3.68758e-11
-1.60549e-11
-3.19457e-11
-1.60627e-11
3.23783e-11
-4.84901e-11
8.99665e-11
-8.8688e-11
1.53884e-10
-9.99028e-11
2.19178e-10
-1.02822e-10
2.8485e-10
-1.03738e-10
3.50597e-10
-1.03942e-10
4.1624e-10
-1.03759e-10
4.81657e-10
-1.03349e-10
5.46758e-10
-1.02799e-10
6.11473e-10
-1.02149e-10
6.75744e-10
-1.01416e-10
7.39518e-10
-1.00605e-10
8.02745e-10
-9.97183e-11
8.65376e-10
-9.87558e-11
9.27361e-10
-9.77175e-11
9.88653e-10
-9.66028e-11
1.0492e-09
-9.54113e-11
1.10896e-09
-9.41426e-11
1.16788e-09
-9.27964e-11
1.22591e-09
-9.13724e-11
1.28299e-09
-8.98702e-11
1.33909e-09
-8.82895e-11
1.39416e-09
-8.66303e-11
1.44813e-09
-8.48922e-11
1.50096e-09
-8.30753e-11
1.55261e-09
-8.11797e-11
1.60302e-09
-7.92056e-11
1.65214e-09
-7.71532e-11
1.69993e-09
-7.5023e-11
1.74633e-09
-7.28152e-11
1.7913e-09
-7.05301e-11
1.83478e-09
-6.81682e-11
1.87673e-09
-6.57299e-11
1.9171e-09
-6.32158e-11
1.95584e-09
-6.06268e-11
1.9929e-09
-5.79637e-11
2.02824e-09
-5.52277e-11
2.06182e-09
-5.24198e-11
2.09357e-09
-4.95411e-11
2.12347e-09
-4.65926e-11
2.15146e-09
-4.35756e-11
2.1775e-09
-4.04916e-11
2.20156e-09
-3.73424e-11
2.22359e-09
-3.41301e-11
2.24354e-09
-3.08571e-11
2.26139e-09
-2.75258e-11
2.27709e-09
-2.41384e-11
2.2906e-09
-2.06973e-11
2.30191e-09
-1.7205e-11
2.31097e-09
-1.36642e-11
2.31775e-09
-1.00778e-11
2.32223e-09
-6.44868e-12
2.32437e-09
-2.77826e-12
2.32417e-09
9.33926e-13
2.32159e-09
4.67811e-12
2.31661e-09
8.44343e-12
2.30922e-09
1.22277e-11
2.29941e-09
1.60284e-11
2.28716e-09
1.98424e-11
2.27246e-09
2.36656e-11
2.25532e-09
2.7494e-11
2.23573e-09
3.13229e-11
2.21369e-09
3.51474e-11
2.1892e-09
3.89626e-11
2.16227e-09
4.27631e-11
2.13291e-09
4.65439e-11
2.10113e-09
5.02997e-11
2.06697e-09
5.40253e-11
2.03043e-09
5.77149e-11
1.99153e-09
6.13626e-11
1.95032e-09
6.49627e-11
1.90682e-09
6.85095e-11
1.86106e-09
7.19978e-11
1.8131e-09
7.54225e-11
1.76296e-09
7.87781e-11
1.7107e-09
8.2059e-11
1.65636e-09
8.52595e-11
1.60001e-09
8.83741e-11
1.5417e-09
9.13972e-11
1.48149e-09
9.43238e-11
1.41945e-09
9.71488e-11
1.35564e-09
9.9867e-11
1.29013e-09
1.02474e-10
1.22301e-09
1.04964e-10
1.15435e-09
1.07333e-10
1.08422e-09
1.09577e-10
1.01272e-09
1.11691e-10
9.39936e-10
1.13672e-10
8.65946e-10
1.15515e-10
7.90847e-10
1.17216e-10
7.14732e-10
1.18773e-10
6.37697e-10
1.20184e-10
5.59839e-10
1.21444e-10
4.81258e-10
1.22553e-10
4.02053e-10
1.23507e-10
3.22327e-10
1.24304e-10
2.42182e-10
1.24943e-10
1.61724e-10
1.25423e-10
8.1057e-11
1.25743e-10
2.84996e-13
1.25902e-10
-8.04874e-11
1.25902e-10
-1.61155e-10
1.25743e-10
-2.41614e-10
1.25423e-10
-3.21759e-10
1.24943e-10
-4.01487e-10
1.24304e-10
-4.80693e-10
1.23507e-10
-5.59278e-10
1.22553e-10
-6.37138e-10
1.21446e-10
-7.14176e-10
1.20186e-10
-7.90294e-10
1.18777e-10
-8.65395e-10
1.17221e-10
-9.39388e-10
1.15521e-10
-1.01218e-09
1.13679e-10
-1.08369e-09
1.11699e-10
-1.15381e-09
1.09585e-10
-1.22248e-09
1.07342e-10
-1.28961e-09
1.04974e-10
-1.35512e-09
1.02485e-10
-1.41893e-09
9.98797e-11
-1.48098e-09
9.71624e-11
-1.5412e-09
9.43383e-11
-1.59952e-09
9.14121e-11
-1.65588e-09
8.83891e-11
-1.71022e-09
8.52746e-11
-1.76249e-09
8.20746e-11
-1.81264e-09
7.87945e-11
-1.86061e-09
7.54396e-11
-1.90638e-09
7.20153e-11
-1.94989e-09
6.85273e-11
-1.99111e-09
6.49811e-11
-2.03001e-09
6.13819e-11
-2.06657e-09
5.77353e-11
-2.10075e-09
5.4047e-11
-2.13253e-09
5.03226e-11
-2.1619e-09
4.65677e-11
-2.18884e-09
4.27877e-11
-2.21335e-09
3.89886e-11
-2.23541e-09
3.51748e-11
-2.25502e-09
3.13512e-11
-2.27218e-09
2.75232e-11
-2.28688e-09
2.36953e-11
-2.29915e-09
1.98714e-11
-2.30897e-09
1.60565e-11
-2.31638e-09
1.22546e-11
-2.32137e-09
8.4684e-12
-2.32396e-09
4.70119e-12
-2.32418e-09
9.56143e-13
-2.32204e-09
-2.75692e-12
-2.31758e-09
-6.42699e-12
-2.31081e-09
-1.00545e-11
-2.30177e-09
-1.36386e-11
-2.29048e-09
-1.71766e-11
-2.27698e-09
-2.06664e-11
-2.26129e-09
-2.41059e-11
-2.24347e-09
-2.74918e-11
-2.22353e-09
-3.08218e-11
-2.20153e-09
-3.40938e-11
-2.17749e-09
-3.73051e-11
-2.15147e-09
-4.04535e-11
-2.12349e-09
-4.35376e-11
-2.09362e-09
-4.65552e-11
-2.06188e-09
-4.95046e-11
-2.02833e-09
-5.23842e-11
-1.99301e-09
-5.51921e-11
-1.95596e-09
-5.79272e-11
-1.91724e-09
-6.05881e-11
-1.87689e-09
-6.31749e-11
-1.83496e-09
-6.56874e-11
-1.7915e-09
-6.81243e-11
-1.74656e-09
-7.04854e-11
-1.70018e-09
-7.27709e-11
-1.65242e-09
-7.49789e-11
-1.60332e-09
-7.71079e-11
-1.55293e-09
-7.91567e-11
-1.50131e-09
-8.11255e-11
-1.44851e-09
-8.30153e-11
-1.39457e-09
-8.48255e-11
-1.33955e-09
-8.65579e-11
-1.28348e-09
-8.82141e-11
-1.22643e-09
-8.97922e-11
-1.16845e-09
-9.12918e-11
-1.10957e-09
-9.27116e-11
-1.04986e-09
-9.40516e-11
-9.89358e-10
-9.53104e-11
-9.28116e-10
-9.64897e-11
-8.66188e-10
-9.75908e-11
-8.03618e-10
-9.86135e-11
-7.40456e-10
-9.95601e-11
-6.76751e-10
-1.00429e-10
-6.1255e-10
-1.01222e-10
-5.47904e-10
-1.01937e-10
-4.8286e-10
-1.02572e-10
-4.17467e-10
-1.03128e-10
-3.51772e-10
-1.03602e-10
-2.85825e-10
-1.03989e-10
-2.19698e-10
-1.04238e-10
-1.53644e-10
-1.04019e-10
-8.89628e-11
-1.01547e-10
-3.14294e-11
-8.94642e-11
-4.74968e-11
3.69588e-11
-8.54476e-11
1.02165e-10
-1.53895e-10
1.74045e-10
-1.71784e-10
2.46925e-10
-1.75703e-10
3.19821e-10
-1.76634e-10
3.92603e-10
-1.76725e-10
4.65218e-10
-1.76374e-10
5.37591e-10
-1.75721e-10
6.09643e-10
-1.7485e-10
6.813e-10
-1.73805e-10
7.52494e-10
-1.7261e-10
8.23164e-10
-1.71275e-10
8.9325e-10
-1.69805e-10
9.62694e-10
-1.68201e-10
1.03144e-09
-1.66465e-10
1.09944e-09
-1.64598e-10
1.16662e-09
-1.62599e-10
1.23295e-09
-1.60468e-10
1.29836e-09
-1.58205e-10
1.36279e-09
-1.55809e-10
1.4262e-09
-1.5328e-10
1.48853e-09
-1.50618e-10
1.54972e-09
-1.47822e-10
1.60973e-09
-1.44893e-10
1.66848e-09
-1.4183e-10
1.72593e-09
-1.38633e-10
1.78203e-09
-1.35302e-10
1.83671e-09
-1.31838e-10
1.88993e-09
-1.28241e-10
1.94163e-09
-1.24511e-10
1.99175e-09
-1.2065e-10
2.04023e-09
-1.16657e-10
2.08704e-09
-1.12533e-10
2.1321e-09
-1.08279e-10
2.17537e-09
-1.03897e-10
2.2168e-09
-9.93878e-11
2.25632e-09
-9.47531e-11
2.2939e-09
-8.99944e-11
2.32947e-09
-8.51135e-11
2.36299e-09
-8.01122e-11
2.39441e-09
-7.49927e-11
2.42367e-09
-6.97576e-11
2.45074e-09
-6.44098e-11
2.47557e-09
-5.89528e-11
2.4981e-09
-5.339e-11
2.5183e-09
-4.7725e-11
2.53612e-09
-4.19615e-11
2.55152e-09
-3.61037e-11
2.56447e-09
-3.01558e-11
2.57493e-09
-2.41228e-11
2.58286e-09
-1.80099e-11
2.58824e-09
-1.18224e-11
2.59102e-09
-5.56589e-12
2.5912e-09
7.52465e-13
2.58875e-09
7.13022e-12
2.58364e-09
1.35561e-11
2.57584e-09
2.00249e-11
2.56534e-09
2.65293e-11
2.55212e-09
3.3062e-11
2.53617e-09
3.96154e-11
2.51748e-09
4.61819e-11
2.49605e-09
5.27534e-11
2.47188e-09
5.93216e-11
2.44497e-09
6.58779e-11
2.41532e-09
7.24134e-11
2.38294e-09
7.89192e-11
2.34785e-09
8.53862e-11
2.31007e-09
9.18049e-11
2.26962e-09
9.81655e-11
2.22653e-09
1.04458e-10
2.18082e-09
1.10672e-10
2.13253e-09
1.16799e-10
2.0817e-09
1.22829e-10
2.02837e-09
1.28753e-10
1.97259e-09
1.3456e-10
1.91441e-09
1.40241e-10
1.85388e-09
1.45785e-10
1.79107e-09
1.51184e-10
1.72604e-09
1.56427e-10
1.65886e-09
1.61505e-10
1.5896e-09
1.66409e-10
1.51833e-09
1.7113e-10
1.44515e-09
1.7566e-10
1.37012e-09
1.79989e-10
1.29335e-09
1.8411e-10
1.21491e-09
1.88014e-10
1.13491e-09
1.91694e-10
1.05344e-09
1.95142e-10
9.70598e-10
1.98352e-10
8.86497e-10
2.01318e-10
8.01238e-10
2.04033e-10
7.1493e-10
2.06493e-10
6.27684e-10
2.08692e-10
5.39611e-10
2.10625e-10
4.50827e-10
2.12289e-10
3.61448e-10
2.13681e-10
2.71592e-10
2.14797e-10
1.81377e-10
2.15637e-10
9.09228e-11
2.16197e-10
3.47038e-13
2.16477e-10
-9.02291e-11
2.16477e-10
-1.80684e-10
2.16197e-10
-2.709e-10
2.15638e-10
-3.60757e-10
2.14799e-10
-4.50137e-10
2.13682e-10
-5.38923e-10
2.12291e-10
-6.26997e-10
2.10628e-10
-7.14247e-10
2.08695e-10
-8.00558e-10
2.06498e-10
-8.8582e-10
2.04041e-10
-9.69924e-10
2.01327e-10
-1.05277e-09
1.98362e-10
-1.13424e-09
1.95153e-10
-1.21425e-09
1.91705e-10
-1.29269e-09
1.88027e-10
-1.36947e-09
1.84124e-10
-1.4445e-09
1.80005e-10
-1.51769e-09
1.75678e-10
-1.58896e-09
1.7115e-10
-1.65822e-09
1.6643e-10
-1.72541e-09
1.61526e-10
-1.79045e-09
1.56448e-10
-1.85327e-09
1.51206e-10
-1.9138e-09
1.45808e-10
-1.97199e-09
1.40264e-10
-2.02778e-09
1.34585e-10
-2.08111e-09
1.28779e-10
-2.13195e-09
1.22857e-10
-2.18025e-09
1.16827e-10
-2.22597e-09
1.10701e-10
-2.26908e-09
1.04487e-10
-2.30954e-09
9.81958e-11
-2.34733e-09
9.18365e-11
-2.38242e-09
8.54195e-11
-2.41481e-09
7.89541e-11
-2.44447e-09
7.24496e-11
-2.4714e-09
6.59154e-11
-2.49558e-09
5.93606e-11
-2.51702e-09
5.27932e-11
-2.53572e-09
4.62221e-11
-2.55168e-09
3.96561e-11
-2.56491e-09
3.31022e-11
-2.57543e-09
2.65685e-11
-2.58323e-09
2.00633e-11
-2.58836e-09
1.35935e-11
-2.59082e-09
7.16648e-12
-2.59065e-09
7.88073e-13
-2.58788e-09
-5.53054e-12
-2.58252e-09
-1.17869e-11
-2.5746e-09
-1.79729e-11
-2.56415e-09
-2.40838e-11
-2.55122e-09
-3.01145e-11
-2.53582e-09
-3.60598e-11
-2.51801e-09
-4.19158e-11
-2.49783e-09
-4.76779e-11
-2.47531e-09
-5.33417e-11
-2.4505e-09
-5.89036e-11
-2.42344e-09
-6.43598e-11
-2.39419e-09
-6.97071e-11
-2.36278e-09
-7.49425e-11
-2.32928e-09
-8.00625e-11
-2.29372e-09
-8.50644e-11
-2.25615e-09
-8.99462e-11
-2.21664e-09
-9.47047e-11
-2.17523e-09
-9.9338e-11
-2.13197e-09
-1.03845e-10
-2.08692e-09
-1.08225e-10
-2.04013e-09
-1.12477e-10
-1.99166e-09
-1.16599e-10
-1.94155e-09
-1.20592e-10
-1.88987e-09
-1.24454e-10
-1.83666e-09
-1.28183e-10
-1.78199e-09
-1.31778e-10
-1.72591e-09
-1.35239e-10
-1.66847e-09
-1.38565e-10
-1.60973e-09
-1.41755e-10
-1.54974e-09
-1.44813e-10
-1.48857e-09
-1.47737e-10
-1.42625e-09
-1.50529e-10
-1.36285e-09
-1.53189e-10
-1.29843e-09
-1.55715e-10
-1.23304e-09
-1.58107e-10
-1.16673e-09
-1.60365e-10
-1.09955e-09
-1.62487e-10
-1.03156e-09
-1.64476e-10
-9.62818e-10
-1.66334e-10
-8.93373e-10
-1.68059e-10
-8.23278e-10
-1.69654e-10
-7.52589e-10
-1.71118e-10
-6.81359e-10
-1.72452e-10
-6.09641e-10
-1.73655e-10
-5.37487e-10
-1.74726e-10
-4.6495e-10
-1.75666e-10
-3.9208e-10
-1.76473e-10
-3.18932e-10
-1.77139e-10
-2.45586e-10
-1.77589e-10
-1.72318e-10
-1.77296e-10
-1.00476e-10
-1.73394e-10
-3.60912e-11
-1.53841e-10
-8.35905e-11
3.75609e-11
-1.23007e-10
1.04149e-10
-2.20484e-10
1.77977e-10
-2.45614e-10
2.52827e-10
-2.50554e-10
3.27523e-10
-2.51331e-10
4.0196e-10
-2.51161e-10
4.76137e-10
-2.50549e-10
5.50023e-10
-2.49606e-10
6.23566e-10
-2.48392e-10
6.96703e-10
-2.46942e-10
7.69373e-10
-2.4528e-10
8.41513e-10
-2.43416e-10
9.13065e-10
-2.41357e-10
9.8397e-10
-2.39106e-10
1.05417e-09
-2.36666e-10
1.12361e-09
-2.34037e-10
1.19223e-09
-2.31221e-10
1.25998e-09
-2.28216e-10
1.3268e-09
-2.25024e-10
1.39263e-09
-2.21642e-10
1.45742e-09
-2.18072e-10
1.52111e-09
-2.14312e-10
1.58365e-09
-2.10363e-10
1.64499e-09
-2.06223e-10
1.70505e-09
-2.01894e-10
1.76379e-09
-1.97375e-10
1.82116e-09
-1.92666e-10
1.87708e-09
-1.87767e-10
1.93152e-09
-1.82679e-10
1.98441e-09
-1.77402e-10
2.0357e-09
-1.71937e-10
2.08533e-09
-1.66284e-10
2.13324e-09
-1.60445e-10
2.17938e-09
-1.54422e-10
2.2237e-09
-1.48214e-10
2.26614e-09
-1.41826e-10
2.30665e-09
-1.35257e-10
2.34516e-09
-1.28511e-10
2.38164e-09
-1.21591e-10
2.41603e-09
-1.14498e-10
2.44827e-09
-1.07235e-10
2.47832e-09
-9.98079e-11
2.50613e-09
-9.22188e-11
2.53165e-09
-8.44727e-11
2.55484e-09
-7.65741e-11
2.57564e-09
-6.8528e-11
2.59401e-09
-6.03396e-11
2.60992e-09
-5.20148e-11
2.62333e-09
-4.35598e-11
2.63418e-09
-3.49817e-11
2.64246e-09
-2.62877e-11
2.64812e-09
-1.74855e-11
2.65114e-09
-8.58347e-12
2.65148e-09
4.08662e-13
2.64913e-09
9.48453e-12
2.64405e-09
1.86358e-11
2.63622e-09
2.78527e-11
2.62563e-09
3.71245e-11
2.61225e-09
4.64404e-11
2.59608e-09
5.57893e-11
2.5771e-09
6.51603e-11
2.55531e-09
7.45418e-11
2.53071e-09
8.39217e-11
2.5033e-09
9.32877e-11
2.47309e-09
1.02627e-10
2.44008e-09
1.11928e-10
2.40429e-09
1.21175e-10
2.36574e-09
1.30357e-10
2.32444e-09
1.39458e-10
2.28044e-09
1.48466e-10
2.23374e-09
1.57365e-10
2.1844e-09
1.66142e-10
2.13244e-09
1.74783e-10
2.07792e-09
1.83274e-10
2.02088e-09
1.91601e-10
1.96138e-09
1.99748e-10
1.89946e-09
2.07703e-10
1.83519e-09
2.1545e-10
1.76864e-09
2.22976e-10
1.69988e-09
2.30268e-10
1.62898e-09
2.37312e-10
1.55601e-09
2.44094e-10
1.48107e-09
2.50603e-10
1.40423e-09
2.56825e-10
1.3256e-09
2.62748e-10
1.24525e-09
2.68362e-10
1.16329e-09
2.73655e-10
1.07981e-09
2.78615e-10
9.94929e-10
2.83234e-10
9.08745e-10
2.87503e-10
8.21368e-10
2.91411e-10
7.32909e-10
2.94952e-10
6.43483e-10
2.98118e-10
5.53205e-10
3.00902e-10
4.62194e-10
3.03298e-10
3.70569e-10
3.05303e-10
2.78453e-10
3.06912e-10
1.85967e-10
3.08122e-10
9.32334e-11
3.08929e-10
3.7589e-13
3.09333e-10
-9.2482e-11
3.09334e-10
-1.85216e-10
3.0893e-10
-2.77704e-10
3.08124e-10
-3.69821e-10
3.06915e-10
-4.61446e-10
3.05307e-10
-5.52459e-10
3.03303e-10
-6.42738e-10
3.00908e-10
-7.32167e-10
2.98125e-10
-8.20629e-10
2.94961e-10
-9.08009e-10
2.91421e-10
-9.94197e-10
2.87514e-10
-1.07908e-09
2.83247e-10
-1.16256e-09
2.7863e-10
-1.24452e-09
2.73671e-10
-1.32488e-09
2.6838e-10
-1.40352e-09
2.62768e-10
-1.48036e-09
2.56847e-10
-1.55531e-09
2.50626e-10
-1.62828e-09
2.44119e-10
-1.69918e-09
2.37337e-10
-1.76795e-09
2.30294e-10
-1.83451e-09
2.23004e-10
-1.89878e-09
2.15478e-10
-1.96071e-09
2.07732e-10
-2.02022e-09
1.99779e-10
-2.07727e-09
1.91634e-10
-2.1318e-09
1.83309e-10
-2.18376e-09
1.7482e-10
-2.23311e-09
1.66179e-10
-2.27981e-09
1.57403e-10
-2.32383e-09
1.48505e-10
-2.36513e-09
1.39498e-10
-2.40369e-09
1.30398e-10
-2.43949e-09
1.21218e-10
-2.47251e-09
1.11973e-10
-2.50273e-09
1.02674e-10
-2.53015e-09
9.33351e-11
-2.55476e-09
8.39701e-11
-2.57656e-09
7.45908e-11
-2.59555e-09
6.52094e-11
-2.61173e-09
5.58386e-11
-2.62512e-09
4.64894e-11
-2.63572e-09
3.71729e-11
-2.64356e-09
2.79007e-11
-2.64865e-09
1.86838e-11
-2.65101e-09
9.5326e-12
-2.65068e-09
4.56677e-13
-2.64767e-09
-8.53526e-12
-2.64202e-09
-1.74369e-11
-2.63376e-09
-2.62382e-11
-2.62291e-09
-3.49306e-11
-2.60952e-09
-4.3507e-11
-2.59362e-09
-5.19598e-11
-2.57525e-09
-6.02827e-11
-2.55446e-09
-6.84701e-11
-2.53128e-09
-7.65156e-11
-2.50577e-09
-8.44139e-11
-2.47797e-09
-9.21601e-11
-2.44793e-09
-9.97494e-11
-2.41569e-09
-1.07177e-10
-2.38132e-09
-1.1444e-10
-2.34485e-09
-1.21533e-10
-2.30634e-09
-1.28454e-10
-2.26584e-09
-1.352e-10
-2.22341e-09
-1.41767e-10
-2.17911e-09
-1.48154e-10
-2.13297e-09
-1.5436e-10
-2.08506e-09
-1.60382e-10
-2.03544e-09
-1.6622e-10
-1.98417e-09
-1.71872e-10
-1.93128e-09
-1.77337e-10
-1.87685e-09
-1.82613e-10
-1.82093e-09
-1.87699e-10
-1.76357e-09
-1.92595e-10
-1.70484e-09
-1.97301e-10
-1.64478e-09
-2.01815e-10
-1.58345e-09
-2.0614e-10
-1.52091e-09
-2.10276e-10
-1.45722e-09
-2.14223e-10
-1.39243e-09
-2.1798e-10
-1.32659e-09
-2.21549e-10
-1.25977e-09
-2.24928e-10
-1.19202e-09
-2.28117e-10
-1.12339e-09
-2.31119e-10
-1.05393e-09
-2.33931e-10
-9.83708e-10
-2.36556e-10
-9.12773e-10
-2.38995e-10
-8.41178e-10
-2.41248e-10
-7.68979e-10
-2.43316e-10
-6.96231e-10
-2.45201e-10
-6.22987e-10
-2.469e-10
-5.49302e-10
-2.48414e-10
-4.75225e-10
-2.49743e-10
-4.00811e-10
-2.50886e-10
-3.26116e-10
-2.51835e-10
-2.5122e-10
-2.52482e-10
-1.76404e-10
-2.52114e-10
-1.03028e-10
-2.46772e-10
-3.71913e-11
-2.19676e-10
-1.20782e-10
3.75011e-11
-1.60509e-10
1.04117e-10
-2.871e-10
1.78365e-10
-3.19864e-10
2.53838e-10
-3.26029e-10
3.2917e-10
-3.26662e-10
4.04185e-10
-3.26174e-10
4.78878e-10
-3.25241e-10
5.53236e-10
-3.23963e-10
6.27221e-10
-3.22376e-10
7.00783e-10
-3.20505e-10
7.73868e-10
-3.18365e-10
8.46418e-10
-3.15966e-10
9.18377e-10
-3.13315e-10
9.89686e-10
-3.10415e-10
1.06029e-09
-3.07269e-10
1.13013e-09
-3.03878e-10
1.19915e-09
-3.00243e-10
1.2673e-09
-2.96364e-10
1.33451e-09
-2.92241e-10
1.40074e-09
-2.87872e-10
1.46593e-09
-2.83258e-10
1.53001e-09
-2.78398e-10
1.59294e-09
-2.73293e-10
1.65466e-09
-2.67942e-10
1.71511e-09
-2.62344e-10
1.77424e-09
-2.565e-10
1.83198e-09
-2.50409e-10
1.88828e-09
-2.44072e-10
1.94309e-09
-2.37488e-10
1.99635e-09
-2.30659e-10
2.048e-09
-2.23586e-10
2.09798e-09
-2.16269e-10
2.14625e-09
-2.0871e-10
2.19273e-09
-2.0091e-10
2.23739e-09
-1.92871e-10
2.28016e-09
-1.84595e-10
2.32099e-09
-1.76086e-10
2.35983e-09
-1.67345e-10
2.39661e-09
-1.58376e-10
2.4313e-09
-1.49183e-10
2.46383e-09
-1.39769e-10
2.49416e-09
-1.30139e-10
2.52224e-09
-1.20298e-10
2.54802e-09
-1.10251e-10
2.57145e-09
-1.00005e-10
2.59249e-09
-8.95651e-11
2.61108e-09
-7.89387e-11
2.6272e-09
-6.81333e-11
2.6408e-09
-5.71571e-11
2.65183e-09
-4.60187e-11
2.66027e-09
-3.47276e-11
2.66608e-09
-2.32934e-11
2.66922e-09
-1.17267e-11
2.66967e-09
-3.91323e-14
2.6674e-09
1.17593e-11
2.66238e-09
2.36576e-11
2.65459e-09
3.56433e-11
2.64401e-09
4.77028e-11
2.63063e-09
5.98224e-11
2.61443e-09
7.19879e-11
2.5954e-09
8.4185e-11
2.57355e-09
9.63983e-11
2.54886e-09
1.08612e-10
2.52134e-09
1.20811e-10
2.49099e-09
1.32977e-10
2.45782e-09
1.45095e-10
2.42185e-09
1.57147e-10
2.38309e-09
1.69115e-10
2.34157e-09
1.80981e-10
2.2973e-09
1.92728e-10
2.25033e-09
2.04335e-10
2.20069e-09
2.15787e-10
2.14841e-09
2.27063e-10
2.09354e-09
2.38145e-10
2.03612e-09
2.49014e-10
1.97622e-09
2.59652e-10
1.91388e-09
2.70039e-10
1.84918e-09
2.80158e-10
1.78216e-09
2.8999e-10
1.71291e-09
2.99517e-10
1.64151e-09
3.08721e-10
1.56802e-09
3.17585e-10
1.49253e-09
3.26092e-10
1.41513e-09
3.34226e-10
1.3359e-09
3.41971e-10
1.25495e-09
3.49312e-10
1.17237e-09
3.56234e-10
1.08826e-09
3.62723e-10
1.00273e-09
3.68766e-10
9.15882e-10
3.74351e-10
8.27829e-10
3.79465e-10
7.38683e-10
3.84098e-10
6.48559e-10
3.88241e-10
5.57574e-10
3.91885e-10
4.65848e-10
3.95022e-10
3.73503e-10
3.97647e-10
2.8066e-10
3.99754e-10
1.87443e-10
4.01338e-10
9.39769e-11
4.02396e-10
3.85222e-13
4.02925e-10
-9.32067e-11
4.02925e-10
-1.86674e-10
4.02397e-10
-2.79891e-10
4.01341e-10
-3.72735e-10
3.99759e-10
-4.65081e-10
3.97654e-10
-5.56809e-10
3.95031e-10
-6.47795e-10
3.91894e-10
-7.37922e-10
3.88251e-10
-8.27071e-10
3.8411e-10
-9.15127e-10
3.79478e-10
-1.00198e-09
3.74365e-10
-1.08751e-09
3.68783e-10
-1.17162e-09
3.62742e-10
-1.25421e-09
3.56255e-10
-1.33516e-09
3.49336e-10
-1.41439e-09
3.41997e-10
-1.4918e-09
3.34254e-10
-1.56729e-09
3.26121e-10
-1.64079e-09
3.17615e-10
-1.7122e-09
3.08752e-10
-1.78146e-09
2.99548e-10
-1.84847e-09
2.90023e-10
-1.91319e-09
2.80193e-10
-1.97553e-09
2.70076e-10
-2.03544e-09
2.59691e-10
-2.09286e-09
2.49055e-10
-2.14774e-09
2.38187e-10
-2.20003e-09
2.27107e-10
-2.24968e-09
2.15832e-10
-2.29666e-09
2.04382e-10
-2.34093e-09
1.92775e-10
-2.38246e-09
1.8103e-10
-2.42123e-09
1.69166e-10
-2.45721e-09
1.572e-10
-2.49038e-09
1.4515e-10
-2.52074e-09
1.33033e-10
-2.54827e-09
1.20867e-10
-2.57297e-09
1.08669e-10
-2.59484e-09
9.64559e-11
-2.61387e-09
8.42427e-11
-2.63008e-09
7.20456e-11
-2.64347e-09
5.98801e-11
-2.65406e-09
4.77602e-11
-2.66186e-09
3.57004e-11
-2.66689e-09
2.37151e-11
-2.66917e-09
1.18174e-11
-2.66873e-09
1.94537e-14
-2.6656e-09
-1.16675e-11
-2.6598e-09
-2.32334e-11
-2.65138e-09
-3.46667e-11
-2.64035e-09
-4.59565e-11
-2.62676e-09
-5.70933e-11
-2.61065e-09
-6.8068e-11
-2.59206e-09
-7.88719e-11
-2.57104e-09
-8.94976e-11
-2.54761e-09
-9.99372e-11
-2.52184e-09
-1.10184e-10
-2.49377e-09
-1.20231e-10
-2.46345e-09
-1.30073e-10
-2.43093e-09
-1.39703e-10
-2.39625e-09
-1.49117e-10
-2.35947e-09
-1.58311e-10
-2.32064e-09
-1.6728e-10
-2.27982e-09
-1.7602e-10
-2.23706e-09
-1.84529e-10
-2.19241e-09
-1.92804e-10
-2.14593e-09
-2.00841e-10
-2.09767e-09
-2.0864e-10
-2.04769e-09
-2.16199e-10
-1.99605e-09
-2.23515e-10
-1.94279e-09
-2.30588e-10
-1.88799e-09
-2.37415e-10
-1.83169e-09
-2.43998e-10
-1.77395e-09
-2.50333e-10
-1.71483e-09
-2.56422e-10
-1.65438e-09
-2.62263e-10
-1.59266e-09
-2.67859e-10
-1.52973e-09
-2.73208e-10
-1.46564e-09
-2.78312e-10
-1.40045e-09
-2.8317e-10
-1.33422e-09
-2.87784e-10
-1.26699e-09
-2.92152e-10
-1.19883e-09
-2.96275e-10
-1.1298e-09
-3.00156e-10
-1.05994e-09
-3.03793e-10
-9.89305e-10
-3.07187e-10
-9.1796e-10
-3.1034e-10
-8.45954e-10
-3.13253e-10
-7.73344e-10
-3.15927e-10
-7.00183e-10
-3.18362e-10
-6.26525e-10
-3.20558e-10
-5.52424e-10
-3.22517e-10
-4.77933e-10
-3.24237e-10
-4.03105e-10
-3.25718e-10
-3.27995e-10
-3.26946e-10
-2.52687e-10
-3.27791e-10
-1.77458e-10
-3.2734e-10
-1.03683e-10
-3.2055e-10
-3.74884e-11
-2.85874e-10
-1.5827e-10
3.749e-11
-1.98001e-10
1.04083e-10
-3.53695e-10
1.78482e-10
-3.94264e-10
2.54264e-10
-4.01811e-10
3.29973e-10
-4.0237e-10
4.05368e-10
-4.01568e-10
4.80421e-10
-4.00293e-10
5.55113e-10
-3.98655e-10
6.29412e-10
-3.96675e-10
7.03273e-10
-3.94366e-10
7.76646e-10
-3.91738e-10
8.49479e-10
-3.88798e-10
9.21716e-10
-3.85551e-10
9.93301e-10
-3.81999e-10
1.06418e-09
-3.78147e-10
1.13429e-09
-3.73993e-10
1.20359e-09
-3.6954e-10
1.27201e-09
-3.64786e-10
1.3395e-09
-3.59731e-10
1.406e-09
-3.54375e-10
1.47146e-09
-3.48718e-10
1.53582e-09
-3.42759e-10
1.59903e-09
-3.36498e-10
1.66102e-09
-3.29935e-10
1.72174e-09
-3.23068e-10
1.78114e-09
-3.15898e-10
1.83916e-09
-3.08425e-10
1.89573e-09
-3.00648e-10
1.95081e-09
-2.92569e-10
2.00434e-09
-2.84187e-10
2.05626e-09
-2.75504e-10
2.10651e-09
-2.66521e-10
2.15504e-09
-2.57239e-10
2.20179e-09
-2.47661e-10
2.24671e-09
-2.37788e-10
2.28973e-09
-2.27623e-10
2.33082e-09
-2.17169e-10
2.3699e-09
-2.06429e-10
2.40693e-09
-1.95408e-10
2.44186e-09
-1.84109e-10
2.47463e-09
-1.72538e-10
2.50518e-09
-1.60699e-10
2.53349e-09
-1.486e-10
2.55948e-09
-1.36246e-10
2.58312e-09
-1.23644e-10
2.60435e-09
-1.10802e-10
2.62314e-09
-9.77291e-11
2.63944e-09
-8.4434e-11
2.65321e-09
-7.09268e-11
2.66441e-09
-5.72178e-11
2.673e-09
-4.33183e-11
2.67895e-09
-2.92402e-11
2.68222e-09
-1.4996e-11
2.68278e-09
-5.99664e-13
2.68061e-09
1.39357e-11
2.67567e-09
2.85956e-11
2.66795e-09
4.33649e-11
2.65743e-09
5.82274e-11
2.64408e-09
7.31665e-11
2.6279e-09
8.8165e-11
2.60888e-09
1.03205e-10
2.58701e-09
1.18267e-10
2.56229e-09
1.33333e-10
2.53472e-09
1.48382e-10
2.50431e-09
1.63394e-10
2.47106e-09
1.78348e-10
2.43498e-09
1.93223e-10
2.3961e-09
2.07997e-10
2.35443e-09
2.22647e-10
2.31001e-09
2.37152e-10
2.26286e-09
2.51488e-10
2.21301e-09
2.65633e-10
2.16051e-09
2.79564e-10
2.1054e-09
2.93256e-10
2.04773e-09
3.06688e-10
1.98754e-09
3.19835e-10
1.92491e-09
3.32674e-10
1.85988e-09
3.45184e-10
1.79253e-09
3.5734e-10
1.72292e-09
3.69121e-10
1.65114e-09
3.80504e-10
1.57726e-09
3.91468e-10
1.50136e-09
4.01991e-10
1.42353e-09
4.12054e-10
1.34387e-09
4.21637e-10
1.26246e-09
4.30721e-10
1.17941e-09
4.39287e-10
1.09481e-09
4.47318e-10
1.00878e-09
4.54797e-10
9.21422e-10
4.61709e-10
8.32847e-10
4.68039e-10
7.43169e-10
4.73775e-10
6.52505e-10
4.78904e-10
5.60972e-10
4.83417e-10
4.68691e-10
4.87302e-10
3.75784e-10
4.90553e-10
2.82376e-10
4.93162e-10
1.8859e-10
4.95124e-10
9.45522e-11
4.96433e-10
3.87737e-13
4.97089e-10
-9.37767e-11
4.97089e-10
-1.87815e-10
4.96435e-10
-2.81601e-10
4.95128e-10
-3.7501e-10
4.93168e-10
-4.67918e-10
4.90562e-10
-5.602e-10
4.87313e-10
-6.51736e-10
4.83429e-10
-7.42403e-10
4.78918e-10
-8.32083e-10
4.7379e-10
-9.20661e-10
4.68056e-10
-1.00802e-09
4.61727e-10
-1.09406e-09
4.54817e-10
-1.17865e-09
4.4734e-10
-1.26171e-09
4.39312e-10
-1.34312e-09
4.30749e-10
-1.42279e-09
4.21668e-10
-1.50062e-09
4.12087e-10
-1.57653e-09
4.02026e-10
-1.65042e-09
3.91503e-10
-1.72221e-09
3.80541e-10
-1.79182e-09
3.69159e-10
-1.85917e-09
3.5738e-10
-1.9242e-09
3.45226e-10
-1.98685e-09
3.32719e-10
-2.04704e-09
3.19882e-10
-2.10472e-09
3.06736e-10
-2.15984e-09
2.93306e-10
-2.21235e-09
2.79615e-10
-2.2622e-09
2.65686e-10
-2.30936e-09
2.51543e-10
-2.35379e-09
2.37208e-10
-2.39546e-09
2.22705e-10
-2.43435e-09
2.08056e-10
-2.47044e-09
1.93284e-10
-2.5037e-09
1.78411e-10
-2.53412e-09
1.63458e-10
-2.5617e-09
1.48447e-10
-2.58643e-09
1.33398e-10
-2.60831e-09
1.18333e-10
-2.62734e-09
1.03271e-10
-2.64353e-09
8.82318e-11
-2.65688e-09
7.32334e-11
-2.66741e-09
5.82942e-11
-2.67514e-09
4.34314e-11
-2.68009e-09
2.86622e-11
-2.68228e-09
1.40028e-11
-2.68172e-09
-5.31813e-13
-2.67846e-09
-1.49273e-11
-2.67253e-09
-2.91703e-11
-2.66395e-09
-4.32475e-11
-2.65276e-09
-5.71458e-11
-2.639e-09
-7.08533e-11
-2.62271e-09
-8.43595e-11
-2.60392e-09
-9.76534e-11
-2.5827e-09
-1.10726e-10
-2.55906e-09
-1.23567e-10
-2.53308e-09
-1.36169e-10
-2.50479e-09
-1.48524e-10
-2.47423e-09
-1.60624e-10
-2.44147e-09
-1.72463e-10
-2.40655e-09
-1.84035e-10
-2.36953e-09
-1.95334e-10
-2.33045e-09
-2.06355e-10
-2.28938e-09
-2.17094e-10
-2.24636e-09
-2.27548e-10
-2.20145e-09
-2.37713e-10
-2.15471e-09
-2.47585e-10
-2.10618e-09
-2.57163e-10
-2.05594e-09
-2.66444e-10
-2.00402e-09
-2.75427e-10
-1.9505e-09
-2.84109e-10
-1.89543e-09
-2.9249e-10
-1.83885e-09
-3.00569e-10