/*--------------------------------*- C++ -*----------------------------------*\
| =========                 |                                                 |
| \\      /  F ield         | OpenFOAM: The Open Source CFD Toolbox           |
|  \\    /   O peration     | Version:  2412                                  |
|   \\  /    A nd           | Website:  www.openfoam.com                      |
|    \\/     M anipulation  |                                                 |
\*---------------------------------------------------------------------------*/
FoamFile
{
    version     2.0;
    format      ascii;
    arch        "LSB;label=32;scalar=64";
    class       volVectorField;
    location    "1.22";
    object      U;
}
// * * * * * * * * * * * * * * * * * * * * * * * * * * * * * * * * * * * * * //

dimensions      [0 1 -1 0 0 0 0];

internalField   nonuniform List<vector> 
40000
(
(4.39236e-06 -4.13499e-06 0)
(3.00174e-05 -7.84387e-06 0)
(6.47143e-05 -9.37863e-06 0)
(0.000101738 -9.97195e-06 0)
(0.000139669 -1.01765e-05 0)
(0.000177864 -1.02246e-05 0)
(0.000216045 -1.01927e-05 0)
(0.000254083 -1.01282e-05 0)
(0.000291908 -1.00509e-05 0)
(0.000329482 -9.96814e-06 0)
(0.000366778 -9.88116e-06 0)
(0.00040377 -9.78855e-06 0)
(0.000440435 -9.68964e-06 0)
(0.000476746 -9.58405e-06 0)
(0.000512678 -9.47132e-06 0)
(0.000548203 -9.35105e-06 0)
(0.000583293 -9.22297e-06 0)
(0.000617922 -9.08704e-06 0)
(0.000652059 -8.94323e-06 0)
(0.000685677 -8.79149e-06 0)
(0.000718747 -8.63179e-06 0)
(0.00075124 -8.46412e-06 0)
(0.000783126 -8.28851e-06 0)
(0.000814376 -8.10501e-06 0)
(0.000844962 -7.91365e-06 0)
(0.000874853 -7.71449e-06 0)
(0.000904022 -7.50759e-06 0)
(0.00093244 -7.29306e-06 0)
(0.000960078 -7.07101e-06 0)
(0.000986908 -6.84155e-06 0)
(0.0010129 -6.6048e-06 0)
(0.00103803 -6.36084e-06 0)
(0.00106227 -6.10976e-06 0)
(0.00108558 -5.85164e-06 0)
(0.00110796 -5.58659e-06 0)
(0.00112935 -5.31479e-06 0)
(0.00114975 -5.03644e-06 0)
(0.00116912 -4.75179e-06 0)
(0.00118744 -4.46105e-06 0)
(0.00120469 -4.16439e-06 0)
(0.00122083 -3.86192e-06 0)
(0.00123585 -3.55375e-06 0)
(0.00124972 -3.24009e-06 0)
(0.00126242 -2.92124e-06 0)
(0.00127393 -2.59758e-06 0)
(0.00128423 -2.26952e-06 0)
(0.00129329 -1.93735e-06 0)
(0.0013011 -1.6013e-06 0)
(0.00130764 -1.26153e-06 0)
(0.0013129 -9.18188e-07 0)
(0.00131686 -5.71419e-07 0)
(0.0013195 -2.20986e-07 0)
(0.0013208 1.33748e-07 0)
(0.00132076 4.89577e-07 0)
(0.00131934 8.51427e-07 0)
(0.00131656 1.21182e-06 0)
(0.00131241 1.56983e-06 0)
(0.00130688 1.92618e-06 0)
(0.00129998 2.28138e-06 0)
(0.0012917 2.63547e-06 0)
(0.00128203 2.98823e-06 0)
(0.00127099 3.33938e-06 0)
(0.00125858 3.6885e-06 0)
(0.00124479 4.03509e-06 0)
(0.00122964 4.37859e-06 0)
(0.00121312 4.71853e-06 0)
(0.00119526 5.05455e-06 0)
(0.00117607 5.38631e-06 0)
(0.00115555 5.71343e-06 0)
(0.00113373 6.03542e-06 0)
(0.00111062 6.35168e-06 0)
(0.00108624 6.6617e-06 0)
(0.00106062 6.96508e-06 0)
(0.00103376 7.26155e-06 0)
(0.00100571 7.55083e-06 0)
(0.000976488 7.83257e-06 0)
(0.00094612 8.1063e-06 0)
(0.000914639 8.37158e-06 0)
(0.000882078 8.62802e-06 0)
(0.00084847 8.87534e-06 0)
(0.000813852 9.11328e-06 0)
(0.000778262 9.34151e-06 0)
(0.000741739 9.55967e-06 0)
(0.000704323 9.76739e-06 0)
(0.000666057 9.96442e-06 0)
(0.000626985 1.01506e-05 0)
(0.000587153 1.03257e-05 0)
(0.000546607 1.04894e-05 0)
(0.000505395 1.06415e-05 0)
(0.000463566 1.07817e-05 0)
(0.00042117 1.09098e-05 0)
(0.000378258 1.10257e-05 0)
(0.000334882 1.11295e-05 0)
(0.000291094 1.12209e-05 0)
(0.000246948 1.12997e-05 0)
(0.000202497 1.13657e-05 0)
(0.000157797 1.14189e-05 0)
(0.000112903 1.14593e-05 0)
(6.78706e-05 1.14867e-05 0)
(2.27564e-05 1.15005e-05 0)
(-2.23851e-05 1.15005e-05 0)
(-6.74997e-05 1.14866e-05 0)
(-0.000112533 1.14592e-05 0)
(-0.000157428 1.14188e-05 0)
(-0.000202128 1.13655e-05 0)
(-0.00024658 1.12995e-05 0)
(-0.000290728 1.12208e-05 0)
(-0.000334518 1.11295e-05 0)
(-0.000377897 1.10258e-05 0)
(-0.000420811 1.09099e-05 0)
(-0.000463209 1.07821e-05 0)
(-0.00050504 1.06422e-05 0)
(-0.000546254 1.04905e-05 0)
(-0.000586803 1.03271e-05 0)
(-0.000626638 1.01521e-05 0)
(-0.000665714 9.9659e-06 0)
(-0.000703983 9.76885e-06 0)
(-0.000741403 9.56119e-06 0)
(-0.000777931 9.34313e-06 0)
(-0.000813526 9.11513e-06 0)
(-0.000848148 8.87746e-06 0)
(-0.00088176 8.63027e-06 0)
(-0.000914326 8.37383e-06 0)
(-0.000945813 8.10855e-06 0)
(-0.000976187 7.83486e-06 0)
(-0.00100542 7.55315e-06 0)
(-0.00103348 7.26374e-06 0)
(-0.00106034 6.96715e-06 0)
(-0.00108597 6.66379e-06 0)
(-0.00111036 6.35392e-06 0)
(-0.00113348 6.03798e-06 0)
(-0.00115531 5.71648e-06 0)
(-0.00117583 5.38975e-06 0)
(-0.00119504 5.05807e-06 0)
(-0.0012129 4.72188e-06 0)
(-0.00122943 4.38198e-06 0)
(-0.00124459 4.03879e-06 0)
(-0.00125839 3.69243e-06 0)
(-0.00127082 3.34358e-06 0)
(-0.00128188 2.99275e-06 0)
(-0.00129155 2.63992e-06 0)
(-0.00129985 2.28564e-06 0)
(-0.00130677 1.93042e-06 0)
(-0.0013123 1.57384e-06 0)
(-0.00131647 1.21532e-06 0)
(-0.00131926 8.54505e-07 0)
(-0.00132068 4.92268e-07 0)
(-0.00132073 1.36095e-07 0)
(-0.00131943 -2.18652e-07 0)
(-0.00131681 -5.68845e-07 0)
(-0.00131286 -9.15161e-07 0)
(-0.00130762 -1.25779e-06 0)
(-0.00130109 -1.59713e-06 0)
(-0.00129329 -1.9329e-06 0)
(-0.00128424 -2.26465e-06 0)
(-0.00127396 -2.59245e-06 0)
(-0.00126247 -2.916e-06 0)
(-0.00124979 -3.23472e-06 0)
(-0.00123593 -3.54835e-06 0)
(-0.00122093 -3.85662e-06 0)
(-0.00120481 -4.15937e-06 0)
(-0.00118758 -4.45644e-06 0)
(-0.00116927 -4.74727e-06 0)
(-0.00114992 -5.0319e-06 0)
(-0.00112953 -5.31026e-06 0)
(-0.00110815 -5.58188e-06 0)
(-0.0010858 -5.84658e-06 0)
(-0.0010625 -6.10434e-06 0)
(-0.00103828 -6.35531e-06 0)
(-0.00101317 -6.5993e-06 0)
(-0.000987199 -6.83604e-06 0)
(-0.000960389 -7.06576e-06 0)
(-0.000932772 -7.28817e-06 0)
(-0.000904376 -7.50225e-06 0)
(-0.000875231 -7.70807e-06 0)
(-0.000845367 -7.90601e-06 0)
(-0.000814814 -8.09604e-06 0)
(-0.000783598 -8.27849e-06 0)
(-0.00075175 -8.45355e-06 0)
(-0.000719298 -8.62123e-06 0)
(-0.00068627 -8.78084e-06 0)
(-0.000652694 -8.93206e-06 0)
(-0.000618602 -9.07502e-06 0)
(-0.000584023 -9.20954e-06 0)
(-0.000548988 -9.33528e-06 0)
(-0.000513526 -9.4522e-06 0)
(-0.000477667 -9.56151e-06 0)
(-0.00044144 -9.66299e-06 0)
(-0.000404872 -9.75638e-06 0)
(-0.000367994 -9.84204e-06 0)
(-0.000330834 -9.91885e-06 0)
(-0.000293421 -9.98686e-06 0)
(-0.000255787 -1.00456e-05 0)
(-0.000217962 -1.0094e-05 0)
(-0.000179982 -1.01287e-05 0)
(-0.000141888 -1.0137e-05 0)
(-0.000103748 -1.00755e-05 0)
(-6.59227e-05 -9.74602e-06 0)
(-3.01654e-05 -8.39092e-06 0)
(-4.19909e-06 -4.27069e-06 0)
(8.70962e-06 -3.02977e-05 0)
(5.91148e-05 -5.72323e-05 0)
(0.000121373 -6.55266e-05 0)
(0.000186324 -6.80327e-05 0)
(0.000251933 -6.89085e-05 0)
(0.000317699 -6.91172e-05 0)
(0.000383429 -6.89773e-05 0)
(0.000448984 -6.86613e-05 0)
(0.000514261 -6.82508e-05 0)
(0.000579185 -6.77811e-05 0)
(0.00064369 -6.72637e-05 0)
(0.000707724 -6.67003e-05 0)
(0.000771235 -6.60905e-05 0)
(0.000834174 -6.54336e-05 0)
(0.000896493 -6.47283e-05 0)
(0.000958141 -6.39736e-05 0)
(0.00101907 -6.31687e-05 0)
(0.00107923 -6.23131e-05 0)
(0.00113858 -6.14065e-05 0)
(0.00119706 -6.04485e-05 0)
(0.00125463 -5.94386e-05 0)
(0.00131124 -5.83768e-05 0)
(0.00136683 -5.72629e-05 0)
(0.00142136 -5.60967e-05 0)
(0.00147477 -5.48784e-05 0)
(0.00152702 -5.3608e-05 0)
(0.00157806 -5.22856e-05 0)
(0.00162784 -5.09116e-05 0)
(0.0016763 -4.94862e-05 0)
(0.00172341 -4.80097e-05 0)
(0.0017691 -4.64824e-05 0)
(0.00181333 -4.49047e-05 0)
(0.00185606 -4.32768e-05 0)
(0.00189723 -4.15992e-05 0)
(0.0019368 -3.98723e-05 0)
(0.00197471 -3.80969e-05 0)
(0.00201092 -3.62738e-05 0)
(0.00204539 -3.44039e-05 0)
(0.00207806 -3.24878e-05 0)
(0.0021089 -3.05265e-05 0)
(0.00213785 -2.85206e-05 0)
(0.00216488 -2.64711e-05 0)
(0.00218994 -2.43792e-05 0)
(0.00221299 -2.22464e-05 0)
(0.00223399 -2.00744e-05 0)
(0.00225289 -1.78649e-05 0)
(0.00226967 -1.56196e-05 0)
(0.00228429 -1.334e-05 0)
(0.00229671 -1.10277e-05 0)
(0.0023069 -8.68435e-06 0)
(0.00231483 -6.3117e-06 0)
(0.00232046 -3.91101e-06 0)
(0.00232378 -1.48231e-06 0)
(0.00232476 9.73067e-07 0)
(0.00232337 3.45214e-06 0)
(0.00231959 5.94159e-06 0)
(0.00231341 8.43833e-06 0)
(0.00230482 1.0942e-05 0)
(0.00229379 1.34517e-05 0)
(0.00228032 1.59654e-05 0)
(0.0022644 1.84805e-05 0)
(0.00224604 2.09943e-05 0)
(0.00222522 2.35036e-05 0)
(0.00220195 2.6005e-05 0)
(0.00217624 2.84952e-05 0)
(0.00214809 3.09706e-05 0)
(0.00211752 3.34279e-05 0)
(0.00208455 3.58639e-05 0)
(0.00204919 3.82749e-05 0)
(0.00201147 4.06572e-05 0)
(0.00197141 4.30068e-05 0)
(0.00192905 4.53202e-05 0)
(0.00188441 4.75939e-05 0)
(0.00183754 4.98247e-05 0)
(0.00178848 5.20094e-05 0)
(0.00173727 5.41445e-05 0)
(0.00168396 5.62262e-05 0)
(0.00162861 5.8251e-05 0)
(0.00157126 6.02154e-05 0)
(0.00151199 6.21162e-05 0)
(0.00145085 6.39502e-05 0)
(0.00138791 6.57144e-05 0)
(0.00132323 6.74054e-05 0)
(0.0012569 6.90204e-05 0)
(0.00118899 7.05564e-05 0)
(0.00111958 7.20108e-05 0)
(0.00104875 7.3381e-05 0)
(0.000976591 7.46644e-05 0)
(0.000903182 7.58584e-05 0)
(0.000828618 7.69608e-05 0)
(0.000752991 7.79698e-05 0)
(0.000676395 7.88837e-05 0)
(0.000598928 7.9701e-05 0)
(0.000520688 8.04201e-05 0)
(0.000441773 8.10393e-05 0)
(0.000362286 8.15575e-05 0)
(0.000282329 8.19738e-05 0)
(0.000202006 8.22872e-05 0)
(0.000121422 8.24972e-05 0)
(4.06821e-05 8.26024e-05 0)
(-4.01122e-05 8.26024e-05 0)
(-0.000120853 8.24973e-05 0)
(-0.000201438 8.22873e-05 0)
(-0.000281762 8.19737e-05 0)
(-0.000361719 8.15575e-05 0)
(-0.000441208 8.10394e-05 0)
(-0.000520125 8.04205e-05 0)
(-0.000598368 7.97021e-05 0)
(-0.000675838 7.88856e-05 0)
(-0.000752436 7.79725e-05 0)
(-0.000828066 7.69644e-05 0)
(-0.000902633 7.58629e-05 0)
(-0.000976045 7.46697e-05 0)
(-0.00104821 7.33871e-05 0)
(-0.00111905 7.20175e-05 0)
(-0.00118846 7.05635e-05 0)
(-0.00125638 6.9028e-05 0)
(-0.00132271 6.74137e-05 0)
(-0.00138739 6.57233e-05 0)
(-0.00145034 6.39599e-05 0)
(-0.00151148 6.21265e-05 0)
(-0.00157076 6.02262e-05 0)
(-0.00162812 5.8262e-05 0)
(-0.00168348 5.62374e-05 0)
(-0.00173679 5.41562e-05 0)
(-0.00178801 5.20217e-05 0)
(-0.00183708 4.98374e-05 0)
(-0.00188396 4.76067e-05 0)
(-0.00192861 4.53333e-05 0)
(-0.00197098 4.30205e-05 0)
(-0.00201105 4.06718e-05 0)
(-0.00204879 3.82908e-05 0)
(-0.00208416 3.58811e-05 0)
(-0.00211714 3.3446e-05 0)
(-0.00214772 3.09892e-05 0)
(-0.00217588 2.85146e-05 0)
(-0.00220161 2.60258e-05 0)
(-0.00222489 2.35255e-05 0)
(-0.00224572 2.10171e-05 0)
(-0.00226411 1.85042e-05 0)
(-0.00228004 1.59891e-05 0)
(-0.00229352 1.34747e-05 0)
(-0.00230456 1.09642e-05 0)
(-0.00231318 8.45922e-06 0)
(-0.00231937 5.96058e-06 0)
(-0.00232316 3.46941e-06 0)
(-0.00232456 9.89125e-07 0)
(-0.00232359 -1.46691e-06 0)
(-0.00232029 -3.89524e-06 0)
(-0.00231467 -6.29442e-06 0)
(-0.00230675 -8.66487e-06 0)
(-0.00229658 -1.10054e-05 0)
(-0.00228418 -1.33153e-05 0)
(-0.00226958 -1.55931e-05 0)
(-0.00225281 -1.78367e-05 0)
(-0.00223392 -2.00449e-05 0)
(-0.00221294 -2.22161e-05 0)
(-0.00218992 -2.43482e-05 0)
(-0.00216488 -2.64398e-05 0)
(-0.00213787 -2.84896e-05 0)
(-0.00210893 -3.04963e-05 0)
(-0.00207811 -3.24586e-05 0)
(-0.00204546 -3.4375e-05 0)
(-0.00201101 -3.62446e-05 0)
(-0.00197482 -3.80667e-05 0)
(-0.00193693 -3.98402e-05 0)
(-0.00189738 -4.1565e-05 0)
(-0.00185624 -4.32411e-05 0)
(-0.00181353 -4.48677e-05 0)
(-0.00176932 -4.64449e-05 0)
(-0.00172364 -4.79721e-05 0)
(-0.00167656 -4.94486e-05 0)
(-0.00162812 -5.0873e-05 0)
(-0.00157837 -5.22436e-05 0)
(-0.00152736 -5.35605e-05 0)
(-0.00147514 -5.48248e-05 0)
(-0.00142176 -5.60365e-05 0)
(-0.00136726 -5.7197e-05 0)
(-0.00131171 -5.83075e-05 0)
(-0.00125514 -5.93668e-05 0)
(-0.00119761 -6.03738e-05 0)
(-0.00113917 -6.13274e-05 0)
(-0.00107987 -6.22274e-05 0)
(-0.00101975 -6.3073e-05 0)
(-0.000958872 -6.38646e-05 0)
(-0.000897277 -6.46033e-05 0)
(-0.000835018 -6.52904e-05 0)
(-0.000772143 -6.59269e-05 0)
(-0.0007087 -6.65121e-05 0)
(-0.000644737 -6.70463e-05 0)
(-0.000580305 -6.75279e-05 0)
(-0.000515451 -6.79558e-05 0)
(-0.000450223 -6.83291e-05 0)
(-0.00038467 -6.86453e-05 0)
(-0.000318842 -6.88969e-05 0)
(-0.000252782 -6.90412e-05 0)
(-0.00018654 -6.8831e-05 0)
(-0.000120591 -6.69834e-05 0)
(-5.77861e-05 -5.84077e-05 0)
(-8.10421e-06 -3.00198e-05 0)
(9.71987e-06 -6.64141e-05 0)
(6.7364e-05 -0.000120416 0)
(0.000137584 -0.000134841 0)
(0.000210418 -0.000138297 0)
(0.000283383 -0.000139307 0)
(0.000356226 -0.000139519 0)
(0.000428936 -0.000139286 0)
(0.000501447 -0.000138773 0)
(0.000573676 -0.000138072 0)
(0.000645547 -0.00013723 0)
(0.000716987 -0.000136269 0)
(0.000787932 -0.000135199 0)
(0.000858322 -0.000134024 0)
(0.000928099 -0.000132745 0)
(0.000997207 -0.000131362 0)
(0.00106559 -0.000129877 0)
(0.00113319 -0.000128287 0)
(0.00119996 -0.000126594 0)
(0.00126584 -0.000124797 0)
(0.00133077 -0.000122895 0)
(0.00139471 -0.000120888 0)
(0.00145759 -0.000118776 0)
(0.00151936 -0.000116558 0)
(0.00157997 -0.000114235 0)
(0.00163936 -0.000111806 0)
(0.00169747 -0.000109271 0)
(0.00175426 -0.000106631 0)
(0.00180966 -0.000103886 0)
(0.00186362 -0.000101035 0)
(0.00191609 -9.80811e-05 0)
(0.00196701 -9.50226e-05 0)
(0.00201632 -9.18607e-05 0)
(0.00206398 -8.85959e-05 0)
(0.00210993 -8.5229e-05 0)
(0.00215411 -8.17611e-05 0)
(0.00219647 -7.81932e-05 0)
(0.00223695 -7.45269e-05 0)
(0.00227551 -7.07632e-05 0)
(0.0023121 -6.69038e-05 0)
(0.00234666 -6.29499e-05 0)
(0.00237914 -5.89033e-05 0)
(0.00240949 -5.47659e-05 0)
(0.00243767 -5.05403e-05 0)
(0.00246362 -4.62292e-05 0)
(0.00248731 -4.18355e-05 0)
(0.00250869 -3.73621e-05 0)
(0.00252771 -3.28121e-05 0)
(0.00254433 -2.81886e-05 0)
(0.00255852 -2.3495e-05 0)
(0.00257023 -1.87353e-05 0)
(0.00257943 -1.39134e-05 0)
(0.00258609 -9.03335e-06 0)
(0.00259018 -4.09862e-06 0)
(0.00259166 8.88989e-07 0)
(0.00259054 5.91853e-06 0)
(0.00258676 1.09839e-05 0)
(0.00258031 1.60797e-05 0)
(0.00257117 2.12012e-05 0)
(0.00255931 2.63431e-05 0)
(0.00254473 3.14997e-05 0)
(0.00252741 3.66652e-05 0)
(0.00250736 4.18332e-05 0)
(0.00248455 4.69973e-05 0)
(0.00245901 5.21506e-05 0)
(0.00243073 5.72861e-05 0)
(0.00239971 6.23968e-05 0)
(0.00236598 6.74758e-05 0)
(0.00232954 7.25154e-05 0)
(0.00229042 7.75081e-05 0)
(0.00224864 8.2446e-05 0)
(0.00220423 8.73212e-05 0)
(0.00215723 9.21264e-05 0)
(0.00210766 9.68542e-05 0)
(0.00205557 0.000101497 0)
(0.002001 0.000106048 0)
(0.00194401 0.000110499 0)
(0.00188464 0.000114843 0)
(0.00182296 0.000119071 0)
(0.00175903 0.000123176 0)
(0.00169291 0.000127152 0)
(0.00162467 0.000130991 0)
(0.00155439 0.000134685 0)
(0.00148215 0.000138229 0)
(0.00140802 0.000141616 0)
(0.0013321 0.00014484 0)
(0.00125448 0.000147893 0)
(0.00117523 0.000150771 0)
(0.00109448 0.000153467 0)
(0.0010123 0.000155977 0)
(0.000928807 0.000158295 0)
(0.000844103 0.000160417 0)
(0.000758296 0.00016234 0)
(0.000671495 0.000164059 0)
(0.000583811 0.00016557 0)
(0.000495358 0.000166871 0)
(0.000406251 0.000167959 0)
(0.000316608 0.000168832 0)
(0.000226547 0.000169489 0)
(0.000136187 0.000169927 0)
(4.56483e-05 0.000170146 0)
(-4.49544e-05 0.000170146 0)
(-0.000135494 0.000169927 0)
(-0.000225855 0.000169489 0)
(-0.000315916 0.000168832 0)
(-0.00040556 0.000167959 0)
(-0.000494668 0.000166871 0)
(-0.000583123 0.000165571 0)
(-0.00067081 0.000164061 0)
(-0.000757615 0.000162343 0)
(-0.000843425 0.000160423 0)
(-0.000928131 0.000158302 0)
(-0.00101163 0.000155984 0)
(-0.00109381 0.000153475 0)
(-0.00117457 0.00015078 0)
(-0.00125381 0.000147903 0)
(-0.00133145 0.000144851 0)
(-0.00140737 0.000141629 0)
(-0.0014815 0.000138244 0)
(-0.00155375 0.000134701 0)
(-0.00162403 0.000131008 0)
(-0.00169228 0.00012717 0)
(-0.0017584 0.000123195 0)
(-0.00182234 0.00011909 0)
(-0.00188403 0.000114862 0)
(-0.0019434 0.000110519 0)
(-0.00200041 0.000106069 0)
(-0.00205498 0.000101519 0)
(-0.00210708 9.68769e-05 0)
(-0.00215666 9.21495e-05 0)
(-0.00220367 8.73448e-05 0)
(-0.00224809 8.24703e-05 0)
(-0.00228988 7.75335e-05 0)
(-0.00232901 7.25421e-05 0)
(-0.00236546 6.7504e-05 0)
(-0.0023992 6.24264e-05 0)
(-0.00243023 5.73168e-05 0)
(-0.00245852 5.21828e-05 0)
(-0.00248408 4.7031e-05 0)
(-0.00250689 4.18679e-05 0)
(-0.00252696 3.67006e-05 0)
(-0.00254429 3.15355e-05 0)
(-0.00255888 2.63783e-05 0)
(-0.00257075 2.12353e-05 0)
(-0.0025799 1.61127e-05 0)
(-0.00258636 1.10153e-05 0)
(-0.00259015 5.94837e-06 0)
(-0.00259129 9.17826e-07 0)
(-0.00258981 -4.0703e-06 0)
(-0.00258574 -9.00473e-06 0)
(-0.00257909 -1.38832e-05 0)
(-0.0025699 -1.87028e-05 0)
(-0.0025582 -2.34598e-05 0)
(-0.00254403 -2.81505e-05 0)
(-0.00252742 -3.2772e-05 0)
(-0.00250841 -3.73205e-05 0)
(-0.00248705 -4.17924e-05 0)
(-0.00246337 -4.6185e-05 0)
(-0.00243743 -5.04951e-05 0)
(-0.00240926 -5.472e-05 0)
(-0.00237892 -5.88573e-05 0)
(-0.00234646 -6.29045e-05 0)
(-0.00231191 -6.68591e-05 0)
(-0.00227534 -7.07195e-05 0)
(-0.00223679 -7.4483e-05 0)
(-0.00219632 -7.81482e-05 0)
(-0.00215397 -8.17137e-05 0)
(-0.00210981 -8.51795e-05 0)
(-0.00206387 -8.85449e-05 0)
(-0.00201623 -9.18081e-05 0)
(-0.00196693 -9.49691e-05 0)
(-0.00191602 -9.80278e-05 0)
(-0.00186356 -0.000100982 0)
(-0.00180962 -0.00010383 0)
(-0.00175423 -0.000106572 0)
(-0.00169746 -0.000109207 0)
(-0.00163936 -0.000111735 0)
(-0.00157998 -0.000114157 0)
(-0.00151939 -0.000116475 0)
(-0.00145763 -0.000118689 0)
(-0.00139476 -0.000120799 0)
(-0.00133084 -0.000122803 0)
(-0.00126592 -0.0001247 0)
(-0.00120006 -0.000126491 0)
(-0.0011333 -0.000128174 0)
(-0.00106571 -0.000129751 0)
(-0.00099733 -0.000131224 0)
(-0.000928225 -0.000132591 0)
(-0.000858445 -0.000133856 0)
(-0.000788043 -0.000135018 0)
(-0.000717073 -0.000136078 0)
(-0.000645589 -0.000137033 0)
(-0.000573642 -0.000137884 0)
(-0.000501287 -0.000138629 0)
(-0.000428573 -0.000139268 0)
(-0.000355557 -0.000139792 0)
(-0.000282286 -0.000140142 0)
(-0.000208812 -0.000139889 0)
(-0.000135644 -0.000136713 0)
(-6.59382e-05 -0.000120939 0)
(-9.36513e-06 -6.50458e-05 0)
(9.76106e-06 -0.000104241 0)
(6.8506e-05 -0.000187126 0)
(0.000140472 -0.000208487 0)
(0.000215375 -0.000212855 0)
(0.000290241 -0.00021371 0)
(0.000364796 -0.000213692 0)
(0.000439097 -0.000213229 0)
(0.000513135 -0.000212447 0)
(0.000586861 -0.000211415 0)
(0.000660214 -0.000210176 0)
(0.00073313 -0.000208753 0)
(0.000805548 -0.000207157 0)
(0.000877406 -0.000205395 0)
(0.000948647 -0.000203471 0)
(0.00101921 -0.000201385 0)
(0.00108904 -0.000199139 0)
(0.00115808 -0.000196733 0)
(0.00122628 -0.000194167 0)
(0.00129357 -0.000191441 0)
(0.00135991 -0.000188555 0)
(0.00142524 -0.000185507 0)
(0.00148949 -0.000182298 0)
(0.00155262 -0.000178928 0)
(0.00161457 -0.000175396 0)
(0.00167528 -0.000171702 0)
(0.00173469 -0.000167847 0)
(0.00179276 -0.00016383 0)
(0.00184941 -0.000159651 0)
(0.00190461 -0.000155311 0)
(0.00195829 -0.000150811 0)
(0.00201039 -0.000146151 0)
(0.00206086 -0.000141331 0)
(0.00210964 -0.000136353 0)
(0.00215668 -0.000131218 0)
(0.00220192 -0.000125927 0)
(0.00224531 -0.000120482 0)
(0.0022868 -0.000114885 0)
(0.00232632 -0.000109137 0)
(0.00236383 -0.000103241 0)
(0.00239927 -9.71979e-05 0)
(0.0024326 -9.10118e-05 0)
(0.00246376 -8.46853e-05 0)
(0.0024927 -7.82219e-05 0)
(0.00251937 -7.16255e-05 0)
(0.00254374 -6.49002e-05 0)
(0.00256574 -5.80502e-05 0)
(0.00258534 -5.108e-05 0)
(0.00260249 -4.39946e-05 0)
(0.00261716 -3.67993e-05 0)
(0.0026293 -2.95e-05 0)
(0.00263887 -2.21031e-05 0)
(0.00264585 -1.46151e-05 0)
(0.00265019 -7.043e-06 0)
(0.00265188 6.05762e-07 0)
(0.00265088 8.32328e-06 0)
(0.00264717 1.61036e-05 0)
(0.00264072 2.39384e-05 0)
(0.00263152 3.18186e-05 0)
(0.00261954 3.97349e-05 0)
(0.00260476 4.76781e-05 0)
(0.00258719 5.56387e-05 0)
(0.00256681 6.36069e-05 0)
(0.00254362 7.15726e-05 0)
(0.00251761 7.95253e-05 0)
(0.0024888 8.74543e-05 0)
(0.00245718 9.53487e-05 0)
(0.00242278 0.000103197 0)
(0.00238561 0.000110989 0)
(0.00234568 0.000118711 0)
(0.00230302 0.000126351 0)
(0.00225767 0.000133899 0)
(0.00220964 0.000141342 0)
(0.00215898 0.000148669 0)
(0.00210574 0.000155867 0)
(0.00204994 0.000162925 0)
(0.00199166 0.00016983 0)
(0.00193093 0.000176571 0)
(0.00186783 0.000183135 0)
(0.0018024 0.000189511 0)
(0.00173473 0.000195688 0)
(0.00166488 0.000201654 0)
(0.00159293 0.000207398 0)
(0.00151896 0.00021291 0)
(0.00144305 0.000218178 0)
(0.0013653 0.000223193 0)
(0.00128578 0.000227945 0)
(0.0012046 0.000232425 0)
(0.00112186 0.000236624 0)
(0.00103766 0.000240532 0)
(0.000952106 0.000244143 0)
(0.000865301 0.00024745 0)
(0.000777359 0.000250445 0)
(0.000688391 0.000253123 0)
(0.000598514 0.000255478 0)
(0.000507843 0.000257505 0)
(0.000416499 0.0002592 0)
(0.000324603 0.00026056 0)
(0.000232275 0.000261582 0)
(0.000139639 0.000262264 0)
(4.68187e-05 0.000262605 0)
(-4.6067e-05 0.000262605 0)
(-0.000138888 0.000262265 0)
(-0.000231525 0.000261583 0)
(-0.000323854 0.000260561 0)
(-0.000415751 0.000259202 0)
(-0.000507096 0.000257508 0)
(-0.000597768 0.000255481 0)
(-0.000687648 0.000253128 0)
(-0.000776618 0.000250452 0)
(-0.000864564 0.000247458 0)
(-0.000951372 0.000244153 0)
(-0.00103693 0.000240543 0)
(-0.00112114 0.000236635 0)
(-0.00120388 0.000232438 0)
(-0.00128506 0.00022796 0)
(-0.00136458 0.00022321 0)
(-0.00144234 0.000218197 0)
(-0.00151825 0.00021293 0)
(-0.00159223 0.00020742 0)
(-0.00166419 0.000201678 0)
(-0.00173404 0.000195712 0)
(-0.00180172 0.000189536 0)
(-0.00186715 0.000183161 0)
(-0.00193026 0.000176597 0)
(-0.00199099 0.000169858 0)
(-0.00204929 0.000162954 0)
(-0.00210508 0.000155898 0)
(-0.00215834 0.000148701 0)
(-0.00220901 0.000141375 0)
(-0.00225704 0.000133932 0)
(-0.00230241 0.000126385 0)
(-0.00234507 0.000118745 0)
(-0.00238501 0.000111024 0)
(-0.00242219 0.000103235 0)
(-0.0024566 9.5388e-05 0)
(-0.00248822 8.74951e-05 0)
(-0.00251705 7.95673e-05 0)
(-0.00254306 7.16159e-05 0)
(-0.00256626 6.3651e-05 0)
(-0.00258665 5.56831e-05 0)
(-0.00260424 4.77229e-05 0)
(-0.00261902 3.97794e-05 0)
(-0.00263101 3.18623e-05 0)
(-0.00264023 2.39815e-05 0)
(-0.00264668 1.61462e-05 0)
(-0.0026504 8.36543e-06 0)
(-0.00265141 6.47615e-07 0)
(-0.00264974 -7.00126e-06 0)
(-0.0026454 -1.45731e-05 0)
(-0.00263844 -2.20599e-05 0)
(-0.00262887 -2.94549e-05 0)
(-0.00261675 -3.67521e-05 0)
(-0.00260209 -4.39449e-05 0)
(-0.00258495 -5.10283e-05 0)
(-0.00256536 -5.79972e-05 0)
(-0.00254336 -6.48462e-05 0)
(-0.00251901 -7.15708e-05 0)
(-0.00249234 -7.81666e-05 0)
(-0.00246341 -8.46299e-05 0)
(-0.00243226 -9.09566e-05 0)
(-0.00239894 -9.71432e-05 0)
(-0.00236351 -0.000103186 0)
(-0.00232601 -0.000109083 0)
(-0.0022865 -0.000114831 0)
(-0.00224502 -0.000120428 0)
(-0.00220164 -0.000125871 0)
(-0.00215641 -0.00013116 0)
(-0.00210937 -0.000136294 0)
(-0.0020606 -0.00014127 0)
(-0.00201014 -0.000146089 0)
(-0.00195804 -0.000150749 0)
(-0.00190437 -0.000155249 0)
(-0.00184919 -0.000159587 0)
(-0.00179253 -0.000163762 0)
(-0.00173448 -0.000167775 0)
(-0.00167507 -0.000171625 0)
(-0.00161436 -0.000175314 0)
(-0.00155242 -0.000178841 0)
(-0.00148929 -0.000182209 0)
(-0.00142503 -0.000185415 0)
(-0.00135971 -0.00018846 0)
(-0.00129337 -0.000191344 0)
(-0.00122607 -0.000194065 0)
(-0.00115787 -0.000196624 0)
(-0.00108881 -0.000199023 0)
(-0.00101896 -0.000201262 0)
(-0.000948374 -0.000203343 0)
(-0.000877098 -0.000205265 0)
(-0.00080519 -0.000207031 0)
(-0.000732707 -0.000208639 0)
(-0.0006597 -0.00021009 0)
(-0.000586225 -0.000211382 0)
(-0.000512332 -0.000212514 0)
(-0.000438077 -0.000213488 0)
(-0.000363516 -0.000214294 0)
(-0.000288695 -0.000214842 0)
(-0.000213667 -0.000214514 0)
(-0.000138951 -0.000209897 0)
(-6.78192e-05 -0.000186587 0)
(-9.68882e-06 -0.000102068 0)
(9.74906e-06 -0.000141824 0)
(6.83787e-05 -0.000253845 0)
(0.000140557 -0.000282716 0)
(0.000216054 -0.000288217 0)
(0.000291583 -0.0002889 0)
(0.000366752 -0.000288568 0)
(0.000441597 -0.000287802 0)
(0.000516124 -0.0002867 0)
(0.000590303 -0.000285307 0)
(0.000664086 -0.000283653 0)
(0.000737421 -0.000281755 0)
(0.00081025 -0.000279627 0)
(0.000882516 -0.000277273 0)
(0.000954162 -0.0002747 0)
(0.00102513 -0.000271907 0)
(0.00109536 -0.000268898 0)
(0.0011648 -0.000265673 0)
(0.0012334 -0.000262231 0)
(0.00130109 -0.000258573 0)
(0.00136783 -0.000254698 0)
(0.00143355 -0.000250606 0)
(0.00149819 -0.000246297 0)
(0.00156171 -0.000241769 0)
(0.00162405 -0.000237024 0)
(0.00168515 -0.000232061 0)
(0.00174494 -0.000226879 0)
(0.00180339 -0.000221479 0)
(0.00186043 -0.000215861 0)
(0.00191599 -0.000210026 0)
(0.00197004 -0.000203973 0)
(0.0020225 -0.000197704 0)
(0.00207333 -0.00019122 0)
(0.00212247 -0.000184521 0)
(0.00216986 -0.00017761 0)
(0.00221544 -0.000170487 0)
(0.00225917 -0.000163156 0)
(0.00230098 -0.000155618 0)
(0.00234083 -0.000147875 0)
(0.00237865 -0.000139931 0)
(0.0024144 -0.000131789 0)
(0.00244802 -0.000123452 0)
(0.00247946 -0.000114924 0)
(0.00250868 -0.000106211 0)
(0.00253562 -9.73155e-05 0)
(0.00256023 -8.82445e-05 0)
(0.00258247 -7.90031e-05 0)
(0.0026023 -6.95974e-05 0)
(0.00261967 -6.00341e-05 0)
(0.00263453 -5.03204e-05 0)
(0.00264686 -4.04643e-05 0)
(0.00265661 -3.04739e-05 0)
(0.00266374 -2.03581e-05 0)
(0.00266822 -1.01264e-05 0)
(0.00267002 2.107e-07 0)
(0.00266912 1.06445e-05 0)
(0.00266548 2.1166e-05 0)
(0.00265908 3.17641e-05 0)
(0.0026499 4.24266e-05 0)
(0.00263792 5.31412e-05 0)
(0.00262313 6.38952e-05 0)
(0.00260552 7.46759e-05 0)
(0.00258509 8.54698e-05 0)
(0.00256181 9.62632e-05 0)
(0.00253571 0.000107042 0)
(0.00250677 0.000117791 0)
(0.00247501 0.000128496 0)
(0.00244044 0.000139142 0)
(0.00240307 0.000149713 0)
(0.00236292 0.000160193 0)
(0.00232002 0.000170566 0)
(0.0022744 0.000180815 0)
(0.00222609 0.000190925 0)
(0.00217511 0.000200879 0)
(0.00212153 0.000210662 0)
(0.00206538 0.000220256 0)
(0.00200671 0.000229644 0)
(0.00194558 0.000238811 0)
(0.00188204 0.00024774 0)
(0.00181616 0.000256415 0)
(0.00174802 0.000264821 0)
(0.00167767 0.000272941 0)
(0.00160521 0.000280761 0)
(0.0015307 0.000288265 0)
(0.00145423 0.00029544 0)
(0.0013759 0.000302271 0)
(0.00129579 0.000308745 0)
(0.001214 0.000314849 0)
(0.00113064 0.000320572 0)
(0.00104579 0.0003259 0)
(0.000959579 0.000330823 0)
(0.000872104 0.000335332 0)
(0.000783479 0.000339417 0)
(0.000693819 0.000343069 0)
(0.000603238 0.000346282 0)
(0.000511857 0.000349047 0)
(0.000419795 0.000351361 0)
(0.000327174 0.000353218 0)
(0.000234118 0.000354614 0)
(0.000140749 0.000355546 0)
(4.71953e-05 0.000356012 0)
(-4.64249e-05 0.000356013 0)
(-0.000139979 0.000355547 0)
(-0.000233348 0.000354616 0)
(-0.000326406 0.000353222 0)
(-0.000419028 0.000351367 0)
(-0.000511091 0.000349054 0)
(-0.000602474 0.00034629 0)
(-0.000693056 0.000343079 0)
(-0.000782719 0.000339428 0)
(-0.000871347 0.000335344 0)
(-0.000958826 0.000330837 0)
(-0.00104504 0.000325914 0)
(-0.00112989 0.000320588 0)
(-0.00121326 0.000314868 0)
(-0.00129505 0.000308766 0)
(-0.00137516 0.000302294 0)
(-0.0014535 0.000295465 0)
(-0.00152997 0.000288291 0)
(-0.00160448 0.000280788 0)
(-0.00167696 0.000272969 0)
(-0.00174731 0.00026485 0)
(-0.00181546 0.000256446 0)
(-0.00188134 0.000247772 0)
(-0.00194488 0.000238844 0)
(-0.00200602 0.000229679 0)
(-0.0020647 0.000220293 0)
(-0.00212086 0.000210701 0)
(-0.00217445 0.00020092 0)
(-0.00222543 0.000190966 0)
(-0.00227375 0.000180857 0)
(-0.00231938 0.000170609 0)
(-0.00236229 0.000160237 0)
(-0.00240244 0.000149759 0)
(-0.00243982 0.00013919 0)
(-0.0024744 0.000128546 0)
(-0.00250617 0.000117842 0)
(-0.00253512 0.000107093 0)
(-0.00256123 9.63155e-05 0)
(-0.00258452 8.55227e-05 0)
(-0.00260496 7.47289e-05 0)
(-0.00262258 6.39484e-05 0)
(-0.00263738 5.31944e-05 0)
(-0.00264936 4.24795e-05 0)
(-0.00265855 3.18167e-05 0)
(-0.00266496 2.12189e-05 0)
(-0.00266861 1.06977e-05 0)
(-0.00266953 2.64187e-07 0)
(-0.00266773 -1.00724e-05 0)
(-0.00266326 -2.03036e-05 0)
(-0.00265614 -3.04184e-05 0)
(-0.00264641 -4.04073e-05 0)
(-0.00263409 -5.02618e-05 0)
(-0.00261924 -5.99736e-05 0)
(-0.00260188 -6.95352e-05 0)
(-0.00258206 -7.89401e-05 0)
(-0.00255982 -8.8181e-05 0)
(-0.00253521 -9.7252e-05 0)
(-0.00250828 -0.000106147 0)
(-0.00247908 -0.000114862 0)
(-0.00244764 -0.00012339 0)
(-0.00241403 -0.000131727 0)
(-0.00237829 -0.00013987 0)
(-0.00234047 -0.000147814 0)
(-0.00230064 -0.000155557 0)
(-0.00225883 -0.000163094 0)
(-0.00221511 -0.000170424 0)
(-0.00216954 -0.000177546 0)
(-0.00212215 -0.000184456 0)
(-0.00207302 -0.000191153 0)
(-0.0020222 -0.000197637 0)
(-0.00196974 -0.000203905 0)
(-0.0019157 -0.000209957 0)
(-0.00186014 -0.000215791 0)
(-0.00180311 -0.000221406 0)
(-0.00174466 -0.000226803 0)
(-0.00168487 -0.000231981 0)
(-0.00162377 -0.000236941 0)
(-0.00156143 -0.000241683 0)
(-0.00149791 -0.000246208 0)
(-0.00143326 -0.000250516 0)
(-0.00136754 -0.000254607 0)
(-0.00130079 -0.000258481 0)
(-0.00123309 -0.000262137 0)
(-0.00116448 -0.000265578 0)
(-0.00109502 -0.000268803 0)
(-0.00102477 -0.000271813 0)
(-0.000953766 -0.00027461 0)
(-0.00088208 -0.000277193 0)
(-0.000809762 -0.000279565 0)
(-0.000736866 -0.000281725 0)
(-0.000663446 -0.000283673 0)
(-0.000589554 -0.000285409 0)
(-0.000515247 -0.000286932 0)
(-0.000440578 -0.000288244 0)
(-0.000365602 -0.000289332 0)
(-0.000290367 -0.000290079 0)
(-0.000214925 -0.000289671 0)
(-0.000139799 -0.000283608 0)
(-6.8312e-05 -0.000252727 0)
(-9.78995e-06 -0.000139494 0)
(9.75555e-06 -0.000179267 0)
(6.83435e-05 -0.000320408 0)
(0.000140537 -0.000357046 0)
(0.000216293 -0.00036387 0)
(0.000292191 -0.000364444 0)
(0.00036775 -0.00036379 0)
(0.000442968 -0.000362687 0)
(0.000517842 -0.000361233 0)
(0.000592343 -0.000359455 0)
(0.000666431 -0.000357368 0)
(0.000740058 -0.000354987 0)
(0.000813172 -0.000352319 0)
(0.000885718 -0.000349372 0)
(0.00095764 -0.000346147 0)
(0.00102888 -0.000342648 0)
(0.00109939 -0.000338877 0)
(0.00116911 -0.000334832 0)
(0.00123797 -0.000330516 0)
(0.00130594 -0.000325927 0)
(0.00137295 -0.000321064 0)
(0.00143894 -0.000315928 0)
(0.00150387 -0.000310519 0)
(0.00156766 -0.000304836 0)
(0.00163027 -0.000298878 0)
(0.00169164 -0.000292646 0)
(0.00175171 -0.000286139 0)
(0.00181043 -0.000279356 0)
(0.00186774 -0.000272299 0)
(0.00192358 -0.000264968 0)
(0.0019779 -0.000257363 0)
(0.00203063 -0.000249485 0)
(0.00208173 -0.000241335 0)
(0.00213113 -0.000232915 0)