/*--------------------------------*- C++ -*----------------------------------*\
| =========                 |                                                 |
| \\      /  F ield         | OpenFOAM: The Open Source CFD Toolbox           |
|  \\    /   O peration     | Version:  2412                                  |
|   \\  /    A nd           | Website:  www.openfoam.com                      |
|    \\/     M anipulation  |                                                 |
\*---------------------------------------------------------------------------*/
FoamFile
{
    version     2.0;
    format      ascii;
    arch        "LSB;label=32;scalar=64";
    class       volScalarField;
    location    "1.25";
    object      p;
}
// * * * * * * * * * * * * * * * * * * * * * * * * * * * * * * * * * * * * * //

dimensions      [1 -1 -2 0 0 0 0];

internalField   nonuniform List<scalar> 
40000
(
0
9.49713e-05
0.000159474
0.000199984
0.000216225
0.000201419
0.000154161
7.85064e-05
-2.24928e-05
-0.000149298
-0.000303566
-0.000485707
-0.000694764
-0.000929542
-0.00118933
-0.00147381
-0.00178267
-0.00211536
-0.00247116
-0.00284928
-0.00324896
-0.0036695
-0.00411018
-0.00457024
-0.00504884
-0.00554508
-0.00605806
-0.00658686
-0.00713059
-0.00768833
-0.00825916
-0.00884208
-0.00943607
-0.0100401
-0.0106531
-0.0112742
-0.0119023
-0.0125363
-0.0131754
-0.0138184
-0.0144643
-0.0151121
-0.0157607
-0.0164091
-0.0170565
-0.0177019
-0.0183443
-0.0189829
-0.0196168
-0.0202451
-0.0208669
-0.0214815
-0.022088
-0.0226858
-0.0232741
-0.0238523
-0.0244197
-0.0249757
-0.0255198
-0.0260514
-0.0265702
-0.0270756
-0.0275673
-0.0280451
-0.0285086
-0.0289575
-0.0293916
-0.0298108
-0.0302149
-0.0306039
-0.0309778
-0.0313366
-0.0316803
-0.032009
-0.0323226
-0.0326213
-0.0329053
-0.0331748
-0.03343
-0.0336711
-0.0338985
-0.0341123
-0.0343128
-0.0345003
-0.034675
-0.0348372
-0.0349872
-0.0351253
-0.0352518
-0.0353669
-0.035471
-0.0355642
-0.0356467
-0.0357188
-0.0357806
-0.0358323
-0.035874
-0.0359059
-0.0359279
-0.0359401
-0.0359426
-0.0359355
-0.0359186
-0.0358919
-0.0358554
-0.0358088
-0.0357521
-0.0356851
-0.0356076
-0.0355194
-0.0354204
-0.0353103
-0.0351888
-0.0350557
-0.0349107
-0.0347536
-0.0345839
-0.0344015
-0.034206
-0.0339972
-0.0337748
-0.0335385
-0.0332882
-0.0330235
-0.0327442
-0.0324503
-0.0321415
-0.0318177
-0.0314788
-0.0311249
-0.0307557
-0.0303714
-0.0299719
-0.0295574
-0.0291278
-0.0286834
-0.0282245
-0.0277512
-0.0272639
-0.0267628
-0.0262484
-0.0257211
-0.0251813
-0.0246294
-0.0240661
-0.0234919
-0.0229076
-0.0223137
-0.0217111
-0.0211004
-0.0204824
-0.0198578
-0.0192276
-0.0185925
-0.0179534
-0.0173114
-0.0166672
-0.016022
-0.0153766
-0.0147321
-0.0140894
-0.0134495
-0.0128134
-0.0121822
-0.0115569
-0.0109385
-0.0103281
-0.00972662
-0.00913516
-0.0085547
-0.00798621
-0.00743066
-0.00688903
-0.00636224
-0.00585123
-0.00535689
-0.00488014
-0.00442182
-0.00398276
-0.00356372
-0.0031655
-0.00278892
-0.00243455
-0.0021031
-0.00179531
-0.0015117
-0.00125288
-0.00101928
-0.000811387
-0.000629647
-0.000474443
-0.00034625
-0.000245383
-0.00017199
-0.000126237
-0.000108389
-0.000118916
-0.000158626
-0.000226968
-0.000324669
-3.92409
-3.92399
-3.92393
-3.92389
-3.92388
-3.92389
-3.92394
-3.92401
-3.92411
-3.92424
-3.92439
-3.92457
-3.92478
-3.92502
-3.92528
-3.92556
-3.92587
-3.9262
-3.92655
-3.92693
-3.92733
-3.92775
-3.92819
-3.92865
-3.92913
-3.92962
-3.93013
-3.93066
-3.9312
-3.93176
-3.93233
-3.93291
-3.9335
-3.9341
-3.93471
-3.93533
-3.93596
-3.93659
-3.93723
-3.93787
-3.93851
-3.93916
-3.9398
-3.94045
-3.94109
-3.94174
-3.94238
-3.94301
-3.94364
-3.94427
-3.94489
-3.9455
-3.9461
-3.94669
-3.94728
-3.94785
-3.94842
-3.94897
-3.94951
-3.95004
-3.95055
-3.95105
-3.95154
-3.95202
-3.95248
-3.95292
-3.95335
-3.95377
-3.95417
-3.95455
-3.95492
-3.95528
-3.95562
-3.95594
-3.95625
-3.95655
-3.95683
-3.95709
-3.95734
-3.95758
-3.95781
-3.95802
-3.95821
-3.9584
-3.95857
-3.95873
-3.95888
-3.95901
-3.95914
-3.95925
-3.95935
-3.95944
-3.95953
-3.9596
-3.95966
-3.95971
-3.95975
-3.95978
-3.9598
-3.95981
-3.95982
-3.95981
-3.95979
-3.95977
-3.95973
-3.95968
-3.95963
-3.95956
-3.95949
-3.9594
-3.9593
-3.9592
-3.95908
-3.95895
-3.9588
-3.95865
-3.95848
-3.9583
-3.95811
-3.9579
-3.95769
-3.95745
-3.95721
-3.95694
-3.95667
-3.95638
-3.95607
-3.95575
-3.95542
-3.95507
-3.9547
-3.95432
-3.95393
-3.95352
-3.95309
-3.95265
-3.9522
-3.95173
-3.95124
-3.95075
-3.95024
-3.94971
-3.94918
-3.94863
-3.94807
-3.9475
-3.94692
-3.94633
-3.94573
-3.94512
-3.9445
-3.94388
-3.94326
-3.94262
-3.94199
-3.94135
-3.94071
-3.94006
-3.93942
-3.93878
-3.93814
-3.9375
-3.93687
-3.93624
-3.93562
-3.935
-3.93439
-3.93379
-3.9332
-3.93262
-3.93206
-3.9315
-3.93096
-3.93044
-3.92993
-3.92943
-3.92896
-3.9285
-3.92806
-3.92764
-3.92725
-3.92687
-3.92652
-3.92619
-3.92588
-3.9256
-3.92534
-3.92511
-3.9249
-3.92472
-3.92456
-3.92444
-3.92434
-3.92426
-3.92422
-3.9242
-3.92421
-3.92425
-3.92431
-3.92441
-7.84816
-7.84806
-7.84799
-7.84796
-7.84795
-7.84797
-7.84801
-7.84808
-7.84818
-7.84831
-7.84846
-7.84865
-7.84885
-7.84909
-7.84934
-7.84963
-7.84994
-7.85027
-7.85062
-7.851
-7.8514
-7.85182
-7.85226
-7.85271
-7.85319
-7.85368
-7.8542
-7.85472
-7.85526
-7.85582
-7.85639
-7.85697
-7.85756
-7.85816
-7.85877
-7.85939
-7.86001
-7.86064
-7.86128
-7.86192
-7.86256
-7.8632
-7.86385
-7.86449
-7.86513
-7.86577
-7.86641
-7.86704
-7.86767
-7.8683
-7.86891
-7.86952
-7.87012
-7.87071
-7.8713
-7.87187
-7.87243
-7.87298
-7.87351
-7.87404
-7.87455
-7.87505
-7.87553
-7.876
-7.87646
-7.8769
-7.87733
-7.87774
-7.87814
-7.87852
-7.87889
-7.87924
-7.87957
-7.87989
-7.8802
-7.88049
-7.88077
-7.88103
-7.88128
-7.88152
-7.88174
-7.88194
-7.88214
-7.88232
-7.88249
-7.88265
-7.88279
-7.88292
-7.88305
-7.88316
-7.88326
-7.88335
-7.88343
-7.8835
-7.88356
-7.88361
-7.88365
-7.88368
-7.8837
-7.88371
-7.88371
-7.88371
-7.88369
-7.88366
-7.88363
-7.88358
-7.88353
-7.88347
-7.88339
-7.88331
-7.88321
-7.8831
-7.88299
-7.88286
-7.88272
-7.88257
-7.8824
-7.88223
-7.88204
-7.88183
-7.88162
-7.88139
-7.88115
-7.88089
-7.88062
-7.88033
-7.88003
-7.87971
-7.87938
-7.87903
-7.87867
-7.87829
-7.8779
-7.8775
-7.87707
-7.87664
-7.87618
-7.87572
-7.87524
-7.87474
-7.87424
-7.87372
-7.87318
-7.87264
-7.87208
-7.87151
-7.87094
-7.87035
-7.86975
-7.86915
-7.86853
-7.86791
-7.86729
-7.86666
-7.86603
-7.86539
-7.86475
-7.86411
-7.86347
-7.86283
-7.86219
-7.86155
-7.86092
-7.86029
-7.85967
-7.85905
-7.85845
-7.85785
-7.85726
-7.85668
-7.85612
-7.85556
-7.85502
-7.8545
-7.85399
-7.8535
-7.85302
-7.85257
-7.85213
-7.85171
-7.85132
-7.85094
-7.85059
-7.85026
-7.84995
-7.84967
-7.84941
-7.84918
-7.84897
-7.84879
-7.84863
-7.84851
-7.84841
-7.84833
-7.84829
-7.84827
-7.84828
-7.84832
-7.84838
-7.84848
-11.7722
-11.7721
-11.772
-11.772
-11.772
-11.772
-11.7721
-11.7721
-11.7722
-11.7724
-11.7725
-11.7727
-11.7729
-11.7731
-11.7734
-11.7737
-11.774
-11.7743
-11.7747
-11.775
-11.7754
-11.7759
-11.7763
-11.7768
-11.7772
-11.7777
-11.7782
-11.7788
-11.7793
-11.7799
-11.7804
-11.781
-11.7816
-11.7822
-11.7828
-11.7834
-11.7841
-11.7847
-11.7853
-11.786
-11.7866
-11.7872
-11.7879
-11.7885
-11.7892
-11.7898
-11.7905
-11.7911
-11.7917
-11.7923
-11.7929
-11.7936
-11.7942
-11.7947
-11.7953
-11.7959
-11.7965
-11.797
-11.7975
-11.7981
-11.7986
-11.7991
-11.7995
-11.8
-11.8005
-11.8009
-11.8013
-11.8017
-11.8021
-11.8025
-11.8029
-11.8032
-11.8036
-11.8039
-11.8042
-11.8045
-11.8047
-11.805
-11.8052
-11.8055
-11.8057
-11.8059
-11.8061
-11.8063
-11.8064
-11.8066
-11.8067
-11.8069
-11.807
-11.8071
-11.8072
-11.8073
-11.8074
-11.8074
-11.8075
-11.8075
-11.8076
-11.8076
-11.8076
-11.8076
-11.8076
-11.8076
-11.8076
-11.8076
-11.8076
-11.8075
-11.8075
-11.8074
-11.8073
-11.8072
-11.8071
-11.807
-11.8069
-11.8068
-11.8067
-11.8065
-11.8063
-11.8062
-11.806
-11.8058
-11.8056
-11.8053
-11.8051
-11.8049
-11.8046
-11.8043
-11.804
-11.8037
-11.8034
-11.803
-11.8027
-11.8023
-11.8019
-11.8015
-11.8011
-11.8006
-11.8002
-11.7997
-11.7992
-11.7988
-11.7983
-11.7977
-11.7972
-11.7967
-11.7961
-11.7955
-11.795
-11.7944
-11.7938
-11.7932
-11.7926
-11.792
-11.7913
-11.7907
-11.7901
-11.7894
-11.7888
-11.7882
-11.7875
-11.7869
-11.7862
-11.7856
-11.785
-11.7843
-11.7837
-11.7831
-11.7825
-11.7819
-11.7813
-11.7807
-11.7802
-11.7796
-11.7791
-11.7786
-11.778
-11.7775
-11.7771
-11.7766
-11.7762
-11.7758
-11.7754
-11.775
-11.7746
-11.7743
-11.774
-11.7737
-11.7735
-11.7732
-11.773
-11.7728
-11.7727
-11.7726
-11.7725
-11.7724
-11.7723
-11.7723
-11.7723
-11.7724
-11.7724
-11.7725
-15.6962
-15.6961
-15.6961
-15.696
-15.696
-15.696
-15.6961
-15.6962
-15.6963
-15.6964
-15.6965
-15.6967
-15.6969
-15.6972
-15.6974
-15.6977
-15.698
-15.6984
-15.6987
-15.6991
-15.6995
-15.6999
-15.7003
-15.7008
-15.7013
-15.7018
-15.7023
-15.7028
-15.7034
-15.7039
-15.7045
-15.7051
-15.7057
-15.7063
-15.7069
-15.7075
-15.7081
-15.7087
-15.7094
-15.71
-15.7107
-15.7113
-15.7119
-15.7126
-15.7132
-15.7139
-15.7145
-15.7151
-15.7158
-15.7164
-15.717
-15.7176
-15.7182
-15.7188
-15.7194
-15.7199
-15.7205
-15.721
-15.7216
-15.7221
-15.7226
-15.7231
-15.7236
-15.724
-15.7245
-15.7249
-15.7253
-15.7257
-15.7261
-15.7265
-15.7269
-15.7272
-15.7276
-15.7279
-15.7282
-15.7285
-15.7287
-15.729
-15.7292
-15.7295
-15.7297
-15.7299
-15.7301
-15.7302
-15.7304
-15.7306
-15.7307
-15.7308
-15.7309
-15.731
-15.7311
-15.7312
-15.7313
-15.7314
-15.7314
-15.7315
-15.7315
-15.7315
-15.7316
-15.7316
-15.7316
-15.7316
-15.7316
-15.7315
-15.7315
-15.7315
-15.7314
-15.7313
-15.7313
-15.7312
-15.7311
-15.731
-15.7309
-15.7308
-15.7306
-15.7305
-15.7303
-15.7301
-15.73
-15.7298
-15.7296
-15.7293
-15.7291
-15.7288
-15.7286
-15.7283
-15.728
-15.7277
-15.7274
-15.727
-15.7267
-15.7263
-15.7259
-15.7255
-15.7251
-15.7247
-15.7242
-15.7238
-15.7233
-15.7228
-15.7223
-15.7218
-15.7212
-15.7207
-15.7201
-15.7196
-15.719
-15.7184
-15.7178
-15.7172
-15.7166
-15.716
-15.7154
-15.7147
-15.7141
-15.7135
-15.7128
-15.7122
-15.7116
-15.7109
-15.7103
-15.7096
-15.709
-15.7084
-15.7078
-15.7072
-15.7065
-15.7059
-15.7054
-15.7048
-15.7042
-15.7037
-15.7031
-15.7026
-15.7021
-15.7016
-15.7011
-15.7007
-15.7002
-15.6998
-15.6994
-15.699
-15.6987
-15.6983
-15.698
-15.6978
-15.6975
-15.6973
-15.6971
-15.6969
-15.6967
-15.6966
-15.6965
-15.6964
-15.6964
-15.6964
-15.6964
-15.6964
-15.6965
-15.6966
-19.6202
-19.6202
-19.6201
-19.62
-19.62
-19.6201
-19.6201
-19.6202
-19.6203
-19.6204
-19.6206
-19.6207
-19.6209
-19.6212
-19.6214
-19.6217
-19.622
-19.6224
-19.6227
-19.6231
-19.6235
-19.6239
-19.6244
-19.6248
-19.6253
-19.6258
-19.6263
-19.6268
-19.6274
-19.6279
-19.6285
-19.6291
-19.6297
-19.6303
-19.6309
-19.6315
-19.6322
-19.6328
-19.6334
-19.6341
-19.6347
-19.6353
-19.636
-19.6366
-19.6373
-19.6379
-19.6385
-19.6392
-19.6398
-19.6404
-19.641
-19.6416
-19.6422
-19.6428
-19.6434
-19.644
-19.6445
-19.6451
-19.6456
-19.6461
-19.6466
-19.6471
-19.6476
-19.6481
-19.6485
-19.649
-19.6494
-19.6498
-19.6502
-19.6505
-19.6509
-19.6512
-19.6516
-19.6519
-19.6522
-19.6525
-19.6527
-19.653
-19.6532
-19.6535
-19.6537
-19.6539
-19.6541
-19.6542
-19.6544
-19.6545
-19.6547
-19.6548
-19.6549
-19.655
-19.6551
-19.6552
-19.6553
-19.6553
-19.6554
-19.6555
-19.6555
-19.6555
-19.6555
-19.6555
-19.6556
-19.6555
-19.6555
-19.6555
-19.6555
-19.6554
-19.6554
-19.6553
-19.6552
-19.6552
-19.6551
-19.655
-19.6549
-19.6547
-19.6546
-19.6545
-19.6543
-19.6541
-19.654
-19.6538
-19.6536
-19.6533
-19.6531
-19.6529
-19.6526
-19.6523
-19.652
-19.6517
-19.6514
-19.651
-19.6507
-19.6503
-19.6499
-19.6495
-19.6491
-19.6487
-19.6483
-19.6478
-19.6473
-19.6468
-19.6463
-19.6458
-19.6453
-19.6447
-19.6442
-19.6436
-19.6431
-19.6425
-19.6419
-19.6413
-19.6407
-19.64
-19.6394
-19.6388
-19.6382
-19.6375
-19.6369
-19.6362
-19.6356
-19.635
-19.6343
-19.6337
-19.6331
-19.6324
-19.6318
-19.6312
-19.6306
-19.63
-19.6294
-19.6288
-19.6282
-19.6277
-19.6271
-19.6266
-19.6261
-19.6256
-19.6251
-19.6247
-19.6242
-19.6238
-19.6234
-19.623
-19.6227
-19.6224
-19.6221
-19.6218
-19.6215
-19.6213
-19.6211
-19.6209
-19.6207
-19.6206
-19.6205
-19.6204
-19.6204
-19.6204
-19.6204
-19.6204
-19.6205
-19.6206
-23.5442
-23.5441
-23.5441
-23.544
-23.544
-23.544
-23.5441
-23.5442
-23.5443
-23.5444
-23.5446
-23.5447
-23.5449
-23.5452
-23.5454
-23.5457
-23.546
-23.5464
-23.5467
-23.5471
-23.5475
-23.5479
-23.5484
-23.5488
-23.5493
-23.5498
-23.5503
-23.5509
-23.5514
-23.552
-23.5525
-23.5531
-23.5537
-23.5543
-23.5549
-23.5556
-23.5562
-23.5568
-23.5575
-23.5581
-23.5587
-23.5594
-23.56
-23.5607
-23.5613
-23.562
-23.5626
-23.5632
-23.5639
-23.5645
-23.5651
-23.5657
-23.5663
-23.5669
-23.5675
-23.568
-23.5686
-23.5691
-23.5697
-23.5702
-23.5707
-23.5712
-23.5717
-23.5721
-23.5726
-23.573
-23.5734
-23.5738
-23.5742
-23.5746
-23.5749
-23.5753
-23.5756
-23.5759
-23.5762
-23.5765
-23.5768
-23.577
-23.5773
-23.5775
-23.5777
-23.5779
-23.5781
-23.5782
-23.5784
-23.5785
-23.5787
-23.5788
-23.5789
-23.579
-23.5791
-23.5792
-23.5793
-23.5793
-23.5794
-23.5794
-23.5795
-23.5795
-23.5795
-23.5795
-23.5795
-23.5795
-23.5795
-23.5795
-23.5795
-23.5794
-23.5794
-23.5793
-23.5792
-23.5792
-23.5791
-23.579
-23.5789
-23.5788
-23.5786
-23.5785
-23.5783
-23.5782
-23.578
-23.5778
-23.5776
-23.5774
-23.5771
-23.5769
-23.5766
-23.5763
-23.5761
-23.5757
-23.5754
-23.5751
-23.5747
-23.5744
-23.574
-23.5736
-23.5732
-23.5727
-23.5723
-23.5718
-23.5714
-23.5709
-23.5704
-23.5699
-23.5693
-23.5688
-23.5683
-23.5677
-23.5671
-23.5665
-23.5659
-23.5653
-23.5647
-23.5641
-23.5635
-23.5629
-23.5622
-23.5616
-23.5609
-23.5603
-23.5597
-23.559
-23.5584
-23.5577
-23.5571
-23.5565
-23.5558
-23.5552
-23.5546
-23.554
-23.5534
-23.5528
-23.5523
-23.5517
-23.5512
-23.5506
-23.5501
-23.5496
-23.5492
-23.5487
-23.5483
-23.5478
-23.5474
-23.5471
-23.5467
-23.5464
-23.5461
-23.5458
-23.5455
-23.5453
-23.5451
-23.5449
-23.5447
-23.5446
-23.5445
-23.5444
-23.5444
-23.5444
-23.5444
-23.5444
-23.5445
-23.5446
-27.4682
-27.4681
-27.4681
-27.468
-27.468
-27.468
-27.4681
-27.4681
-27.4682
-27.4684
-27.4685
-27.4687
-27.4689
-27.4692
-27.4694
-27.4697
-27.47
-27.4704
-27.4707
-27.4711
-27.4715
-27.4719
-27.4724
-27.4728
-27.4733
-27.4738
-27.4743
-27.4749
-27.4754
-27.476
-27.4766
-27.4772
-27.4778
-27.4784
-27.479
-27.4796
-27.4802
-27.4809
-27.4815
-27.4821
-27.4828
-27.4834
-27.4841
-27.4847
-27.4854
-27.486
-27.4867
-27.4873
-27.4879
-27.4886
-27.4892
-27.4898
-27.4904
-27.491
-27.4915
-27.4921
-27.4927
-27.4932
-27.4937
-27.4943
-27.4948
-27.4953
-27.4957
-27.4962
-27.4966
-27.4971
-27.4975
-27.4979
-27.4983
-27.4986
-27.499
-27.4993
-27.4997
-27.5
-27.5003
-27.5005
-27.5008
-27.5011
-27.5013
-27.5015
-27.5017
-27.5019
-27.5021
-27.5023
-27.5024
-27.5026
-27.5027
-27.5028
-27.503
-27.5031
-27.5031
-27.5032
-27.5033
-27.5034
-27.5034
-27.5035
-27.5035
-27.5035
-27.5035
-27.5036
-27.5036
-27.5036
-27.5035
-27.5035
-27.5035
-27.5034
-27.5034
-27.5033
-27.5033
-27.5032
-27.5031
-27.503
-27.5029
-27.5028
-27.5027
-27.5025
-27.5024
-27.5022
-27.502
-27.5018
-27.5016
-27.5014
-27.5012
-27.5009
-27.5007
-27.5004
-27.5001
-27.4998
-27.4995
-27.4992
-27.4988
-27.4984
-27.4981
-27.4977
-27.4972
-27.4968
-27.4964
-27.4959
-27.4954
-27.495
-27.4945
-27.4939
-27.4934
-27.4929
-27.4923
-27.4918
-27.4912
-27.4906
-27.49
-27.4894
-27.4888
-27.4882
-27.4875
-27.4869
-27.4863
-27.4856
-27.485
-27.4844
-27.4837
-27.4831
-27.4824
-27.4818
-27.4811
-27.4805
-27.4799
-27.4793
-27.4786
-27.478
-27.4774
-27.4769
-27.4763
-27.4757
-27.4752
-27.4747
-27.4741
-27.4736
-27.4732
-27.4727
-27.4723
-27.4718
-27.4714
-27.471
-27.4707
-27.4704
-27.47
-27.4698
-27.4695
-27.4693
-27.469
-27.4689
-27.4687
-27.4686
-27.4685
-27.4684
-27.4684
-27.4683
-27.4683
-27.4684
-27.4685
-27.4686
-31.3922
-31.3921
-31.392
-31.392
-31.392
-31.392
-31.392
-31.3921
-31.3922
-31.3923
-31.3925
-31.3927
-31.3929
-31.3931
-31.3934
-31.3937
-31.394
-31.3943
-31.3947
-31.3951
-31.3955
-31.3959
-31.3964
-31.3968
-31.3973
-31.3978
-31.3984
-31.3989
-31.3994
-31.4
-31.4006
-31.4012
-31.4018
-31.4024
-31.403
-31.4036
-31.4043
-31.4049
-31.4055
-31.4062
-31.4068
-31.4075
-31.4081
-31.4088
-31.4094
-31.4101
-31.4107
-31.4114
-31.412
-31.4126
-31.4132
-31.4139
-31.4145
-31.415
-31.4156
-31.4162
-31.4168
-31.4173
-31.4178
-31.4183
-31.4189
-31.4193
-31.4198
-31.4203
-31.4207
-31.4212
-31.4216
-31.422
-31.4224
-31.4227
-31.4231
-31.4234
-31.4237
-31.4241
-31.4243
-31.4246
-31.4249
-31.4251
-31.4254
-31.4256
-31.4258
-31.426
-31.4262
-31.4263
-31.4265
-31.4266
-31.4268
-31.4269
-31.427
-31.4271
-31.4272
-31.4273
-31.4273
-31.4274
-31.4275
-31.4275
-31.4275
-31.4276
-31.4276
-31.4276
-31.4276
-31.4276
-31.4276
-31.4276
-31.4275
-31.4275
-31.4274
-31.4274
-31.4273
-31.4272
-31.4272
-31.4271
-31.427
-31.4268
-31.4267
-31.4266
-31.4264
-31.4263
-31.4261
-31.4259
-31.4257
-31.4255
-31.4252
-31.425
-31.4247
-31.4245
-31.4242
-31.4239
-31.4236
-31.4232
-31.4229
-31.4225
-31.4221
-31.4217
-31.4213
-31.4209
-31.4205
-31.42
-31.4195
-31.419
-31.4185
-31.418
-31.4175
-31.417
-31.4164
-31.4158
-31.4153
-31.4147
-31.4141
-31.4135
-31.4129
-31.4122
-31.4116
-31.411
-31.4103
-31.4097
-31.4091
-31.4084
-31.4078
-31.4071
-31.4065
-31.4058
-31.4052
-31.4045
-31.4039
-31.4033
-31.4027
-31.4021
-31.4015
-31.4009
-31.4003
-31.3997
-31.3992
-31.3987
-31.3981
-31.3976
-31.3972
-31.3967
-31.3962
-31.3958
-31.3954
-31.395
-31.3947
-31.3943
-31.394
-31.3937
-31.3935
-31.3932
-31.393
-31.3928
-31.3927
-31.3925
-31.3924
-31.3924
-31.3923
-31.3923
-31.3923
-31.3923
-31.3924
-31.3925
-35.3161
-35.316
-35.3159
-35.3159
-35.3159
-35.3159
-35.316
-35.316
-35.3161
-35.3163
-35.3164
-35.3166
-35.3168
-35.3171
-35.3173
-35.3176
-35.318
-35.3183
-35.3187
-35.3191
-35.3195
-35.3199
-35.3203
-35.3208
-35.3213
-35.3218
-35.3223
-35.3229
-35.3234
-35.324
-35.3246
-35.3252
-35.3258
-35.3264
-35.327
-35.3277
-35.3283
-35.3289
-35.3296
-35.3302
-35.3309
-35.3316
-35.3322
-35.3329
-35.3335
-35.3342
-35.3348
-35.3354
-35.3361
-35.3367
-35.3373
-35.3379
-35.3385
-35.3391
-35.3397
-35.3403
-35.3409
-35.3414
-35.3419
-35.3425
-35.343
-35.3435
-35.3439
-35.3444
-35.3448
-35.3453
-35.3457
-35.3461
-35.3465
-35.3468
-35.3472
-35.3475
-35.3478
-35.3482
-35.3484
-35.3487
-35.349
-35.3492
-35.3495
-35.3497
-35.3499
-35.3501
-35.3503
-35.3504
-35.3506
-35.3507
-35.3508
-35.351
-35.3511
-35.3512
-35.3513
-35.3513
-35.3514
-35.3515
-35.3515
-35.3516
-35.3516
-35.3516
-35.3517
-35.3517
-35.3517
-35.3517
-35.3516
-35.3516
-35.3516
-35.3516
-35.3515
-35.3515
-35.3514
-35.3513
-35.3512
-35.3511
-35.351
-35.3509
-35.3508
-35.3507
-35.3505
-35.3503
-35.3502
-35.35
-35.3498
-35.3496
-35.3493
-35.3491
-35.3488
-35.3486
-35.3483
-35.348
-35.3477
-35.3473
-35.347
-35.3466
-35.3462
-35.3459
-35.3454
-35.345
-35.3446
-35.3441
-35.3436
-35.3432
-35.3427
-35.3421
-35.3416
-35.3411
-35.3405
-35.3399
-35.3394
-35.3388
-35.3382
-35.3376
-35.3369
-35.3363
-35.3357
-35.3351
-35.3344
-35.3338
-35.3331
-35.3325
-35.3318
-35.3312
-35.3305
-35.3299
-35.3292
-35.3286
-35.3279
-35.3273
-35.3267
-35.3261
-35.3255
-35.3249
-35.3243
-35.3237
-35.3232
-35.3226
-35.3221
-35.3216
-35.3211
-35.3207
-35.3202
-35.3198
-35.3194
-35.319
-35.3186
-35.3183
-35.318
-35.3177
-35.3174
-35.3172
-35.317
-35.3168
-35.3166
-35.3165
-35.3164
-35.3163
-35.3162
-35.3162
-35.3162
-35.3163
-35.3164
-35.3165
-39.24
-39.2399
-39.2399
-39.2398
-39.2398
-39.2398
-39.2399
-39.24
-39.2401
-39.2402
-39.2404
-39.2406
-39.2408
-39.241
-39.2413
-39.2416
-39.2419
-39.2422
-39.2426
-39.243
-39.2434
-39.2439
-39.2443
-39.2448
-39.2453
-39.2458
-39.2463
-39.2469
-39.2474
-39.248
-39.2486
-39.2492
-39.2498
-39.2504
-39.2511
-39.2517
-39.2523
-39.253
-39.2536
-39.2543
-39.2549
-39.2556
-39.2563
-39.2569
-39.2576
-39.2582
-39.2589
-39.2595
-39.2602
-39.2608
-39.2614
-39.262
-39.2626
-39.2632
-39.2638
-39.2644
-39.265
-39.2655
-39.266
-39.2666
-39.2671
-39.2676
-39.268
-39.2685
-39.269
-39.2694
-39.2698
-39.2702
-39.2706
-39.271
-39.2713
-39.2716
-39.272
-39.2723
-39.2726
-39.2728
-39.2731
-39.2733
-39.2736
-39.2738
-39.274
-39.2742
-39.2744
-39.2745
-39.2747
-39.2748
-39.2749
-39.2751
-39.2752
-39.2753
-39.2754
-39.2754
-39.2755
-39.2756
-39.2756
-39.2757
-39.2757
-39.2757
-39.2757
-39.2758
-39.2758
-39.2758
-39.2757
-39.2757
-39.2757
-39.2756
-39.2756
-39.2755
-39.2755
-39.2754
-39.2753
-39.2752
-39.2751
-39.275
-39.2749
-39.2748
-39.2746
-39.2745
-39.2743
-39.2741
-39.2739
-39.2737
-39.2735
-39.2732
-39.273
-39.2727
-39.2724
-39.2721
-39.2718
-39.2715
-39.2711
-39.2707
-39.2704
-39.27
-39.2696
-39.2691
-39.2687
-39.2682
-39.2678
-39.2673
-39.2668
-39.2663
-39.2657
-39.2652
-39.2646
-39.264
-39.2635
-39.2629
-39.2623
-39.2617
-39.261
-39.2604
-39.2598
-39.2591
-39.2585
-39.2578
-39.2572
-39.2565
-39.2559
-39.2552
-39.2546
-39.2539
-39.2533
-39.2526
-39.252
-39.2513
-39.2507
-39.2501
-39.2495
-39.2489
-39.2483
-39.2477
-39.2472
-39.2466
-39.2461
-39.2456
-39.2451
-39.2446
-39.2442
-39.2437
-39.2433
-39.2429
-39.2426
-39.2422
-39.2419
-39.2416
-39.2413
-39.2411
-39.2409
-39.2407
-39.2405
-39.2404
-39.2403
-39.2402
-39.2402
-39.2402
-39.2402
-39.2402
-39.2403
-39.2404
-43.1639
-43.1638
-43.1638
-43.1637
-43.1637
-43.1637
-43.1638
-43.1639
-43.164
-43.1641
-43.1643
-43.1645
-43.1647
-43.1649
-43.1652
-43.1655
-43.1658
-43.1662
-43.1665
-43.1669
-43.1674
-43.1678
-43.1683
-43.1687
-43.1692
-43.1698
-43.1703
-43.1708
-43.1714
-43.172
-43.1726
-43.1732
-43.1738
-43.1744
-43.1751
-43.1757
-43.1764
-43.177
-43.1777
-43.1783
-43.179
-43.1797
-43.1803
-43.181
-43.1817
-43.1823
-43.183
-43.1836
-43.1843
-43.1849
-43.1855
-43.1861
-43.1868
-43.1874
-43.1879
-43.1885
-43.1891
-43.1896
-43.1902
-43.1907
-43.1912
-43.1917
-43.1922
-43.1927
-43.1931
-43.1935
-43.194
-43.1944
-43.1947
-43.1951
-43.1955
-43.1958
-43.1961
-43.1964
-43.1967
-43.197
-43.1972
-43.1975
-43.1977
-43.1979
-43.1981
-43.1983
-43.1985
-43.1987
-43.1988
-43.1989
-43.1991
-43.1992
-43.1993
-43.1994
-43.1995
-43.1996
-43.1996
-43.1997
-43.1997
-43.1998
-43.1998
-43.1998
-43.1999
-43.1999
-43.1999
-43.1999
-43.1999
-43.1998
-43.1998
-43.1998
-43.1997
-43.1997
-43.1996
-43.1995
-43.1994
-43.1994
-43.1993
-43.1991
-43.199
-43.1989
-43.1987
-43.1986
-43.1984
-43.1982
-43.198
-43.1978
-43.1976
-43.1974
-43.1971
-43.1968
-43.1966
-43.1963
-43.1959
-43.1956
-43.1953
-43.1949
-43.1945
-43.1941
-43.1937
-43.1933
-43.1928
-43.1924
-43.1919
-43.1914
-43.1909
-43.1904
-43.1898
-43.1893
-43.1887
-43.1882
-43.1876
-43.187
-43.1864
-43.1858
-43.1851
-43.1845
-43.1839
-43.1832
-43.1826
-43.1819
-43.1813
-43.1806
-43.1799
-43.1793
-43.1786
-43.178
-43.1773
-43.1766
-43.176
-43.1754
-43.1747
-43.1741
-43.1735
-43.1729
-43.1723
-43.1717
-43.1712
-43.1706
-43.1701
-43.1696
-43.1691
-43.1686
-43.1681
-43.1677
-43.1673
-43.1669
-43.1665
-43.1662
-43.1658
-43.1655
-43.1653
-43.165
-43.1648
-43.1646
-43.1644
-43.1643
-43.1642
-43.1641
-43.1641
-43.1641
-43.1641
-43.1641
-43.1642
-43.1643
-47.0878
-47.0877
-47.0877
-47.0876
-47.0876
-47.0876
-47.0877
-47.0878
-47.0879
-47.088
-47.0882
-47.0884
-47.0886
-47.0888
-47.0891
-47.0894
-47.0897
-47.0901
-47.0905
-47.0909
-47.0913
-47.0917
-47.0922
-47.0927
-47.0932
-47.0937
-47.0943
-47.0948
-47.0954
-47.096
-47.0966
-47.0972
-47.0978
-47.0984
-47.0991
-47.0997
-47.1004
-47.1011
-47.1017
-47.1024
-47.1031
-47.1037
-47.1044
-47.1051
-47.1057
-47.1064
-47.1071
-47.1077
-47.1084
-47.109
-47.1096
-47.1103
-47.1109
-47.1115
-47.1121
-47.1127
-47.1132
-47.1138
-47.1143
-47.1149
-47.1154
-47.1159
-47.1163
-47.1168
-47.1173
-47.1177
-47.1181
-47.1185
-47.1189
-47.1193
-47.1196
-47.12
-47.1203
-47.1206
-47.1209
-47.1211
-47.1214
-47.1216
-47.1219
-47.1221
-47.1223
-47.1225
-47.1226
-47.1228
-47.123
-47.1231
-47.1232
-47.1233
-47.1234
-47.1235
-47.1236
-47.1237
-47.1238
-47.1238
-47.1239
-47.1239
-47.124
-47.124
-47.124
-47.124
-47.124
-47.124
-47.124
-47.124
-47.1239
-47.1239
-47.1239
-47.1238
-47.1237
-47.1237
-47.1236
-47.1235
-47.1234
-47.1233
-47.1232
-47.123
-47.1229
-47.1227
-47.1226
-47.1224
-47.1222
-47.122
-47.1218
-47.1215
-47.1213
-47.121
-47.1207
-47.1204
-47.1201
-47.1198
-47.1194
-47.1191
-47.1187
-47.1183
-47.1179
-47.1174
-47.117
-47.1165
-47.1161
-47.1156
-47.1151
-47.1145
-47.114
-47.1134
-47.1129
-47.1123
-47.1117
-47.1111
-47.1105
-47.1099
-47.1093
-47.1086
-47.108
-47.1073
-47.1067
-47.106
-47.1053
-47.1047
-47.104
-47.1033
-47.1027
-47.102
-47.1013
-47.1007
-47.1
-47.0994
-47.0987
-47.0981
-47.0975
-47.0969
-47.0963
-47.0957
-47.0951
-47.0946
-47.094
-47.0935
-47.093
-47.0925
-47.0921
-47.0916
-47.0912
-47.0908
-47.0904
-47.0901
-47.0897
-47.0894
-47.0892
-47.0889
-47.0887
-47.0885
-47.0883
-47.0882
-47.0881
-47.088
-47.088
-47.0879
-47.0879
-47.088
-47.0881
-47.0882
-51.0117
-51.0116
-51.0115
-51.0115
-51.0115
-51.0115
-51.0115
-51.0116
-51.0117
-51.0119
-51.012
-51.0122
-51.0125
-51.0127
-51.013
-51.0133
-51.0136
-51.014
-51.0144
-51.0148
-51.0152
-51.0157
-51.0161
-51.0166
-51.0171
-51.0177
-51.0182
-51.0188
-51.0194
-51.02
-51.0206
-51.0212
-51.0218
-51.0224
-51.0231
-51.0238
-51.0244
-51.0251
-51.0258
-51.0264
-51.0271
-51.0278
-51.0285
-51.0292
-51.0298
-51.0305
-51.0312
-51.0318
-51.0325
-51.0331
-51.0338
-51.0344
-51.035
-51.0356
-51.0362
-51.0368
-51.0374
-51.0379
-51.0385
-51.039
-51.0395
-51.04
-51.0405
-51.041
-51.0414
-51.0419
-51.0423
-51.0427
-51.0431
-51.0435
-51.0438
-51.0441
-51.0445
-51.0448
-51.0451
-51.0453
-51.0456
-51.0458
-51.0461
-51.0463
-51.0465
-51.0467
-51.0468
-51.047
-51.0471
-51.0473
-51.0474
-51.0475
-51.0476
-51.0477
-51.0478
-51.0479
-51.0479
-51.048
-51.048
-51.0481
-51.0481
-51.0481
-51.0482
-51.0482
-51.0482
-51.0482
-51.0482
-51.0481
-51.0481
-51.0481
-51.048
-51.048
-51.0479
-51.0478
-51.0478
-51.0477
-51.0476
-51.0475
-51.0473
-51.0472
-51.0471
-51.0469
-51.0467
-51.0466
-51.0464
-51.0462
-51.0459
-51.0457
-51.0455
-51.0452
-51.0449
-51.0446
-51.0443
-51.044
-51.0436
-51.0432
-51.0429
-51.0425
-51.0421
-51.0416
-51.0412
-51.0407
-51.0402
-51.0397
-51.0392
-51.0387
-51.0382
-51.0376
-51.037
-51.0364
-51.0359
-51.0353
-51.0346
-51.034
-51.0334
-51.0327
-51.0321
-51.0314
-51.0308
-51.0301
-51.0294
-51.0287
-51.0281
-51.0274
-51.0267
-51.026
-51.0254
-51.0247
-51.024
-51.0234
-51.0227
-51.0221
-51.0215
-51.0209
-51.0203
-51.0197
-51.0191
-51.0185
-51.018
-51.0174
-51.0169
-51.0164
-51.016
-51.0155
-51.0151
-51.0147
-51.0143
-51.014
-51.0136
-51.0133
-51.013
-51.0128
-51.0126
-51.0124
-51.0122
-51.0121
-51.012
-51.0119
-51.0118
-51.0118
-51.0118
-51.0119
-51.0119
-51.012
-54.9355
-54.9354
-54.9354
-54.9353
-54.9353
-54.9353
-54.9354
-54.9355
-54.9356
-54.9357
-54.9359
-54.9361
-54.9363
-54.9366
-54.9369
-54.9372
-54.9375
-54.9379
-54.9383
-54.9387
-54.9391
-54.9396
-54.94
-54.9405
-54.9411
-54.9416
-54.9422
-54.9427
-54.9433
-54.9439
-54.9445
-54.9452
-54.9458
-54.9465
-54.9471
-54.9478
-54.9484
-54.9491
-54.9498
-54.9505
-54.9512
-54.9519
-54.9526
-54.9532
-54.9539
-54.9546
-54.9553
-54.9559
-54.9566
-54.9573
-54.9579
-54.9585
-54.9592
-54.9598
-54.9604
-54.961
-54.9616
-54.9621
-54.9627
-54.9632
-54.9637
-54.9642
-54.9647
-54.9652
-54.9656
-54.9661
-54.9665
-54.9669
-54.9673
-54.9677
-54.968
-54.9684
-54.9687
-54.969
-54.9693
-54.9695
-54.9698
-54.97
-54.9703
-54.9705
-54.9707
-54.9709
-54.971
-54.9712
-54.9713
-54.9715
-54.9716
-54.9717
-54.9718
-54.9719
-54.972
-54.9721
-54.9721
-54.9722
-54.9722
-54.9723
-54.9723
-54.9723
-54.9723
-54.9724
-54.9724
-54.9724
-54.9723
-54.9723
-54.9723
-54.9723
-54.9722
-54.9722
-54.9721
-54.972
-54.972
-54.9719
-54.9718
-54.9717
-54.9715
-54.9714
-54.9713
-54.9711
-54.971
-54.9708
-54.9706
-54.9704
-54.9702
-54.9699
-54.9697
-54.9694
-54.9691
-54.9688
-54.9685
-54.9682
-54.9678
-54.9675
-54.9671
-54.9667
-54.9663
-54.9658
-54.9654
-54.9649
-54.9644
-54.9639
-54.9634
-54.9629
-54.9623
-54.9618
-54.9612
-54.9606
-54.96
-54.9594
-54.9588
-54.9581
-54.9575
-54.9569
-54.9562
-54.9555
-54.9549
-54.9542
-54.9535
-54.9528
-54.9521
-54.9515
-54.9508
-54.9501
-54.9494
-54.9487
-54.9481
-54.9474
-54.9467
-54.9461
-54.9455
-54.9448
-54.9442
-54.9436
-54.943
-54.9425
-54.9419
-54.9414
-54.9409
-54.9404
-54.9399
-54.9394
-54.939
-54.9386
-54.9382
-54.9378
-54.9375
-54.9372
-54.9369
-54.9367
-54.9364
-54.9362
-54.9361
-54.9359
-54.9358
-54.9357
-54.9357
-54.9356
-54.9357
-54.9357
-54.9358
-54.9359
-58.8594
-58.8593
-58.8592
-58.8591
-58.8591
-58.8592
-58.8592
-58.8593
-58.8594
-58.8596
-58.8597
-58.8599
-58.8602
-58.8604
-58.8607
-58.861
-58.8614
-58.8617
-58.8621
-58.8626
-58.863
-58.8635
-58.8639
-58.8645
-58.865
-58.8655
-58.8661
-58.8667
-58.8673
-58.8679
-58.8685
-58.8691
-58.8698
-58.8704
-58.8711
-58.8718
-58.8725
-58.8732
-58.8739
-58.8745
-58.8752
-58.8759
-58.8766
-58.8773
-58.878
-58.8787
-58.8794
-58.8801
-58.8807
-58.8814
-58.8821
-58.8827
-58.8833
-58.884
-58.8846
-58.8852
-58.8857
-58.8863
-58.8869
-58.8874
-58.8879
-58.8884
-58.8889
-58.8894
-58.8899
-58.8903
-58.8907
-58.8911
-58.8915
-58.8919
-58.8923
-58.8926
-58.8929
-58.8932
-58.8935
-58.8938
-58.894
-58.8943
-58.8945
-58.8947
-58.8949
-58.8951
-58.8953
-58.8954
-58.8956
-58.8957
-58.8958
-58.8959
-58.896
-58.8961
-58.8962
-58.8963
-58.8963
-58.8964
-58.8964
-58.8965
-58.8965
-58.8965
-58.8966
-58.8966
-58.8966
-58.8966
-58.8966
-58.8965
-58.8965
-58.8965
-58.8964
-58.8964
-58.8963
-58.8963
-58.8962
-58.8961
-58.896
-58.8959
-58.8958
-58.8956
-58.8955
-58.8954
-58.8952
-58.895
-58.8948
-58.8946
-58.8944
-58.8942
-58.8939
-58.8936
-58.8934
-58.8931
-58.8927
-58.8924
-58.8921
-58.8917
-58.8913
-58.8909
-58.8905
-58.89
-58.8896
-58.8891
-58.8886
-58.8881
-58.8876
-58.8871
-58.8865
-58.886
-58.8854
-58.8848
-58.8842
-58.8836
-58.8829
-58.8823
-58.8816
-58.881
-58.8803
-58.8796
-58.879
-58.8783
-58.8776
-58.8769
-58.8762
-58.8755
-58.8748
-58.8741
-58.8734
-58.8728
-58.8721
-58.8714
-58.8707
-58.8701
-58.8694
-58.8688
-58.8682
-58.8676
-58.867
-58.8664
-58.8658
-58.8653
-58.8648
-58.8643
-58.8638
-58.8633
-58.8629
-58.8625
-58.8621
-58.8617
-58.8614
-58.861
-58.8608
-58.8605
-58.8603
-58.8601
-58.8599
-58.8597
-58.8596
-58.8595
-58.8595
-58.8595
-58.8595
-58.8595
-58.8596
-58.8597
-62.7832
-62.7831
-62.783
-62.7829
-62.7829
-62.783
-62.783
-62.7831
-62.7832
-62.7834
-62.7835
-62.7838
-62.784
-62.7843
-62.7845
-62.7849
-62.7852
-62.7856
-62.786