/*--------------------------------*- C++ -*----------------------------------*\
| =========                 |                                                 |
| \\      /  F ield         | OpenFOAM: The Open Source CFD Toolbox           |
|  \\    /   O peration     | Version:  2412                                  |
|   \\  /    A nd           | Website:  www.openfoam.com                      |
|    \\/     M anipulation  |                                                 |
\*---------------------------------------------------------------------------*/
FoamFile
{
    version     2.0;
    format      ascii;
    arch        "LSB;label=32;scalar=64";
    class       surfaceScalarField;
    location    "1.25";
    object      phi;
}
// * * * * * * * * * * * * * * * * * * * * * * * * * * * * * * * * * * * * * //

dimensions      [0 3 -1 0 0 0 0];

oriented        oriented;

internalField   nonuniform List<scalar> 
79600
(
1.20034e-11
-1.20657e-11
3.97264e-11
-2.77229e-11
7.31459e-11
-3.34266e-11
1.08317e-10
-3.51705e-11
1.44045e-10
-3.5715e-11
1.79903e-10
-3.58481e-11
2.15686e-10
-3.57859e-11
2.51298e-10
-3.56207e-11
2.86693e-10
-3.53992e-11
3.2184e-10
-3.51453e-11
3.56711e-10
-3.48677e-11
3.91279e-10
-3.45665e-11
4.25518e-10
-3.42394e-11
4.59403e-10
-3.38854e-11
4.92907e-10
-3.35043e-11
5.26004e-10
-3.30966e-11
5.58666e-10
-3.2662e-11
5.90866e-10
-3.22002e-11
6.22576e-10
-3.17106e-11
6.53768e-10
-3.11931e-11
6.84416e-10
-3.06475e-11
7.14489e-10
-3.00741e-11
7.43962e-10
-2.94731e-11
7.72806e-10
-2.88446e-11
8.00993e-10
-2.81886e-11
8.28497e-10
-2.75051e-11
8.55291e-10
-2.67943e-11
8.81348e-10
-2.60564e-11
9.0664e-10
-2.52918e-11
9.31141e-10
-2.45009e-11
9.54825e-10
-2.36839e-11
9.77666e-10
-2.28414e-11
9.99639e-10
-2.19736e-11
1.02072e-09
-2.10806e-11
1.04088e-09
-2.01628e-11
1.0601e-09
-1.92206e-11
1.07835e-09
-1.82545e-11
1.09562e-09
-1.72652e-11
1.11187e-09
-1.62535e-11
1.12709e-09
-1.52199e-11
1.14126e-09
-1.4165e-11
1.15435e-09
-1.30893e-11
1.16634e-09
-1.19936e-11
1.17722e-09
-1.08787e-11
1.18697e-09
-9.74564e-12
1.19556e-09
-8.59541e-12
1.20299e-09
-7.42904e-12
1.20924e-09
-6.24739e-12
1.21429e-09
-5.05129e-12
1.21813e-09
-3.84157e-12
1.22075e-09
-2.61896e-12
1.22214e-09
-1.38376e-12
1.22228e-09
-1.39597e-13
1.22115e-09
1.13121e-12
1.21875e-09
2.3929e-12
1.21509e-09
3.66205e-12
1.21016e-09
4.93123e-12
1.20396e-09
6.20043e-12
1.19648e-09
7.46948e-12
1.18775e-09
8.73757e-12
1.17774e-09
1.00035e-11
1.16648e-09
1.12658e-11
1.15396e-09
1.25228e-11
1.14019e-09
1.37727e-11
1.12517e-09
1.50139e-11
1.10893e-09
1.62448e-11
1.09146e-09
1.74637e-11
1.07279e-09
1.86692e-11
1.05293e-09
1.98596e-11
1.0319e-09
2.10332e-11
1.00971e-09
2.21881e-11
9.86388e-10
2.33227e-11
9.61951e-10
2.44356e-11
9.36425e-10
2.55251e-11
9.09835e-10
2.65899e-11
8.82207e-10
2.76283e-11
8.53569e-10
2.86386e-11
8.2395e-10
2.96191e-11
7.93382e-10
3.05683e-11
7.61897e-10
3.14849e-11
7.2953e-10
3.23676e-11
6.96315e-10
3.32151e-11
6.62289e-10
3.40261e-11
6.27491e-10
3.47991e-11
5.91958e-10
3.55331e-11
5.55732e-10
3.62268e-11
5.18853e-10
3.68792e-11
4.81363e-10
3.74893e-11
4.43307e-10
3.80561e-11
4.04727e-10
3.85787e-11
3.6567e-10
3.90563e-11
3.26181e-10
3.94884e-11
2.86307e-10
3.98743e-11
2.46094e-10
4.02133e-11
2.0559e-10
4.05049e-11
1.64843e-10
4.07484e-11
1.239e-10
4.09434e-11
8.28098e-11
4.10896e-11
4.16222e-11
4.11868e-11
3.86886e-13
4.12343e-11
-4.08485e-11
4.12344e-11
-8.20362e-11
4.11869e-11
-1.23126e-10
4.10899e-11
-1.6407e-10
4.09439e-11
-2.04818e-10
4.07493e-11
-2.45324e-10
4.05064e-11
-2.85538e-10
4.02155e-11
-3.25415e-10
3.98769e-11
-3.64906e-10
3.94912e-11
-4.03966e-10
3.90592e-11
-4.42548e-10
3.85818e-11
-4.80607e-10
3.80596e-11
-5.18099e-10
3.74934e-11
-5.54981e-10
3.68839e-11
-5.91212e-10
3.62321e-11
-6.26749e-10
3.55389e-11
-6.61553e-10
3.48055e-11
-6.95586e-10
3.40328e-11
-7.28808e-10
3.32219e-11
-7.61183e-10
3.23744e-11
-7.92675e-10
3.14918e-11
-8.23251e-10
3.05755e-11
-8.52877e-10
2.96265e-11
-8.81524e-10
2.86466e-11
-9.09161e-10
2.76371e-11
-9.3576e-10
2.65994e-11
-9.61296e-10
2.55351e-11
-9.85742e-10
2.44459e-11
-1.00908e-09
2.3333e-11
-1.03127e-09
2.21983e-11
-1.05232e-09
2.10438e-11
-1.07219e-09
1.98712e-11
-1.09087e-09
1.86815e-11
-1.10835e-09
1.74761e-11
-1.1246e-09
1.62573e-11
-1.13963e-09
1.5027e-11
-1.15342e-09
1.37863e-11
-1.16595e-09
1.25368e-11
-1.17724e-09
1.12803e-11
-1.18726e-09
1.00191e-11
-1.19601e-09
8.75386e-12
-1.20349e-09
7.48558e-12
-1.20971e-09
6.21596e-12
-1.21466e-09
4.94624e-12
-1.21833e-09
3.67642e-12
-1.22074e-09
2.40645e-12
-1.22188e-09
1.14414e-12
-1.22176e-09
-1.267e-13
-1.22038e-09
-1.37006e-12
-1.21778e-09
-2.60438e-12
-1.21395e-09
-3.82596e-12
-1.20892e-09
-5.03455e-12
-1.20269e-09
-6.22973e-12
-1.19528e-09
-7.41055e-12
-1.1867e-09
-8.57619e-12
-1.17697e-09
-9.7259e-12
-1.16611e-09
-1.08585e-11
-1.15414e-09
-1.1973e-11
-1.14107e-09
-1.30688e-11
-1.12693e-09
-1.41448e-11
-1.11173e-09
-1.52002e-11
-1.09549e-09
-1.62341e-11
-1.07824e-09
-1.72457e-11
-1.06001e-09
-1.82346e-11
-1.04081e-09
-1.92001e-11
-1.02067e-09
-2.01415e-11
-9.9961e-10
-2.10586e-11
-9.77658e-10
-2.19512e-11
-9.54839e-10
-2.28186e-11
-9.31177e-10
-2.36606e-11
-9.06698e-10
-2.44774e-11
-8.81429e-10
-2.52682e-11
-8.55397e-10
-2.60321e-11
-8.28629e-10
-2.67688e-11
-8.01153e-10
-2.74773e-11
-7.72995e-10
-2.81575e-11
-7.44184e-10
-2.88107e-11
-7.14747e-10
-2.9437e-11
-6.8471e-10
-3.00363e-11
-6.54101e-10
-3.06081e-11
-6.22949e-10
-3.11525e-11
-5.9128e-10
-3.16684e-11
-5.59125e-10
-3.2155e-11
-5.26512e-10
-3.26126e-11
-4.93471e-10
-3.30414e-11
-4.60029e-10
-3.34418e-11
-4.26216e-10
-3.38136e-11
-3.92058e-10
-3.41574e-11
-3.57584e-10
-3.44742e-11
-3.22822e-10
-3.47629e-11
-2.878e-10
-3.50222e-11
-2.52548e-10
-3.5252e-11
-2.17096e-10
-3.54519e-11
-1.81476e-10
-3.56192e-11
-1.45728e-10
-3.57477e-11
-1.09929e-10
-3.57987e-11
-7.43633e-11
-3.5566e-11
-4.02548e-11
-3.41103e-11
-1.19876e-11
-2.8272e-11
-1.19918e-11
2.83265e-11
-4.03919e-11
8.37766e-11
-8.31596e-11
1.47375e-10
-9.70233e-11
2.12926e-10
-1.0074e-10
2.78961e-10
-1.01763e-10
3.4508e-10
-1.01963e-10
4.11084e-10
-1.0178e-10
4.76845e-10
-1.01377e-10
5.42274e-10
-1.00832e-10
6.07307e-10
-1.00183e-10
6.71886e-10
-9.94481e-11
7.35956e-10
-9.8635e-11
7.99466e-10
-9.77457e-11
8.62362e-10
-9.67802e-11
9.24595e-10
-9.57381e-11
9.86116e-10
-9.46189e-11
1.04688e-09
-9.34225e-11
1.10682e-09
-9.21485e-11
1.16591e-09
-9.07968e-11
1.22408e-09
-8.9367e-11
1.28129e-09
-8.78591e-11
1.33749e-09
-8.6273e-11
1.39262e-09
-8.46088e-11
1.44665e-09
-8.28665e-11
1.4995e-09
-8.10463e-11
1.55114e-09
-7.91485e-11
1.60152e-09
-7.71733e-11
1.65059e-09
-7.51213e-11
1.69829e-09
-7.29932e-11
1.74458e-09
-7.07896e-11
1.78941e-09
-6.85111e-11
1.83272e-09
-6.61582e-11
1.87448e-09
-6.37315e-11
1.91463e-09
-6.12316e-11
1.95312e-09
-5.86594e-11
1.98992e-09
-5.6016e-11
2.02497e-09
-5.33028e-11
2.05822e-09
-5.05211e-11
2.08964e-09
-4.76725e-11
2.11918e-09
-4.47581e-11
2.14679e-09
-4.17795e-11
2.17244e-09
-3.87381e-11
2.19609e-09
-3.56361e-11
2.21768e-09
-3.24757e-11
2.2372e-09
-2.92593e-11
2.25459e-09
-2.59893e-11
2.26983e-09
-2.26681e-11
2.28289e-09
-1.92982e-11
2.29372e-09
-1.5882e-11
2.3023e-09
-1.24221e-11
2.3086e-09
-8.9214e-12
2.3126e-09
-5.38224e-12
2.31426e-09
-1.80578e-12
2.31359e-09
1.8092e-12
2.31053e-09
5.44885e-12
2.30508e-09
9.10446e-12
2.29724e-09
1.27732e-11
2.28699e-09
1.6453e-11
2.27431e-09
2.01414e-11
2.25922e-09
2.38345e-11
2.24169e-09
2.75281e-11
2.22174e-09
3.12178e-11
2.19937e-09
3.48987e-11
2.17458e-09
3.85663e-11
2.14738e-09
4.22155e-11
2.11778e-09
4.58418e-11
2.0858e-09
4.94401e-11
2.05146e-09
5.30055e-11
2.01479e-09
5.65326e-11
1.97581e-09
6.00163e-11
1.93454e-09
6.34514e-11
1.89103e-09
6.68329e-11
1.84531e-09
7.01557e-11
1.79742e-09
7.34148e-11
1.7474e-09
7.66051e-11
1.69531e-09
7.97212e-11
1.64119e-09
8.27579e-11
1.5851e-09
8.57103e-11
1.5271e-09
8.85736e-11
1.46724e-09
9.13432e-11
1.40559e-09
9.40146e-11
1.34222e-09
9.65831e-11
1.27721e-09
9.90442e-11
1.21061e-09
1.01394e-10
1.14252e-09
1.03627e-10
1.07301e-09
1.05741e-10
1.00215e-09
1.07731e-10
9.30048e-10
1.09595e-10
8.56775e-10
1.11328e-10
7.82424e-10
1.12928e-10
7.07087e-10
1.14392e-10
6.30858e-10
1.15718e-10
5.53831e-10
1.16902e-10
4.76103e-10
1.17943e-10
3.9777e-10
1.18838e-10
3.18932e-10
1.19586e-10
2.39688e-10
1.20186e-10
1.6014e-10
1.20637e-10
8.03881e-11
1.20937e-10
5.34855e-13
1.21086e-10
-7.93184e-11
1.21087e-10
-1.59071e-10
1.20939e-10
-2.38619e-10
1.20639e-10
-3.17864e-10
1.20189e-10
-3.96703e-10
1.1959e-10
-4.75038e-10
1.18842e-10
-5.52769e-10
1.17947e-10
-6.298e-10
1.16907e-10
-7.06033e-10
1.15724e-10
-7.81373e-10
1.144e-10
-8.55727e-10
1.12937e-10
-9.29004e-10
1.11338e-10
-1.00111e-09
1.09606e-10
-1.07197e-09
1.07744e-10
-1.14149e-09
1.05754e-10
-1.20959e-09
1.03641e-10
-1.27619e-09
1.01408e-10
-1.34122e-09
9.9059e-11
-1.4046e-09
9.65983e-11
-1.46625e-09
9.40303e-11
-1.52612e-09
9.13598e-11
-1.58414e-09
8.85911e-11
-1.64024e-09
8.57284e-11
-1.69437e-09
8.27766e-11
-1.74647e-09
7.97411e-11
-1.7965e-09
7.66266e-11
-1.8444e-09
7.34375e-11
-1.89014e-09
7.01794e-11
-1.93366e-09
6.68577e-11
-1.97494e-09
6.34772e-11
-2.01394e-09
6.00431e-11
-2.05063e-09
5.65604e-11
-2.08498e-09
5.30342e-11
-2.11698e-09
4.94695e-11
-2.14659e-09
4.58716e-11
-2.17381e-09
4.2246e-11
-2.19862e-09
3.85976e-11
-2.22102e-09
3.4931e-11
-2.24099e-09
3.12511e-11
-2.25853e-09
2.75629e-11
-2.27365e-09
2.38705e-11
-2.28634e-09
2.01776e-11
-2.29661e-09
1.64885e-11
-2.30447e-09
1.2808e-11
-2.30994e-09
9.13859e-12
-2.31301e-09
5.48193e-12
-2.31371e-09
1.84149e-12
-2.31206e-09
-1.77344e-12
-2.30808e-09
-5.34857e-12
-2.3018e-09
-8.88626e-12
-2.29324e-09
-1.23855e-11
-2.28243e-09
-1.58434e-11
-2.2694e-09
-1.92574e-11
-2.25418e-09
-2.26259e-11
-2.23681e-09
-2.59461e-11
-2.21732e-09
-2.92151e-11
-2.19575e-09
-3.24304e-11
-2.17213e-09
-3.55901e-11
-2.14651e-09
-3.86922e-11
-2.11892e-09
-4.17338e-11
-2.08941e-09
-4.47129e-11
-2.05801e-09
-4.76279e-11
-2.02478e-09
-5.04769e-11
-1.98976e-09
-5.32579e-11
-1.95299e-09
-5.59696e-11
-1.91452e-09
-5.86111e-11
-1.87439e-09
-6.11813e-11
-1.83266e-09
-6.36795e-11
-1.78937e-09
-6.61054e-11
-1.74458e-09
-6.84582e-11
-1.69831e-09
-7.07369e-11
-1.65064e-09
-7.29407e-11
-1.60161e-09
-7.50675e-11
-1.55126e-09
-7.71163e-11
-1.49965e-09
-7.90864e-11
-1.44683e-09
-8.09779e-11
-1.39285e-09
-8.27926e-11
-1.33775e-09
-8.45306e-11
-1.2816e-09
-8.61915e-11
-1.22443e-09
-8.77752e-11
-1.1663e-09
-8.92811e-11
-1.10726e-09
-9.07074e-11
-1.04736e-09
-9.20534e-11
-9.86658e-10
-9.33201e-11
-9.25194e-10
-9.45064e-11
-8.63021e-10
-9.56133e-11
-8.00192e-10
-9.66427e-11
-7.36756e-10
-9.75945e-11
-6.72762e-10
-9.84689e-11
-6.0826e-10
-9.92648e-11
-5.433e-10
-9.99818e-11
-4.77933e-10
-1.00619e-10
-4.12208e-10
-1.01176e-10
-3.46177e-10
-1.01651e-10
-2.79894e-10
-1.02033e-10
-2.13455e-10
-1.02236e-10
-1.47246e-10
-1.01771e-10
-8.30431e-11
-9.83078e-11
-2.76694e-11
-8.36373e-11
-3.96651e-11
3.37959e-11
-7.41948e-11
9.82164e-11
-1.47573e-10
1.71302e-10
-1.7009e-10
2.46089e-10
-1.75524e-10
3.2105e-10
-1.76733e-10
3.95917e-10
-1.76838e-10
4.70607e-10
-1.76469e-10
5.45035e-10
-1.758e-10
6.19119e-10
-1.74913e-10
6.92785e-10
-1.73849e-10
7.65965e-10
-1.72629e-10
8.38596e-10
-1.71266e-10
9.10616e-10
-1.69764e-10
9.81964e-10
-1.68127e-10
1.05258e-09
-1.66355e-10
1.12241e-09
-1.6445e-10
1.1914e-09
-1.62409e-10
1.25948e-09
-1.60234e-10
1.32661e-09
-1.57925e-10
1.39272e-09
-1.5548e-10
1.45776e-09
-1.52901e-10
1.52168e-09
-1.50186e-10
1.5844e-09
-1.47337e-10
1.64589e-09
-1.44352e-10
1.70607e-09
-1.41233e-10
1.7649e-09
-1.37979e-10
1.82232e-09
-1.34591e-10
1.87827e-09
-1.3107e-10
1.93269e-09
-1.27417e-10
1.98554e-09
-1.23632e-10
2.03674e-09
-1.19717e-10
2.08625e-09
-1.15671e-10
2.13402e-09
-1.11496e-10
2.17998e-09
-1.07193e-10
2.22408e-09
-1.02764e-10
2.26628e-09
-9.82092e-11
2.30651e-09
-9.3532e-11
2.34472e-09
-8.8734e-11
2.38086e-09
-8.38173e-11
2.41489e-09
-7.87841e-11
2.44675e-09
-7.36368e-11
2.47639e-09
-6.83782e-11
2.50376e-09
-6.30117e-11
2.52883e-09
-5.75408e-11
2.55154e-09
-5.19693e-11
2.57185e-09
-4.63009e-11
2.58972e-09
-4.05395e-11
2.60511e-09
-3.46894e-11
2.61798e-09
-2.87551e-11
2.6283e-09
-2.27414e-11
2.63604e-09
-1.66536e-11
2.64115e-09
-1.04971e-11
2.64362e-09
-4.27735e-12
2.64343e-09
1.99955e-12
2.64055e-09
8.32885e-12
2.63496e-09
1.4699e-11
2.62662e-09
2.11047e-11
2.61554e-09
2.75395e-11
2.60168e-09
3.39962e-11
2.58505e-09
4.04676e-11
2.56563e-09
4.69458e-11
2.54343e-09
5.34229e-11
2.51844e-09
5.98907e-11
2.49066e-09
6.63408e-11
2.46011e-09
7.27648e-11
2.4268e-09
7.91539e-11
2.39074e-09
8.54993e-11
2.35195e-09
9.17921e-11
2.31046e-09
9.80228e-11
2.2663e-09
1.04182e-10
2.21949e-09
1.10261e-10
2.17007e-09
1.16251e-10
2.11808e-09
1.22141e-10
2.06358e-09
1.27923e-10
2.00659e-09
1.33587e-10
1.94719e-09
1.39123e-10
1.88543e-09
1.44523e-10
1.82136e-09
1.49777e-10
1.75505e-09
1.54877e-10
1.68658e-09
1.59814e-10
1.61602e-09
1.64579e-10
1.54344e-09
1.69163e-10
1.46893e-09
1.73559e-10
1.39256e-09
1.77757e-10
1.31444e-09
1.81752e-10
1.23465e-09
1.85534e-10
1.15328e-09
1.89098e-10
1.07044e-09
1.92436e-10
9.86223e-10
1.95543e-10
9.00738e-10
1.98412e-10
8.14091e-10
2.01039e-10
7.26391e-10
2.03418e-10
6.3775e-10
2.05543e-10
5.48281e-10
2.07412e-10
4.58098e-10
2.09021e-10
3.67319e-10
2.10365e-10
2.7606e-10
2.11444e-10
1.84442e-10
2.12255e-10
9.25821e-11
2.12796e-10
6.00804e-13
2.13067e-10
-9.13807e-11
2.13068e-10
-1.83241e-10
2.12799e-10
-2.7486e-10
2.12259e-10
-3.6612e-10
2.11449e-10
-4.56901e-10
2.10371e-10
-5.47085e-10
2.09027e-10
-6.36558e-10
2.07419e-10
-7.25203e-10
2.05552e-10
-8.12906e-10
2.03427e-10
-8.99557e-10
2.01051e-10
-9.85045e-10
1.98427e-10
-1.06926e-09
1.95559e-10
-1.15211e-09
1.92454e-10
-1.23348e-09
1.89117e-10
-1.31328e-09
1.85555e-10
-1.39141e-09
1.81773e-10
-1.46778e-09
1.7778e-10
-1.54231e-09
1.73582e-10
-1.6149e-09
1.69187e-10
-1.68547e-09
1.64604e-10
-1.75395e-09
1.59841e-10
-1.82026e-09
1.54905e-10
-1.88434e-09
1.49807e-10
-1.94612e-09
1.44553e-10
-2.00553e-09
1.39155e-10
-2.06253e-09
1.3362e-10
-2.11705e-09
1.27958e-10
-2.16904e-09
1.22177e-10
-2.21848e-09
1.16289e-10
-2.2653e-09
1.10302e-10
-2.30948e-09
1.04224e-10
-2.35098e-09
9.80655e-11
-2.38979e-09
9.18357e-11
-2.42586e-09
8.5544e-11
-2.45919e-09
7.91997e-11
-2.48975e-09
7.28115e-11
-2.51755e-09
6.63886e-11
-2.54255e-09
5.99399e-11
-2.56478e-09
5.34735e-11
-2.58421e-09
4.69975e-11
-2.60086e-09
4.052e-11
-2.61473e-09
3.40489e-11
-2.62584e-09
2.75919e-11
-2.63419e-09
2.11568e-11
-2.6398e-09
1.47507e-11
-2.6427e-09
8.38019e-12
-2.6429e-09
2.05063e-12
-2.64045e-09
-4.22601e-12
-2.63535e-09
-1.04448e-11
-2.62764e-09
-1.66e-11
-2.61734e-09
-2.26862e-11
-2.60449e-09
-2.86976e-11
-2.58911e-09
-3.46294e-11
-2.57126e-09
-4.04775e-11
-2.55097e-09
-4.62375e-11
-2.52828e-09
-5.19047e-11
-2.50323e-09
-5.74755e-11
-2.47588e-09
-6.29459e-11
-2.44626e-09
-6.83124e-11
-2.41442e-09
-7.3571e-11
-2.38042e-09
-7.87185e-11
-2.34429e-09
-8.37522e-11
-2.3061e-09
-8.86691e-11
-2.26589e-09
-9.34662e-11
-2.22372e-09
-9.81418e-11
-2.17963e-09
-1.02694e-10
-2.13369e-09
-1.07122e-10
-2.08595e-09
-1.11423e-10
-2.03646e-09
-1.15597e-10
-1.98527e-09
-1.19643e-10
-1.93245e-09
-1.23558e-10
-1.87805e-09
-1.27343e-10
-1.82212e-09
-1.30995e-10
-1.76472e-09
-1.34512e-10
-1.70591e-09
-1.37894e-10
-1.64575e-09
-1.41142e-10
-1.58429e-09
-1.44256e-10
-1.52158e-09
-1.47235e-10
-1.45769e-09
-1.50082e-10
-1.39267e-09
-1.52794e-10
-1.32658e-09
-1.55371e-10
-1.25948e-09
-1.57812e-10
-1.19142e-09
-1.60117e-10
-1.12245e-09
-1.62285e-10
-1.05264e-09
-1.64318e-10
-9.82039e-10
-1.66214e-10
-9.10704e-10
-1.67977e-10
-8.38693e-10
-1.69607e-10
-7.66061e-10
-1.71102e-10
-6.92862e-10
-1.72463e-10
-6.19155e-10
-1.73689e-10
-5.44993e-10
-1.74781e-10
-4.70432e-10
-1.75736e-10
-3.95529e-10
-1.76556e-10
-3.20342e-10
-1.77221e-10
-2.44984e-10
-1.77597e-10
-1.69867e-10
-1.76893e-10
-9.68399e-11
-1.71336e-10
-3.31097e-11
-1.47367e-10
-7.27746e-11
3.48389e-11
-1.09038e-10
1.01204e-10
-2.13956e-10
1.76747e-10
-2.45626e-10
2.54024e-10
-2.52789e-10
3.31322e-10
-2.54027e-10
4.08382e-10
-2.53901e-10
4.85174e-10
-2.53264e-10
5.6166e-10
-2.52286e-10
6.37783e-10
-2.51034e-10
7.13477e-10
-2.49541e-10
7.88678e-10
-2.47829e-10
8.63322e-10
-2.45909e-10
9.37347e-10
-2.43788e-10
1.01069e-09
-2.4147e-10
1.08329e-09
-2.38958e-10
1.15509e-09
-2.36252e-10
1.22604e-09
-2.33353e-10
1.29606e-09
-2.3026e-10
1.36511e-09
-2.26975e-10
1.43313e-09
-2.23495e-10
1.50005e-09
-2.19823e-10
1.56582e-09
-2.15957e-10
1.63038e-09
-2.11898e-10
1.69367e-09
-2.07645e-10
1.75564e-09
-2.032e-10
1.81622e-09
-1.98561e-10
1.87536e-09
-1.93731e-10
1.933e-09
-1.88709e-10
1.98908e-09
-1.83497e-10
2.04354e-09
-1.78096e-10
2.09633e-09
-1.72506e-10
2.14739e-09
-1.66728e-10
2.19666e-09
-1.60764e-10
2.24408e-09
-1.54616e-10
2.2896e-09
-1.48286e-10
2.33317e-09
-1.41775e-10
2.37472e-09
-1.35086e-10
2.41421e-09
-1.28222e-10
2.45158e-09
-1.21186e-10
2.48677e-09
-1.13981e-10
2.51974e-09
-1.0661e-10
2.55044e-09
-9.90773e-11
2.57882e-09
-9.13877e-11
2.60482e-09
-8.35458e-11
2.62841e-09
-7.55564e-11
2.64953e-09
-6.74248e-11
2.66815e-09
-5.91566e-11
2.68422e-09
-5.07579e-11
2.6977e-09
-4.22353e-11
2.70855e-09
-3.35959e-11
2.71675e-09
-2.48474e-11
2.72225e-09
-1.59976e-11
2.72503e-09
-7.05538e-12
2.72506e-09
1.97008e-12
2.72231e-09
1.10717e-11
2.71677e-09
2.02412e-11
2.70841e-09
2.94689e-11
2.6972e-09
3.87442e-11
2.68314e-09
4.80564e-11
2.66621e-09
5.73945e-11
2.64641e-09
6.67473e-11
2.62373e-09
7.61032e-11
2.59817e-09
8.54502e-11
2.56974e-09
9.47761e-11
2.53843e-09
1.04069e-10
2.50427e-09
1.13315e-10
2.46727e-09
1.22502e-10
2.42744e-09
1.31618e-10
2.38482e-09
1.40648e-10
2.33942e-09
1.49579e-10
2.29129e-09
1.58397e-10
2.24045e-09
1.67089e-10
2.18695e-09
1.7564e-10
2.13083e-09
1.84038e-10
2.07215e-09
1.92268e-10
2.01096e-09
2.00316e-10
1.94731e-09
2.08169e-10
1.88127e-09
2.15814e-10
1.81291e-09
2.23237e-10
1.7423e-09
2.30426e-10
1.66951e-09
2.37367e-10
1.59463e-09
2.44047e-10
1.51773e-09
2.50454e-10
1.43891e-09
2.56577e-10
1.35826e-09
2.62403e-10
1.27588e-09
2.67922e-10
1.19185e-09
2.73124e-10
1.10629e-09
2.77998e-10
1.0193e-09
2.82535e-10
9.30982e-10
2.86726e-10
8.41457e-10
2.90564e-10
7.50834e-10
2.94039e-10
6.59229e-10
2.97147e-10
5.66762e-10
2.99879e-10
4.73551e-10
3.02231e-10
3.79718e-10
3.04198e-10
2.85385e-10
3.05777e-10
1.90677e-10
3.06963e-10
9.57177e-11
3.07756e-10
6.32457e-13
3.08153e-10
-9.44531e-11
3.08153e-10
-1.89413e-10
3.07759e-10
-2.84122e-10
3.06968e-10
-3.78456e-10
3.05783e-10
-4.72291e-10
3.04206e-10
-5.65504e-10
3.0224e-10
-6.57975e-10
2.9989e-10
-7.49582e-10
2.97159e-10
-8.40208e-10
2.94054e-10
-9.29737e-10
2.90581e-10
-1.01806e-09
2.86746e-10
-1.10505e-09
2.82557e-10
-1.19062e-09
2.78022e-10
-1.27465e-09
2.7315e-10
-1.35704e-09
2.6795e-10
-1.4377e-09
2.62432e-10
-1.51653e-09
2.56607e-10
-1.59343e-09
2.50485e-10
-1.66832e-09
2.4408e-10
-1.74112e-09
2.37402e-10
-1.81174e-09
2.30463e-10
-1.88011e-09
2.23276e-10
-1.94616e-09
2.15855e-10
-2.00982e-09
2.08212e-10
-2.07103e-09
2.0036e-10
-2.12972e-09
1.92313e-10
-2.18585e-09
1.84085e-10
-2.23936e-09
1.75689e-10
-2.29021e-09
1.67139e-10
-2.33836e-09
1.5845e-10
-2.38376e-09
1.49633e-10
-2.4264e-09
1.40704e-10
-2.46624e-09
1.31675e-10
-2.50326e-09
1.22561e-10
-2.53743e-09
1.13375e-10
-2.56875e-09
1.0413e-10
-2.5972e-09
9.48388e-11
-2.62278e-09
8.55144e-11
-2.64547e-09
7.6169e-11
-2.66529e-09
6.68141e-11
-2.68223e-09
5.74617e-11
-2.69631e-09
4.8124e-11
-2.70753e-09
3.88122e-11
-2.71591e-09
2.9537e-11
-2.72147e-09
2.03093e-11
-2.72423e-09
1.11401e-11
-2.72422e-09
2.03878e-12
-2.72145e-09
-6.98639e-12
-2.71597e-09
-1.59284e-11
-2.7078e-09
-2.47774e-11
-2.69696e-09
-3.35242e-11
-2.68349e-09
-4.21613e-11
-2.66744e-09
-5.06815e-11
-2.64884e-09
-5.9078e-11
-2.62773e-09
-6.73444e-11
-2.60416e-09
-7.54747e-11
-2.57817e-09
-8.34637e-11
-2.54982e-09
-9.13057e-11
-2.51913e-09
-9.89951e-11
-2.48618e-09
-1.06527e-10
-2.451e-09
-1.13898e-10
-2.41365e-09
-1.21103e-10
-2.37418e-09
-1.28139e-10
-2.33264e-09
-1.35002e-10
-2.28909e-09
-1.4169e-10
-2.24358e-09
-1.482e-10
-2.19618e-09
-1.54529e-10
-2.14692e-09
-1.60676e-10
-2.09588e-09
-1.66639e-10
-2.04311e-09
-1.72416e-10
-1.98866e-09
-1.78006e-10
-1.9326e-09
-1.83407e-10
-1.87497e-09
-1.88617e-10
-1.81585e-09
-1.93636e-10
-1.75528e-09
-1.98462e-10
-1.69332e-09
-2.03096e-10
-1.63004e-09
-2.07538e-10
-1.56549e-09
-2.11786e-10
-1.49973e-09
-2.15843e-10
-1.43282e-09
-2.19707e-10
-1.36481e-09
-2.23378e-10
-1.29577e-09
-2.26855e-10
-1.22574e-09
-2.30139e-10
-1.1548e-09
-2.33228e-10
-1.083e-09
-2.36124e-10
-1.01038e-09
-2.38828e-10
-9.37023e-10
-2.4134e-10
-8.6297e-10
-2.4366e-10
-7.88283e-10
-2.45789e-10
-7.1302e-10
-2.47727e-10
-6.37236e-10
-2.49473e-10
-5.60989e-10
-2.51027e-10
-4.84337e-10
-2.52391e-10
-4.07332e-10
-2.5356e-10
-3.30039e-10
-2.54511e-10
-2.52573e-10
-2.55064e-10
-1.75343e-10
-2.54123e-10
-1.00211e-10
-2.46471e-10
-3.44912e-11
-2.13087e-10
-1.07266e-10
3.49006e-11
-1.43929e-10
1.01476e-10
-2.80548e-10
1.77576e-10
-3.21734e-10
2.55596e-10
-3.30804e-10
3.33651e-10
-3.32073e-10
4.11413e-10
-3.31659e-10
4.88846e-10
-3.30697e-10
5.65929e-10
-3.29371e-10
6.42622e-10
-3.27727e-10
7.18871e-10
-3.25789e-10
7.94617e-10
-3.23573e-10
8.69801e-10
-3.2109e-10
9.4436e-10
-3.18346e-10
1.01824e-09
-3.15345e-10
1.09137e-09
-3.12091e-10
1.1637e-09
-3.08583e-10
1.23517e-09
-3.04823e-10
1.30572e-09
-3.0081e-10
1.37529e-09
-2.96546e-10
1.44382e-09
-2.92029e-10
1.51126e-09
-2.87261e-10
1.57754e-09
-2.8224e-10
1.64261e-09
-2.76967e-10
1.70641e-09
-2.71442e-10
1.76887e-09
-2.65666e-10
1.82995e-09
-2.59638e-10
1.88958e-09
-2.53359e-10
1.9477e-09
-2.46831e-10
2.00426e-09
-2.40054e-10
2.05919e-09
-2.33029e-10
2.11244e-09
-2.25757e-10
2.16395e-09
-2.1824e-10
2.21367e-09
-2.1048e-10
2.26153e-09
-2.02478e-10
2.30748e-09
-1.94237e-10
2.35147e-09
-1.85759e-10
2.39343e-09
-1.77049e-10
2.43331e-09
-1.68108e-10
2.47107e-09
-1.5894e-10
2.50664e-09
-1.49551e-10
2.53997e-09
-1.39943e-10
2.57102e-09
-1.30124e-10
2.59972e-09
-1.20097e-10
2.62604e-09
-1.09869e-10
2.64993e-09
-9.94454e-11
2.67134e-09
-8.8834e-11
2.69023e-09
-7.80417e-11
2.70655e-09
-6.70766e-11
2.72026e-09
-5.59473e-11
2.73133e-09
-4.46629e-11
2.73971e-09
-3.32331e-11
2.74538e-09
-2.16679e-11
2.74831e-09
-9.97845e-12
2.74845e-09
1.82371e-12
2.7458e-09
1.37281e-11
2.74031e-09
2.57245e-11
2.73198e-09
3.78005e-11
2.72078e-09
4.99423e-11
2.7067e-09
6.21363e-11
2.68973e-09
7.43679e-11
2.66985e-09
8.66225e-11
2.64707e-09
9.88847e-11
2.62138e-09
1.11139e-10
2.59279e-09
1.23369e-10
2.5613e-09
1.35559e-10
2.52692e-09
1.47691e-10
2.48967e-09
1.5975e-10
2.44957e-09
1.71718e-10
2.40665e-09
1.83577e-10
2.36092e-09
1.95308e-10
2.31242e-09
2.06895e-10
2.26119e-09
2.18319e-10
2.20727e-09
2.29561e-10
2.1507e-09
2.40604e-10
2.09154e-09
2.51429e-10
2.02983e-09
2.62019e-10
1.96565e-09
2.72354e-10
1.89904e-09
2.82418e-10
1.83009e-09
2.92192e-10
1.75885e-09
3.0166e-10
1.68542e-09
3.10802e-10
1.60986e-09
3.19604e-10
1.53227e-09
3.28047e-10
1.45273e-09
3.36117e-10
1.37133e-09
3.43799e-10
1.28818e-09
3.51076e-10
1.20337e-09
3.57937e-10
1.117e-09
3.64366e-10
1.02918e-09
3.70351e-10
9.40027e-10
3.75882e-10
8.49644e-10
3.80945e-10
7.58149e-10
3.85533e-10
6.65661e-10
3.89634e-10
5.72297e-10
3.93242e-10
4.7818e-10
3.96347e-10
3.83433e-10
3.98945e-10
2.88181e-10
4.0103e-10
1.92547e-10
4.02597e-10
9.66594e-11
4.03643e-10
6.44212e-13
4.04167e-10
-9.53713e-11
4.04168e-10
-1.9126e-10
4.03646e-10
-2.86895e-10
4.02602e-10
-3.82149e-10
4.01037e-10
-4.76898e-10
3.98955e-10
-5.71017e-10
3.96359e-10
-6.64383e-10
3.93256e-10
-7.56874e-10
3.89652e-10
-8.48372e-10
3.85553e-10
-9.38758e-10
3.80969e-10
-1.02792e-09
3.75908e-10
-1.11574e-09
3.7038e-10
-1.20211e-09
3.64396e-10
-1.28693e-09
3.57969e-10
-1.37009e-09
3.51111e-10
-1.45149e-09
3.43835e-10
-1.53104e-09
3.36155e-10
-1.60864e-09
3.28087e-10
-1.68421e-09
3.19645e-10
-1.75765e-09
3.10846e-10
-1.82889e-09
3.01706e-10
-1.89786e-09
2.92241e-10
-1.96447e-09
2.8247e-10
-2.02867e-09
2.72409e-10
-2.09039e-09
2.62075e-10
-2.14956e-09
2.51488e-10
-2.20614e-09
2.40664e-10
-2.26007e-09
2.29623e-10
-2.31131e-09
2.18382e-10
-2.35982e-09
2.0696e-10
-2.40557e-09
1.95375e-10
-2.44851e-09
1.83645e-10
-2.48862e-09
1.71788e-10
-2.52588e-09
1.59823e-10
-2.56027e-09
1.47766e-10
-2.59177e-09
1.35634e-10
-2.62038e-09
1.23446e-10
-2.64608e-09
1.11217e-10
-2.66888e-09
9.89645e-11
-2.68877e-09
8.67035e-11
-2.70576e-09
7.44498e-11
-2.71986e-09
6.22192e-11
-2.73107e-09
5.00262e-11
-2.73942e-09
3.78848e-11
-2.74492e-09
2.5809e-11
-2.74759e-09
1.38129e-11
-2.74746e-09
1.90908e-12
-2.74455e-09
-9.8928e-12
-2.7389e-09
-2.15822e-11
-2.73053e-09
-3.31467e-11
-2.71948e-09
-4.4575e-11
-2.70578e-09
-5.58574e-11
-2.68948e-09
-6.69846e-11
-2.67061e-09
-7.79474e-11
-2.64922e-09
-8.87377e-11
-2.62534e-09
-9.9348e-11
-2.59904e-09
-1.09771e-10
-2.57034e-09
-1.19999e-10
-2.53931e-09
-1.30026e-10
-2.506e-09
-1.39845e-10
-2.47044e-09
-1.49453e-10
-2.4327e-09
-1.58842e-10
-2.39283e-09
-1.68008e-10
-2.35088e-09
-1.76949e-10
-2.30691e-09
-1.85659e-10
-2.26098e-09
-1.94135e-10
-2.21313e-09
-2.02375e-10
-2.16343e-09
-2.10377e-10
-2.11193e-09
-2.18137e-10
-2.05869e-09
-2.25654e-10
-2.00377e-09
-2.32925e-10
-1.94723e-09
-2.3995e-10
-1.88912e-09
-2.46726e-10
-1.8295e-09
-2.53252e-10
-1.76844e-09
-2.59528e-10
-1.70598e-09
-2.65553e-10
-1.64219e-09
-2.71326e-10
-1.57713e-09
-2.76849e-10
-1.51085e-09
-2.8212e-10
-1.44342e-09
-2.8714e-10
-1.37488e-09
-2.91909e-10
-1.30531e-09
-2.96426e-10
-1.23476e-09
-3.00691e-10
-1.16329e-09
-3.04704e-10
-1.09094e-09
-3.08467e-10
-1.01779e-09
-3.1198e-10
-9.43892e-10
-3.15242e-10
-8.69297e-10
-3.18255e-10
-7.94066e-10
-3.2102e-10
-7.18256e-10
-3.23535e-10
-6.41925e-10
-3.25803e-10
-5.6513e-10
-3.27824e-10
-4.87926e-10
-3.29596e-10
-4.10371e-10
-3.31116e-10
-3.32527e-10
-3.32355e-10
-2.54509e-10
-3.33082e-10
-1.76725e-10
-3.31904e-10
-1.01049e-10
-3.2215e-10
-3.48401e-11
-2.79296e-10
-1.42106e-10
3.4901e-11
-1.78819e-10
1.0151e-10
-3.47159e-10
1.77803e-10
-3.98035e-10
2.5616e-10
-4.09163e-10
3.34619e-10
-4.10528e-10
4.12792e-10
-4.09827e-10
4.90615e-10
-4.08519e-10
5.68063e-10
-4.0682e-10
6.451e-10
-4.04764e-10
7.21678e-10
-4.02367e-10
7.97744e-10
-3.99638e-10
8.73241e-10
-3.96586e-10
9.4811e-10
-3.93214e-10
1.02229e-09
-3.89528e-10
1.09573e-09
-3.85529e-10
1.16836e-09
-3.81218e-10
1.24014e-09
-3.76596e-10
1.31099e-09
-3.71663e-10
1.38087e-09
-3.6642e-10
1.4497e-09
-3.60866e-10
1.51744e-09
-3.55e-10
1.58403e-09
-3.48825e-10
1.6494e-09
-3.42338e-10
1.71349e-09
-3.3554e-10
1.77626e-09
-3.28431e-10
1.83764e-09
-3.21013e-10
1.89756e-09
-3.13285e-10
1.95598e-09
-3.05249e-10
2.01283e-09
-2.96905e-10
2.06805e-09
-2.88254e-10
2.12159e-09
-2.79299e-10
2.17339e-09
-2.7004e-10
2.22339e-09
-2.60479e-10
2.27154e-09
-2.5062e-10
2.31776e-09
-2.40465e-10
2.36202e-09
-2.30017e-10
2.40425e-09
-2.19279e-10
2.4444e-09
-2.08256e-10
2.48241e-09
-1.96953e-10
2.51824e-09
-1.85373e-10
2.55182e-09
-1.73523e-10
2.5831e-09
-1.61409e-10
2.61204e-09
-1.49038e-10
2.63859e-09
-1.36415e-10
2.66269e-09
-1.2355e-10
2.6843e-09
-1.1045e-10
2.70339e-09
-9.71241e-11
2.71989e-09
-8.35828e-11
2.73378e-09
-6.98363e-11
2.74502e-09
-5.58955e-11
2.75355e-09
-4.1772e-11
2.75936e-09
-2.7478e-11
2.76241e-09
-1.30269e-11
2.76267e-09
1.56778e-12
2.76011e-09
1.62918e-11
2.7547e-09
3.11319e-11
2.74643e-09
4.60727e-11
2.73527e-09
6.1098e-11
2.72121e-09
7.61907e-11
2.70425e-09
9.13333e-11
2.68436e-09
1.06507e-10
2.66155e-09
1.21694e-10
2.63582e-09
1.36873e-10
2.60716e-09
1.52026e-10
2.57558e-09
1.67132e-10
2.54111e-09
1.82171e-10
2.50374e-09
1.97121e-10
2.46349e-09
2.11961e-10
2.4204e-09
2.26668e-10
2.37449e-09
2.41221e-10
2.32579e-09
2.55597e-10
2.27433e-09
2.69773e-10
2.22017e-09
2.83727e-10
2.16333e-09
2.97436e-10
2.10388e-09
3.10877e-10
2.04187e-09
3.24028e-10
1.97736e-09
3.36866e-10
1.91041e-09
3.49369e-10
1.84109e-09
3.61513e-10
1.76947e-09
3.73278e-10
1.69564e-09
3.84641e-10
1.61966e-09
3.95581e-10
1.54163e-09
4.06079e-10
1.46163e-09
4.16113e-10
1.37976e-09
4.25666e-10
1.29612e-09
4.34717e-10
1.21081e-09
4.43251e-10
1.12392e-09
4.51249e-10
1.03558e-09
4.58696e-10
9.45881e-10
4.65578e-10
8.54946e-10
4.71879e-10
7.62889e-10
4.77589e-10
6.69828e-10
4.82694e-10
5.75885e-10
4.87184e-10
4.81182e-10
4.9105e-10
3.85842e-10
4.94285e-10
2.89992e-10
4.9688e-10
1.93758e-10
4.98831e-10
9.72675e-11
5.00133e-10
6.47959e-13
5.00785e-10
-9.59718e-11
5.00786e-10
-1.92463e-10
5.00137e-10
-2.88699e-10
4.98837e-10
-3.8455e-10
4.96889e-10
-4.79891e-10
4.94296e-10
-5.74597e-10
4.91066e-10
-6.68542e-10
4.87203e-10
-7.61605e-10
4.82716e-10
-8.53665e-10
4.77615e-10
-9.44604e-10
4.71909e-10
-1.03431e-09
4.6561e-10
-1.12266e-09
4.58731e-10
-1.20954e-09
4.51287e-10
-1.29486e-09
4.43291e-10
-1.37851e-09
4.3476e-10
-1.46039e-09
4.2571e-10
-1.54039e-09
4.16159e-10
-1.61843e-09
4.06127e-10
-1.69442e-09
3.95632e-10
-1.76826e-09
3.84694e-10
-1.83989e-09
3.73334e-10
-1.90922e-09
3.61572e-10
-1.97618e-09
3.4943e-10
-2.0407e-09
3.36931e-10
-2.10273e-09
3.24096e-10
-2.16219e-09
3.10947e-10
-2.21903e-09
2.97508e-10
-2.27321e-09
2.83801e-10
-2.32467e-09
2.69849e-10
-2.37339e-09
2.55675e-10
-2.41931e-09
2.413e-10
-2.46242e-09
2.2675e-10
-2.50267e-09
2.12044e-10
-2.54006e-09
1.97207e-10
-2.57455e-09
1.82258e-10
-2.60614e-09
1.67221e-10
-2.63481e-09
1.52117e-10
-2.66056e-09
1.36966e-10
-2.68338e-09
1.21787e-10
-2.70328e-09
1.06603e-10
-2.72026e-09
9.14304e-11
-2.73433e-09
7.62895e-11
-2.7455e-09
6.1198e-11
-2.75379e-09
4.61734e-11
-2.75922e-09
3.12328e-11
-2.7618e-09
1.63931e-11
-2.76156e-09
1.66958e-12
-2.75853e-09
-1.29248e-11
-2.75273e-09
-2.73754e-11
-2.74421e-09
-4.16684e-11
-2.73299e-09
-5.57906e-11
-2.71912e-09
-6.97299e-11
-2.70263e-09
-8.34748e-11
-2.68356e-09
-9.70143e-11
-2.66196e-09
-1.10338e-10
-2.63787e-09
-1.23437e-10
-2.61134e-09
-1.36302e-10
-2.58242e-09
-1.48924e-10
-2.55115e-09
-1.61296e-10
-2.51758e-09
-1.7341e-10
-2.48178e-09
-1.8526e-10
-2.44378e-09
-1.96839e-10
-2.40364e-09
-2.08142e-10
-2.36143e-09
-2.19164e-10
-2.31718e-09
-2.29901e-10
-2.27097e-09
-2.40349e-10
-2.22284e-09
-2.50504e-10
-2.17285e-09
-2.60363e-10
-2.12107e-09
-2.69923e-10
-2.06754e-09
-2.79182e-10
-2.01233e-09
-2.88137e-10
-1.95549e-09
-2.96787e-10
-1.89708e-09
-3.05131e-10
-1.83717e-09
-3.13167e-10