/*--------------------------------*- C++ -*----------------------------------*\
| =========                 |                                                 |
| \\      /  F ield         | OpenFOAM: The Open Source CFD Toolbox           |
|  \\    /   O peration     | Version:  2412                                  |
|   \\  /    A nd           | Website:  www.openfoam.com                      |
|    \\/     M anipulation  |                                                 |
\*---------------------------------------------------------------------------*/
FoamFile
{
    version     2.0;
    format      ascii;
    arch        "LSB;label=32;scalar=64";
    class       volVectorField;
    location    "1.25";
    object      U;
}
// * * * * * * * * * * * * * * * * * * * * * * * * * * * * * * * * * * * * * //

dimensions      [0 1 -1 0 0 0 0];

internalField   nonuniform List<vector> 
40000
(
(2.10225e-06 -2.03183e-06 0)
(2.37509e-05 -5.87129e-06 0)
(5.58476e-05 -7.52192e-06 0)
(9.05247e-05 -8.11586e-06 0)
(0.000126111 -8.30728e-06 0)
(0.000161965 -8.35544e-06 0)
(0.000197812 -8.33551e-06 0)
(0.000233523 -8.28351e-06 0)
(0.000269035 -8.2171e-06 0)
(0.000304312 -8.14509e-06 0)
(0.000339326 -8.06997e-06 0)
(0.00037405 -7.99044e-06 0)
(0.000408459 -7.90497e-06 0)
(0.000442526 -7.81285e-06 0)
(0.000476225 -7.71407e-06 0)
(0.000509531 -7.60875e-06 0)
(0.000542416 -7.4969e-06 0)
(0.000574852 -7.37834e-06 0)
(0.000606812 -7.2529e-06 0)
(0.000638268 -7.12047e-06 0)
(0.000669194 -6.98111e-06 0)
(0.00069956 -6.83496e-06 0)
(0.000729338 -6.68215e-06 0)
(0.000758502 -6.52275e-06 0)
(0.000787022 -6.35678e-06 0)
(0.000814874 -6.18429e-06 0)
(0.000842028 -6.00535e-06 0)
(0.000868459 -5.82009e-06 0)
(0.000894138 -5.62865e-06 0)
(0.000919041 -5.43123e-06 0)
(0.000943138 -5.228e-06 0)
(0.000966406 -5.01913e-06 0)
(0.000988818 -4.80473e-06 0)
(0.00101035 -4.5849e-06 0)
(0.00103098 -4.35971e-06 0)
(0.00105067 -4.12931e-06 0)
(0.00106941 -3.89391e-06 0)
(0.00108718 -3.65378e-06 0)
(0.00110394 -3.4092e-06 0)
(0.00111968 -3.16039e-06 0)
(0.00113438 -2.90752e-06 0)
(0.00114801 -2.65074e-06 0)
(0.00116056 -2.39025e-06 0)
(0.001172 -2.12631e-06 0)
(0.00118232 -1.85929e-06 0)
(0.00119149 -1.58952e-06 0)
(0.00119951 -1.3173e-06 0)
(0.00120635 -1.04284e-06 0)
(0.00121201 -7.66275e-07 0)
(0.00121646 -4.8774e-07 0)
(0.00121969 -2.07211e-07 0)
(0.00122169 7.58463e-08 0)
(0.00122246 3.61737e-07 0)
(0.00122197 6.45039e-07 0)
(0.00122021 9.32404e-07 0)
(0.00121718 1.21837e-06 0)
(0.00121288 1.50102e-06 0)
(0.00120731 1.78111e-06 0)
(0.00120048 2.05914e-06 0)
(0.00119238 2.3352e-06 0)
(0.001183 2.60912e-06 0)
(0.00117237 2.88062e-06 0)
(0.00116048 3.14935e-06 0)
(0.00114733 3.41489e-06 0)
(0.00113294 3.67689e-06 0)
(0.0011173 3.93503e-06 0)
(0.00110045 4.18908e-06 0)
(0.00108238 4.4388e-06 0)
(0.00106311 4.6839e-06 0)
(0.00104266 4.92403e-06 0)
(0.00102105 5.15884e-06 0)
(0.000998287 5.38807e-06 0)
(0.000974402 5.61151e-06 0)
(0.000949416 5.82903e-06 0)
(0.000923353 6.04044e-06 0)
(0.000896239 6.24547e-06 0)
(0.0008681 6.4438e-06 0)
(0.000838965 6.63517e-06 0)
(0.000808865 6.81936e-06 0)
(0.000777832 6.99624e-06 0)
(0.000745899 7.16572e-06 0)
(0.0007131 7.32767e-06 0)
(0.000679472 7.48194e-06 0)
(0.000645052 7.62837e-06 0)
(0.000609878 7.76681e-06 0)
(0.00057399 7.89716e-06 0)
(0.000537428 8.01933e-06 0)
(0.000500235 8.13319e-06 0)
(0.000462452 8.23864e-06 0)
(0.000424125 8.33561e-06 0)
(0.000385296 8.42408e-06 0)
(0.000346013 8.50405e-06 0)
(0.000306322 8.57549e-06 0)
(0.000266268 8.63835e-06 0)
(0.000225899 8.69252e-06 0)
(0.000185263 8.73792e-06 0)
(0.000144408 8.77448e-06 0)
(0.000103381 8.8022e-06 0)
(6.22313e-05 8.82102e-06 0)
(2.10097e-05 8.83052e-06 0)
(-2.02359e-05 8.83049e-06 0)
(-6.14576e-05 8.82095e-06 0)
(-0.000102607 8.80213e-06 0)
(-0.000143634 8.77449e-06 0)
(-0.000184491 8.73813e-06 0)
(-0.000225128 8.69303e-06 0)
(-0.000265499 8.63914e-06 0)
(-0.000305554 8.57645e-06 0)
(-0.000345249 8.50505e-06 0)
(-0.000384534 8.42506e-06 0)
(-0.000423364 8.33657e-06 0)
(-0.000461694 8.2397e-06 0)
(-0.000499479 8.13447e-06 0)
(-0.000536676 8.02087e-06 0)
(-0.000573241 7.89898e-06 0)
(-0.000609134 7.76892e-06 0)
(-0.000644313 7.63075e-06 0)
(-0.000678739 7.48445e-06 0)
(-0.000712374 7.33014e-06 0)
(-0.000745181 7.16811e-06 0)
(-0.000777121 6.99865e-06 0)
(-0.000808162 6.8218e-06 0)
(-0.00083827 6.63765e-06 0)
(-0.000867413 6.4465e-06 0)
(-0.000895561 6.24852e-06 0)
(-0.000922684 6.04376e-06 0)
(-0.000948756 5.83253e-06 0)
(-0.000973752 5.6151e-06 0)
(-0.000997646 5.39152e-06 0)
(-0.00102042 5.1621e-06 0)
(-0.00104204 4.9274e-06 0)
(-0.0010625 4.68767e-06 0)
(-0.00108178 4.44285e-06 0)
(-0.00109986 4.19308e-06 0)
(-0.00111673 3.93899e-06 0)
(-0.00113237 3.68101e-06 0)
(-0.00114678 3.41921e-06 0)
(-0.00115994 3.15377e-06 0)
(-0.00117185 2.88525e-06 0)
(-0.00118251 2.61423e-06 0)
(-0.00119189 2.3407e-06 0)
(-0.00120001 2.06462e-06 0)
(-0.00120686 1.78641e-06 0)
(-0.00121244 1.50619e-06 0)
(-0.00121675 1.22334e-06 0)
(-0.00121979 9.37031e-07 0)
(-0.00122157 6.49386e-07 0)
(-0.00122207 3.66076e-07 0)
(-0.00122132 8.03702e-08 0)
(-0.00121933 -2.02408e-07 0)
(-0.00121611 -4.82617e-07 0)
(-0.00121167 -7.60811e-07 0)
(-0.00120604 -1.03713e-06 0)
(-0.00119921 -1.31138e-06 0)
(-0.00119122 -1.5834e-06 0)
(-0.00118206 -1.85303e-06 0)
(-0.00117176 -2.11982e-06 0)
(-0.00116034 -2.38355e-06 0)
(-0.00114782 -2.64407e-06 0)
(-0.00113421 -2.90103e-06 0)
(-0.00111953 -3.15416e-06 0)
(-0.0011038 -3.4031e-06 0)
(-0.00108706 -3.64769e-06 0)
(-0.00106931 -3.88779e-06 0)
(-0.00105059 -4.12307e-06 0)
(-0.00103092 -4.35326e-06 0)
(-0.00101031 -4.57828e-06 0)
(-0.0009888 -4.79811e-06 0)
(-0.000966409 -5.01237e-06 0)
(-0.000943163 -5.221e-06 0)
(-0.000919087 -5.42431e-06 0)
(-0.000894208 -5.62183e-06 0)
(-0.000868552 -5.81322e-06 0)
(-0.000842147 -5.99841e-06 0)
(-0.000815019 -6.17672e-06 0)
(-0.000787196 -6.34813e-06 0)
(-0.000758707 -6.51317e-06 0)
(-0.000729577 -6.67199e-06 0)
(-0.000699835 -6.82438e-06 0)
(-0.000669507 -6.97026e-06 0)
(-0.000638621 -7.10958e-06 0)
(-0.000607205 -7.24176e-06 0)
(-0.000575288 -7.36656e-06 0)
(-0.000542898 -7.48395e-06 0)
(-0.000510066 -7.59411e-06 0)
(-0.000476819 -7.69727e-06 0)
(-0.000443187 -7.79295e-06 0)
(-0.000409196 -7.88157e-06 0)
(-0.000374875 -7.96362e-06 0)
(-0.000340251 -8.0385e-06 0)
(-0.000305354 -8.10562e-06 0)
(-0.000270212 -8.16497e-06 0)
(-0.000234854 -8.21614e-06 0)
(-0.000199312 -8.25773e-06 0)
(-0.000163621 -8.2866e-06 0)
(-0.000127823 -8.28836e-06 0)
(-9.20165e-05 -8.20345e-06 0)
(-5.66904e-05 -7.77561e-06 0)
(-2.38342e-05 -6.19988e-06 0)
(-1.99823e-06 -2.08649e-06 0)
(6.24276e-06 -2.38962e-05 0)
(5.31519e-05 -5.21426e-05 0)
(0.00011477 -6.20357e-05 0)
(0.000179914 -6.4977e-05 0)
(0.000245873 -6.58898e-05 0)
(0.00031201 -6.61011e-05 0)
(0.000378104 -6.5981e-05 0)
(0.000444011 -6.56871e-05 0)
(0.000509624 -6.52949e-05 0)
(0.00057487 -6.484e-05 0)
(0.000639689 -6.43364e-05 0)
(0.000704025 -6.37868e-05 0)
(0.000767826 -6.31904e-05 0)
(0.00083104 -6.25461e-05 0)
(0.000893615 -6.18532e-05 0)
(0.000955503 -6.11112e-05 0)
(0.00101665 -6.03198e-05 0)
(0.00107702 -5.94784e-05 0)
(0.00113654 -5.85868e-05 0)
(0.00119519 -5.76444e-05 0)
(0.00125289 -5.66511e-05 0)
(0.0013096 -5.56072e-05 0)
(0.00136528 -5.45126e-05 0)
(0.00141987 -5.33675e-05 0)
(0.00147332 -5.21719e-05 0)
(0.00152558 -5.09261e-05 0)
(0.0015766 -4.96302e-05 0)
(0.00162633 -4.82847e-05 0)
(0.00167473 -4.68902e-05 0)
(0.00172173 -4.54472e-05 0)
(0.0017673 -4.39561e-05 0)
(0.00181138 -4.24174e-05 0)
(0.00185393 -4.08316e-05 0)
(0.00189489 -3.91991e-05 0)
(0.00193423 -3.75205e-05 0)
(0.00197188 -3.57965e-05 0)
(0.00200782 -3.40282e-05 0)
(0.00204198 -3.22165e-05 0)
(0.00207433 -3.03625e-05 0)
(0.00210482 -2.84671e-05 0)
(0.0021334 -2.65314e-05 0)
(0.00216004 -2.45564e-05 0)
(0.0021847 -2.25434e-05 0)
(0.00220733 -2.04939e-05 0)
(0.0022279 -1.84096e-05 0)
(0.00224636 -1.62923e-05 0)
(0.00226268 -1.41436e-05 0)
(0.00227684 -1.19651e-05 0)
(0.00228879 -9.75837e-06 0)
(0.0022985 -7.52504e-06 0)
(0.00230595 -5.26658e-06 0)
(0.00231111 -2.98379e-06 0)
(0.00231394 -6.76328e-07 0)
(0.00231445 1.65163e-06 0)
(0.00231258 3.9979e-06 0)
(0.00230833 6.35105e-06 0)
(0.00230169 8.70719e-06 0)
(0.00229265 1.10662e-05 0)
(0.00228119 1.34273e-05 0)
(0.0022673 1.57888e-05 0)
(0.002251 1.81483e-05 0)
(0.00223226 2.05029e-05 0)
(0.0022111 2.28496e-05 0)
(0.00218751 2.51855e-05 0)
(0.00216151 2.75074e-05 0)
(0.00213311 2.98124e-05 0)
(0.00210232 3.20973e-05 0)
(0.00206916 3.43591e-05 0)
(0.00203365 3.65945e-05 0)
(0.00199581 3.88003e-05 0)
(0.00195568 4.09733e-05 0)
(0.00191329 4.31102e-05 0)
(0.00186866 4.52082e-05 0)
(0.00182185 4.72642e-05 0)
(0.00177289 4.92752e-05 0)
(0.00172182 5.12378e-05 0)
(0.0016687 5.3149e-05 0)
(0.00161359 5.50057e-05 0)
(0.00155653 5.68049e-05 0)
(0.00149758 5.85439e-05 0)
(0.00143681 6.02201e-05 0)
(0.00137429 6.18307e-05 0)
(0.00131008 6.33731e-05 0)
(0.00124426 6.48446e-05 0)
(0.0011769 6.62428e-05 0)
(0.00110807 6.75655e-05 0)
(0.00103787 6.88104e-05 0)
(0.000966374 6.99756e-05 0)
(0.000893665 7.1059e-05 0)
(0.000819832 7.2059e-05 0)
(0.000744968 7.29738e-05 0)
(0.000669163 7.38021e-05 0)
(0.000592513 7.45423e-05 0)
(0.000515113 7.51932e-05 0)
(0.00043706 7.57534e-05 0)
(0.000358453 7.62221e-05 0)
(0.000279389 7.65985e-05 0)
(0.00019997 7.6882e-05 0)
(0.000120297 7.70718e-05 0)
(4.04729e-05 7.71671e-05 0)
(-3.94032e-05 7.71674e-05 0)
(-0.000119228 7.70727e-05 0)
(-0.000198901 7.68834e-05 0)
(-0.00027832 7.66003e-05 0)
(-0.000357385 7.62243e-05 0)
(-0.000435994 7.5756e-05 0)
(-0.00051405 7.51963e-05 0)
(-0.000591453 7.4546e-05 0)
(-0.000668107 7.38065e-05 0)
(-0.000743915 7.2979e-05 0)
(-0.000818783 7.2065e-05 0)
(-0.000892619 7.10659e-05 0)
(-0.000965333 6.99834e-05 0)
(-0.00103684 6.88191e-05 0)
(-0.00110704 6.75749e-05 0)
(-0.00117587 6.62528e-05 0)
(-0.00124324 6.48551e-05 0)
(-0.00130907 6.3384e-05 0)
(-0.00137329 6.18418e-05 0)
(-0.00143582 6.02315e-05 0)
(-0.0014966 5.85558e-05 0)
(-0.00155556 5.68174e-05 0)
(-0.00161263 5.50186e-05 0)
(-0.00166776 5.31626e-05 0)
(-0.00172089 5.12525e-05 0)
(-0.00177196 4.9291e-05 0)
(-0.00182094 4.7281e-05 0)
(-0.00186777 4.52257e-05 0)
(-0.0019124 4.31282e-05 0)
(-0.00195481 4.09917e-05 0)
(-0.00199496 3.88195e-05 0)
(-0.00203281 3.66147e-05 0)
(-0.00206833 3.43802e-05 0)
(-0.00210151 3.21189e-05 0)
(-0.00213232 2.98344e-05 0)
(-0.00216074 2.75303e-05 0)
(-0.00218676 2.52093e-05 0)
(-0.00221036 2.28742e-05 0)
(-0.00223154 2.05283e-05 0)
(-0.0022503 1.81749e-05 0)
(-0.00226663 1.58164e-05 0)
(-0.00228053 1.34548e-05 0)
(-0.00229201 1.10928e-05 0)
(-0.00230107 8.73295e-06 0)
(-0.00230773 6.37593e-06 0)
(-0.002312 4.02164e-06 0)
(-0.00231388 1.67446e-06 0)
(-0.0023134 -6.53408e-07 0)
(-0.00231058 -2.95984e-06 0)
(-0.00230544 -5.24124e-06 0)
(-0.00229801 -7.49816e-06 0)
(-0.00228832 -9.72957e-06 0)
(-0.00227639 -1.19343e-05 0)
(-0.00226226 -1.41113e-05 0)
(-0.00224596 -1.62589e-05 0)
(-0.00222752 -1.83753e-05 0)
(-0.00220698 -2.04587e-05 0)
(-0.00218438 -2.25076e-05 0)
(-0.00215975 -2.45208e-05 0)
(-0.00213313 -2.64964e-05 0)
(-0.00210457 -2.84327e-05 0)
(-0.0020741 -3.03285e-05 0)
(-0.00204178 -3.21826e-05 0)
(-0.00200764 -3.39937e-05 0)
(-0.00197174 -3.57608e-05 0)
(-0.00193411 -3.74831e-05 0)
(-0.0018948 -3.91601e-05 0)
(-0.00185386 -4.07914e-05 0)
(-0.00181134 -4.23764e-05 0)
(-0.00176728 -4.39146e-05 0)
(-0.00172174 -4.54057e-05 0)
(-0.00167477 -4.68487e-05 0)
(-0.0016264 -4.8242e-05 0)
(-0.0015767 -4.95847e-05 0)
(-0.00152571 -5.0876e-05 0)
(-0.00147349 -5.2116e-05 0)
(-0.00142007 -5.33063e-05 0)
(-0.00136552 -5.44473e-05 0)
(-0.00130989 -5.55387e-05 0)
(-0.00125321 -5.65802e-05 0)
(-0.00119556 -5.75714e-05 0)
(-0.00113696 -5.85103e-05 0)
(-0.00107748 -5.93964e-05 0)
(-0.00101717 -6.023e-05 0)
(-0.000956073 -6.10109e-05 0)
(-0.000894244 -6.17399e-05 0)
(-0.000831733 -6.24177e-05 0)
(-0.00076859 -6.3045e-05 0)
(-0.000704865 -6.36221e-05 0)
(-0.000640607 -6.41479e-05 0)
(-0.000575866 -6.46214e-05 0)
(-0.000510692 -6.50421e-05 0)
(-0.000445136 -6.54084e-05 0)
(-0.000379248 -6.57185e-05 0)
(-0.000313081 -6.59612e-05 0)
(-0.000246686 -6.60721e-05 0)
(-0.000180165 -6.56943e-05 0)
(-0.000114209 -6.31853e-05 0)
(-5.21837e-05 -5.29382e-05 0)
(-5.86185e-06 -2.36742e-05 0)
(7.54821e-06 -5.6653e-05 0)
(6.29529e-05 -0.00011432 0)
(0.00013394 -0.000132376 0)
(0.000208558 -0.000136973 0)
(0.000283575 -0.000138158 0)
(0.000358507 -0.000138365 0)
(0.000433298 -0.000138119 0)
(0.000507875 -0.000137598 0)
(0.000582149 -0.00013689 0)
(0.00065604 -0.000136038 0)
(0.000729478 -0.000135065 0)
(0.000802397 -0.000133981 0)
(0.000874735 -0.00013279 0)
(0.000946432 -0.000131495 0)
(0.00101743 -0.000130095 0)
(0.00108766 -0.00012859 0)
(0.00115708 -0.00012698 0)
(0.00122563 -0.000125264 0)
(0.00129325 -0.000123444 0)
(0.00135988 -0.000121517 0)
(0.00142547 -0.000119485 0)
(0.00148996 -0.000117347 0)
(0.00155329 -0.000115103 0)
(0.00161541 -0.000112754 0)
(0.00167626 -0.000110299 0)
(0.00173578 -0.000107738 0)
(0.00179392 -0.000105073 0)
(0.00185061 -0.000102304 0)
(0.00190581 -9.94312e-05 0)
(0.00195946 -9.64557e-05 0)
(0.0020115 -9.33782e-05 0)
(0.00206187 -9.01993e-05 0)
(0.00211052 -8.69197e-05 0)
(0.00215739 -8.35404e-05 0)
(0.00220244 -8.00624e-05 0)
(0.0022456 -7.64873e-05 0)
(0.00228682 -7.28168e-05 0)
(0.00232606 -6.90525e-05 0)
(0.00236325 -6.51961e-05 0)
(0.00239834 -6.12494e-05 0)
(0.0024313 -5.72144e-05 0)
(0.00246206 -5.30933e-05 0)
(0.00249058 -4.88886e-05 0)
(0.00251681 -4.46033e-05 0)
(0.0025407 -4.02405e-05 0)
(0.00256223 -3.58033e-05 0)
(0.00258133 -3.12948e-05 0)
(0.00259797 -2.67182e-05 0)
(0.00261211 -2.20772e-05 0)
(0.00262372 -1.73754e-05 0)
(0.00263275 -1.26169e-05 0)
(0.00263918 -7.80538e-06 0)
(0.00264298 -2.94409e-06 0)
(0.00264413 1.96541e-06 0)
(0.0026426 6.9113e-06 0)
(0.00263837 1.18855e-05 0)
(0.00263141 1.68833e-05 0)
(0.0026217 2.19006e-05 0)
(0.00260924 2.69327e-05 0)
(0.002594 3.19741e-05 0)
(0.00257597 3.70187e-05 0)
(0.00255516 4.20606e-05 0)
(0.00253156 4.70931e-05 0)
(0.00250518 5.21099e-05 0)
(0.00247602 5.71044e-05 0)
(0.00244408 6.20699e-05 0)
(0.00240939 6.69995e-05 0)
(0.00237197 7.18863e-05 0)
(0.00233182 7.67232e-05 0)
(0.00228899 8.15029e-05 0)
(0.00224349 8.62183e-05 0)
(0.00219537 9.08623e-05 0)
(0.00214466 9.5428e-05 0)
(0.0020914 9.99081e-05 0)
(0.00203565 0.000104295 0)
(0.00197744 0.000108583 0)
(0.00191685 0.000112763 0)
(0.00185392 0.000116828 0)
(0.00178871 0.000120774 0)
(0.00172131 0.000124591 0)
(0.00165178 0.000128275 0)
(0.00158019 0.000131819 0)
(0.00150662 0.000135215 0)
(0.00143116 0.000138459 0)
(0.0013539 0.000141544 0)
(0.00127492 0.000144464 0)
(0.00119431 0.000147215 0)
(0.00111219 0.000149792 0)
(0.00102863 0.00015219 0)
(0.00094376 0.000154404 0)
(0.000857669 0.00015643 0)
(0.00077047 0.000158265 0)
(0.000682274 0.000159905 0)
(0.000593192 0.000161347 0)
(0.000503339 0.000162587 0)
(0.000412831 0.000163625 0)
(0.000321785 0.000164457 0)
(0.000230319 0.000165083 0)
(0.000138552 0.000165501 0)
(4.66056e-05 0.00016571 0)
(-4.54041e-05 0.000165711 0)
(-0.000137351 0.000165503 0)
(-0.000229118 0.000165086 0)
(-0.000320585 0.000164461 0)
(-0.000411633 0.000163629 0)
(-0.000502142 0.000162592 0)
(-0.000591998 0.000161352 0)
(-0.000681083 0.000159911 0)
(-0.000769283 0.000158273 0)
(-0.000856486 0.000156439 0)
(-0.00094258 0.000154415 0)
(-0.00102746 0.000152203 0)
(-0.00111102 0.000149807 0)
(-0.00119315 0.000147231 0)
(-0.00127376 0.000144481 0)
(-0.00135274 0.000141561 0)
(-0.00143001 0.000138477 0)
(-0.00150548 0.000135234 0)
(-0.00157906 0.000131838 0)
(-0.00165066 0.000128296 0)
(-0.0017202 0.000124613 0)
(-0.00178762 0.000120797 0)
(-0.00185283 0.000116852 0)
(-0.00191577 0.000112787 0)
(-0.00197638 0.000108609 0)
(-0.00203459 0.000104323 0)
(-0.00209036 9.99371e-05 0)
(-0.00214363 9.54582e-05 0)
(-0.00219435 9.0894e-05 0)
(-0.00224249 8.62514e-05 0)
(-0.002288 8.15372e-05 0)
(-0.00233085 7.67586e-05 0)
(-0.00237101 7.19227e-05 0)
(-0.00240845 6.70367e-05 0)
(-0.00244315 6.21079e-05 0)
(-0.0024751 5.71434e-05 0)
(-0.00250428 5.215e-05 0)
(-0.00253068 4.71344e-05 0)
(-0.0025543 4.21031e-05 0)
(-0.00257512 3.70626e-05 0)
(-0.00259317 3.20189e-05 0)
(-0.00260842 2.69777e-05 0)
(-0.00262091 2.1945e-05 0)
(-0.00263063 1.69271e-05 0)
(-0.00263761 1.19287e-05 0)
(-0.00264185 6.95365e-06 0)
(-0.0026434 2.0071e-06 0)
(-0.00264227 -2.90222e-06 0)
(-0.00263849 -7.76237e-06 0)
(-0.00263208 -1.25724e-05 0)
(-0.00262306 -1.73292e-05 0)
(-0.00261148 -2.20287e-05 0)
(-0.00259735 -2.66672e-05 0)
(-0.00258073 -3.12418e-05 0)
(-0.00256165 -3.57489e-05 0)
(-0.00254015 -4.01849e-05 0)
(-0.00251627 -4.45467e-05 0)
(-0.00249006 -4.88312e-05 0)
(-0.00246156 -5.30359e-05 0)
(-0.00243082 -5.71573e-05 0)
(-0.00239789 -6.11926e-05 0)
(-0.00236281 -6.51398e-05 0)
(-0.00232564 -6.89964e-05 0)
(-0.00228643 -7.27599e-05 0)
(-0.00224522 -7.64288e-05 0)
(-0.00220208 -8.00019e-05 0)
(-0.00215706 -8.34777e-05 0)
(-0.0021102 -8.68553e-05 0)
(-0.00206157 -9.0134e-05 0)
(-0.00201122 -9.33129e-05 0)
(-0.0019592 -9.63904e-05 0)
(-0.00190558 -9.93658e-05 0)
(-0.0018504 -0.000102237 0)
(-0.00179373 -0.000105002 0)
(-0.00173561 -0.000107662 0)
(-0.00167611 -0.000110216 0)
(-0.00161529 -0.000112665 0)
(-0.00155319 -0.00011501 0)
(-0.00148988 -0.00011725 0)
(-0.00142541 -0.000119385 0)
(-0.00135985 -0.000121415 0)
(-0.00129324 -0.000123338 0)
(-0.00122564 -0.000125152 0)
(-0.00115711 -0.00012686 0)
(-0.00108771 -0.000128459 0)
(-0.0010175 -0.000129952 0)
(-0.000946516 -0.00013134 0)
(-0.000874832 -0.000132623 0)
(-0.000802498 -0.000133802 0)
(-0.000729571 -0.000134875 0)
(-0.000656107 -0.000135841 0)
(-0.000582161 -0.000136701 0)
(-0.000507788 -0.000137454 0)
(-0.000433045 -0.000138098 0)
(-0.00035799 -0.000138619 0)
(-0.000282682 -0.000138909 0)
(-0.000207226 -0.000138328 0)
(-0.000132352 -0.000133834 0)
(-6.17891e-05 -0.000114582 0)
(-7.29702e-06 -5.56205e-05 0)
(7.75466e-06 -9.15634e-05 0)
(6.48432e-05 -0.000180621 0)
(0.000138091 -0.000207589 0)
(0.000215279 -0.000213833 0)
(0.000292726 -0.000215059 0)
(0.00036991 -0.000215069 0)
(0.000446834 -0.000214585 0)
(0.000523481 -0.000213777 0)
(0.000599799 -0.000212717 0)
(0.000675721 -0.000211446 0)
(0.000751183 -0.000209985 0)
(0.000826119 -0.000208346 0)
(0.000900467 -0.000206538 0)
(0.000974164 -0.000204563 0)
(0.00104715 -0.000202423 0)
(0.00111937 -0.00020012 0)
(0.00119075 -0.000197653 0)
(0.00126125 -0.000195021 0)
(0.0013308 -0.000192226 0)
(0.00139934 -0.000189267 0)
(0.00146682 -0.000186143 0)
(0.00153318 -0.000182856 0)
(0.00159836 -0.000179405 0)
(0.0016623 -0.000175789 0)
(0.00172494 -0.00017201 0)
(0.00178623 -0.000168067 0)
(0.0018461 -0.000163962 0)
(0.00190451 -0.000159694 0)
(0.00196138 -0.000155266 0)
(0.00201666 -0.000150677 0)
(0.0020703 -0.000145928 0)
(0.00212224 -0.000141021 0)
(0.00217241 -0.000135956 0)
(0.00222077 -0.000130735 0)
(0.00226726 -0.00012536 0)
(0.00231182 -0.000119833 0)
(0.00235439 -0.000114155 0)
(0.00239492 -0.00010833 0)
(0.00243336 -0.000102359 0)
(0.00246966 -9.62458e-05 0)
(0.00250375 -8.99928e-05 0)
(0.0025356 -8.36037e-05 0)
(0.00256515 -7.70822e-05 0)
(0.00259235 -7.04326e-05 0)
(0.00261715 -6.36591e-05 0)
(0.00263952 -5.67664e-05 0)
(0.0026594 -4.97591e-05 0)
(0.00267675 -4.26423e-05 0)
(0.00269154 -3.54218e-05 0)
(0.00270372 -2.81034e-05 0)
(0.00271325 -2.06937e-05 0)
(0.00272011 -1.31993e-05 0)
(0.00272425 -5.62755e-06 0)
(0.00272566 2.01482e-06 0)
(0.00272431 9.71909e-06 0)
(0.00272018 1.74783e-05 0)
(0.00271323 2.52848e-05 0)
(0.00270345 3.31297e-05 0)
(0.00269082 4.10039e-05 0)
(0.00267533 4.88984e-05 0)
(0.00265697 5.68034e-05 0)
(0.00263573 6.47093e-05 0)
(0.00261161 7.26059e-05 0)
(0.00258461 8.04831e-05 0)
(0.00255474 8.83303e-05 0)
(0.002522 9.61369e-05 0)
(0.00248642 0.000103892 0)
(0.002448 0.000111585 0)
(0.00240677 0.000119204 0)
(0.00236275 0.000126738 0)
(0.00231598 0.000134175 0)
(0.00226649 0.000141504 0)
(0.00221431 0.000148713 0)
(0.00215949 0.000155792 0)
(0.00210208 0.000162727 0)
(0.00204213 0.000169508 0)
(0.0019797 0.000176124 0)
(0.00191484 0.000182562 0)
(0.00184762 0.000188813 0)
(0.00177812 0.000194866 0)
(0.0017064 0.000200708 0)
(0.00163255 0.000206331 0)
(0.00155664 0.000211722 0)
(0.00147876 0.000216874 0)
(0.001399 0.000221775 0)
(0.00131746 0.000226417 0)
(0.00123423 0.000230791 0)
(0.00114941 0.00023489 0)
(0.00106311 0.000238704 0)
(0.000975432 0.000242227 0)
(0.000886486 0.000245453 0)
(0.000796385 0.000248374 0)
(0.000705244 0.000250985 0)
(0.00061318 0.00025328 0)
(0.000520313 0.000255256 0)
(0.000426763 0.000256908 0)
(0.000332651 0.000258233 0)
(0.000238102 0.000259229 0)
(0.00014324 0.000259894 0)
(4.81901e-05 0.000260227 0)
(-4.69253e-05 0.000260228 0)
(-0.000141976 0.000259897 0)
(-0.000236839 0.000259233 0)
(-0.000331389 0.000258239 0)
(-0.000425502 0.000256914 0)
(-0.000519055 0.000255263 0)
(-0.000611924 0.000253289 0)
(-0.000703991 0.000250995 0)
(-0.000795135 0.000248386 0)
(-0.000885239 0.000245467 0)
(-0.000974189 0.000242244 0)
(-0.00106187 0.000238723 0)
(-0.00114818 0.00023491 0)
(-0.001233 0.000230814 0)
(-0.00131624 0.000226441 0)
(-0.00139779 0.0002218 0)
(-0.00147755 0.0002169 0)
(-0.00155544 0.000211749 0)
(-0.00163135 0.000206359 0)
(-0.00170522 0.000200738 0)
(-0.00177694 0.000194898 0)
(-0.00184646 0.000188847 0)
(-0.00191368 0.000182598 0)
(-0.00197855 0.00017616 0)
(-0.002041 0.000169546 0)
(-0.00210096 0.000162767 0)
(-0.00215838 0.000155833 0)
(-0.00221321 0.000148756 0)
(-0.0022654 0.000141548 0)
(-0.00231491 0.000134221 0)
(-0.00236169 0.000126786 0)
(-0.00240572 0.000119253 0)
(-0.00244697 0.000111635 0)
(-0.0024854 0.000103944 0)
(-0.002521 9.61898e-05 0)
(-0.00255375 8.83842e-05 0)
(-0.00258363 8.05382e-05 0)
(-0.00261065 7.26625e-05 0)
(-0.00263478 6.47675e-05 0)
(-0.00265604 5.68626e-05 0)
(-0.00267441 4.89582e-05 0)
(-0.00268992 4.10641e-05 0)
(-0.00270257 3.31899e-05 0)
(-0.00271236 2.53449e-05 0)
(-0.00271932 1.75383e-05 0)
(-0.00272348 9.77897e-06 0)
(-0.00272484 2.07479e-06 0)
(-0.00272345 -5.56733e-06 0)
(-0.00271932 -1.31385e-05 0)
(-0.00271248 -2.06318e-05 0)
(-0.00270297 -2.80398e-05 0)
(-0.00269081 -3.53558e-05 0)
(-0.00267604 -4.25738e-05 0)
(-0.0026587 -4.96883e-05 0)
(-0.00263884 -5.6694e-05 0)
(-0.00261649 -6.35854e-05 0)
(-0.0025917 -7.03582e-05 0)
(-0.00256451 -7.70075e-05 0)
(-0.00253498 -8.35288e-05 0)
(-0.00250315 -8.99179e-05 0)
(-0.00246907 -9.61708e-05 0)
(-0.00243279 -0.000102284 0)
(-0.00239437 -0.000108255 0)
(-0.00235385 -0.00011408 0)
(-0.0023113 -0.000119756 0)
(-0.00226675 -0.000125282 0)
(-0.00222028 -0.000130655 0)
(-0.00217194 -0.000135875 0)
(-0.00212178 -0.000140939 0)
(-0.00206986 -0.000145846 0)
(-0.00201624 -0.000150594 0)
(-0.00196097 -0.000155183 0)
(-0.00190411 -0.00015961 0)
(-0.00184572 -0.000163874 0)
(-0.00178586 -0.000167974 0)
(-0.00172459 -0.000171912 0)
(-0.00166196 -0.000175686 0)
(-0.00159803 -0.000179297 0)
(-0.00153286 -0.000182746 0)
(-0.00146651 -0.000186031 0)
(-0.00139904 -0.000189152 0)
(-0.0013305 -0.000192109 0)
(-0.00126095 -0.0001949 0)
(-0.00119046 -0.000197526 0)
(-0.00111907 -0.000199988 0)
(-0.00104685 -0.000202285 0)
(-0.000973852 -0.00020442 0)
(-0.000900133 -0.000206393 0)
(-0.000825751 -0.000208204 0)
(-0.000750765 -0.000209852 0)
(-0.000675229 -0.000211337 0)
(-0.000599202 -0.000212658 0)
(-0.00052274 -0.000213816 0)
(-0.0004459 -0.000214809 0)
(-0.000368742 -0.000215616 0)
(-0.000291325 -0.00021608 0)
(-0.000213752 -0.00021526 0)
(-0.000136758 -0.000208661 0)
(-6.42e-05 -0.000180004 0)
(-7.68611e-06 -8.98751e-05 0)
(7.77423e-06 -0.000126519 0)
(6.49372e-05 -0.000247276 0)
(0.000138562 -0.000283638 0)
(0.00021646 -0.000291707 0)
(0.000294688 -0.000292942 0)
(0.000372608 -0.000292671 0)
(0.000450201 -0.000291878 0)
(0.000527462 -0.000290735 0)
(0.00060436 -0.000289293 0)
(0.000680842 -0.000287583 0)
(0.000756852 -0.000285623 0)
(0.00083233 -0.000283424 0)
(0.000907214 -0.000280993 0)
(0.000981445 -0.000278335 0)
(0.00105496 -0.000275452 0)
(0.00112771 -0.000272345 0)
(0.00119962 -0.000269016 0)
(0.00127064 -0.000265464 0)
(0.00134071 -0.000261689 0)
(0.00140978 -0.000257691 0)
(0.00147778 -0.000253471 0)
(0.00154465 -0.000249028 0)
(0.00161034 -0.000244362 0)
(0.00167479 -0.000239473 0)
(0.00173793 -0.000234362 0)
(0.00179971 -0.000229029 0)
(0.00186008 -0.000223475 0)
(0.00191897 -0.000217701 0)
(0.00197632 -0.000211707 0)
(0.00203208 -0.000205494 0)
(0.00208618 -0.000199064 0)
(0.00213858 -0.000192417 0)
(0.00218921 -0.000185556 0)
(0.00223801 -0.000178481 0)
(0.00228493 -0.000171196 0)
(0.00232991 -0.000163703 0)
(0.00237289 -0.000156004 0)
(0.00241383 -0.000148103 0)
(0.00245266 -0.000140003 0)
(0.00248934 -0.000131706 0)
(0.0025238 -0.000123219 0)
(0.002556 -0.000114544 0)
(0.00258589 -0.000105687 0)
(0.00261342 -9.6654e-05 0)
(0.00263853 -8.74496e-05 0)
(0.00266119 -7.80801e-05 0)
(0.00268135 -6.8552e-05 0)
(0.00269896 -5.88723e-05 0)
(0.00271399 -4.90488e-05 0)
(0.00272639 -3.90894e-05 0)
(0.00273612 -2.9003e-05 0)
(0.00274316 -1.87984e-05 0)
(0.00274747 -8.48585e-06 0)
(0.00274901 1.9244e-06 0)
(0.00274776 1.24234e-05 0)
(0.0027437 2.30024e-05 0)
(0.00273679 3.36503e-05 0)
(0.00272703 4.43552e-05 0)
(0.0027144 5.51045e-05 0)
(0.00269887 6.58855e-05 0)
(0.00268045 7.66852e-05 0)
(0.00265912 8.74902e-05 0)
(0.00263489 9.82867e-05 0)
(0.00260775 0.00010906 0)
(0.0025777 0.000119797 0)
(0.00254477 0.000130482 0)
(0.00250895 0.000141101 0)
(0.00247028 0.000151638 0)
(0.00242876 0.000162078 0)
(0.00238442 0.000172404 0)
(0.0023373 0.000182602 0)
(0.00228743 0.000192655 0)
(0.00223485 0.000202547 0)
(0.00217959 0.000212263 0)
(0.00212171 0.000221786 0)
(0.00206127 0.0002311 0)
(0.00199831 0.00024019 0)
(0.0019329 0.00024904 0)
(0.0018651 0.000257634 0)
(0.00179499 0.000265958 0)
(0.00172264 0.000273995 0)
(0.00164812 0.000281732 0)
(0.00157153 0.000289153 0)
(0.00149294 0.000296246 0)
(0.00141245 0.000302996 0)
(0.00133015 0.000309391 0)
(0.00124615 0.000315418 0)
(0.00116053 0.000321066 0)
(0.00107341 0.000326325 0)
(0.000984903 0.000331183 0)
(0.000895106 0.000335631 0)
(0.00080414 0.00033966 0)
(0.000712121 0.000343262 0)
(0.000619167 0.00034643 0)
(0.000525398 0.000349157 0)
(0.000430937 0.000351438 0)
(0.000335908 0.000353268 0)
(0.000240436 0.000354644 0)
(0.000144646 0.000355563 0)
(4.86671e-05 0.000356023 0)
(-4.73787e-05 0.000356024 0)
(-0.000143359 0.000355566 0)
(-0.00023915 0.000354649 0)
(-0.000334623 0.000353275 0)
(-0.000429654 0.000351446 0)
(-0.000524116 0.000349167 0)
(-0.000617887 0.000346442 0)
(-0.000710844 0.000343277 0)
(-0.000802867 0.000339677 0)
(-0.000893836 0.000335651 0)
(-0.000983636 0.000331206 0)
(-0.00107215 0.00032635 0)
(-0.00115927 0.000321094 0)
(-0.00124489 0.000315447 0)
(-0.00132891 0.000309422 0)
(-0.00141121 0.000303028 0)
(-0.00149171 0.00029628 0)
(-0.0015703 0.000289189 0)
(-0.00164691 0.000281769 0)
(-0.00172143 0.000274035 0)
(-0.00179379 0.000265999 0)
(-0.00186391 0.000257678 0)
(-0.00193172 0.000249086 0)
(-0.00199714 0.000240238 0)
(-0.00206011 0.00023115 0)
(-0.00212057 0.000221838 0)
(-0.00217846 0.000212317 0)
(-0.00223372 0.000202603 0)
(-0.00228632 0.000192712 0)
(-0.0023362 0.000182661 0)
(-0.00238334 0.000172465 0)
(-0.00242769 0.00016214 0)
(-0.00246922 0.000151701 0)
(-0.00250791 0.000141166 0)
(-0.00254374 0.000130549 0)
(-0.00257669 0.000119865 0)
(-0.00260674 0.00010913 0)
(-0.0026339 9.83576e-05 0)
(-0.00265815 8.75628e-05 0)
(-0.00267949 7.6759e-05 0)
(-0.00269793 6.59599e-05 0)
(-0.00271346 5.51796e-05 0)
(-0.00272612 4.44311e-05 0)
(-0.00273589 3.37266e-05 0)
(-0.00274281 2.30787e-05 0)
(-0.00274689 1.25001e-05 0)
(-0.00274815 2.00158e-06 0)
(-0.00274663 -8.40834e-06 0)
(-0.00274234 -1.87208e-05 0)
(-0.00273532 -2.89246e-05 0)
(-0.0027256 -3.90094e-05 0)
(-0.00271322 -4.89666e-05 0)
(-0.00269821 -5.87879e-05 0)
(-0.00268061 -6.84653e-05 0)
(-0.00266047 -7.79915e-05 0)
(-0.00263782 -8.73598e-05 0)
(-0.00261272 -9.65639e-05 0)
(-0.00258521 -0.000105597 0)
(-0.00255534 -0.000114454 0)
(-0.00252315 -0.000123128 0)
(-0.0024887 -0.000131616 0)
(-0.00245204 -0.000139912 0)
(-0.00241323 -0.000148012 0)
(-0.00237231 -0.000155913 0)
(-0.00232933 -0.000163611 0)
(-0.00228437 -0.000171103 0)
(-0.00223746 -0.000178387 0)
(-0.00218867 -0.00018546 0)
(-0.00213806 -0.000192321 0)
(-0.00208568 -0.000198967 0)
(-0.00203159 -0.000205397 0)
(-0.00197584 -0.00021161 0)
(-0.0019185 -0.000217602 0)
(-0.00185963 -0.000223374 0)
(-0.00179927 -0.000228925 0)
(-0.0017375 -0.000234254 0)
(-0.00167436 -0.000239361 0)
(-0.00160992 -0.000244247 0)
(-0.00154424 -0.00024891 0)
(-0.00147737 -0.000253352 0)
(-0.00140937 -0.000257572 0)
(-0.00134031 -0.000261569 0)
(-0.00127024 -0.000265343 0)
(-0.00119921 -0.000268894 0)
(-0.00112729 -0.000272224 0)
(-0.00105453 -0.000275332 0)
(-0.000980992 -0.00027822 0)
(-0.000906732 -0.000280886 0)
(-0.000831808 -0.000283333 0)
(-0.000756275 -0.000285561 0)
(-0.000680193 -0.000287567 0)
(-0.000603617 -0.000289354 0)
(-0.000526605 -0.000290922 0)
(-0.000449214 -0.000292266 0)
(-0.000371505 -0.000293361 0)
(-0.000293537 -0.000294001 0)
(-0.000215409 -0.000292943 0)
(-0.00013786 -0.000284243 0)
(-6.48034e-05 -0.000246131 0)
(-7.79124e-06 -0.000124647 0)
(7.77923e-06 -0.000161378 0)
(6.49345e-05 -0.000313852 0)
(0.000138638 -0.000359857 0)
(0.000216826 -0.000369926 0)
(0.000295448 -0.000371223 0)
(0.000373786 -0.000370658 0)
(0.000451782 -0.000369524 0)
(0.000529421 -0.000368015 0)
(0.000606671 -0.000366169 0)
(0.000683488 -0.000364005 0)
(0.000759822 -0.000361536 0)
(0.000835616 -0.00035877 0)
(0.000910811 -0.000355713 0)
(0.000985349 -0.00035237 0)
(0.00105917 -0.000348744 0)
(0.00113222 -0.000344835 0)
(0.00120444 -0.000340644 0)
(0.00127576 -0.000336171 0)
(0.00134614 -0.000331417 0)
(0.00141551 -0.000326381 0)
(0.00148381 -0.000321064 0)
(0.00155098 -0.000315466 0)
(0.00161698 -0.000309586 0)
(0.00168172 -0.000303425 0)
(0.00174517 -0.000296982 0)
(0.00180725 -0.000290259 0)
(0.00186791 -0.000283255 0)
(0.0019271 -0.000275973 0)
(0.00198475 -0.000268412 0)
(0.0020408 -0.000260575 0)
(0.00209519 -0.000252461 0)
(0.00214788 -0.000244074 0)
(0.00219879 -0.000235414 0)
(0.00224787 -0.000226484 0)