/*--------------------------------*- C++ -*----------------------------------*\
| =========                 |                                                 |
| \\      /  F ield         | OpenFOAM: The Open Source CFD Toolbox           |
|  \\    /   O peration     | Version:  2412                                  |
|   \\  /    A nd           | Website:  www.openfoam.com                      |
|    \\/     M anipulation  |                                                 |
\*---------------------------------------------------------------------------*/
FoamFile
{
    version     2.0;
    format      ascii;
    arch        "LSB;label=32;scalar=64";
    class       surfaceScalarField;
    location    "1.04";
    object      alphaPhi0.water;
}
// * * * * * * * * * * * * * * * * * * * * * * * * * * * * * * * * * * * * * //

dimensions      [0 3 -1 0 0 0 0];

oriented        oriented;

internalField   nonuniform List<scalar> 
79600
(
6.67439e-234
-5.83638e-230
1.78944e-231
-1.54514e-227
5.94918e-229
-2.69957e-225
1.41546e-228
-4.09191e-225
2.45294e-228
-5.05345e-225
3.17671e-228
-5.08378e-225
3.62897e-228
-4.76089e-225
3.80015e-228
-4.23613e-225
3.73284e-228
-3.62737e-225
3.50748e-228
-3.027e-225
3.16977e-228
-2.46407e-225
2.75988e-228
-1.95433e-225
2.32016e-228
-1.51026e-225
1.88388e-228
-1.13575e-225
1.4769e-228
-8.29922e-226
1.11695e-228
-5.88214e-226
8.13664e-229
-4.03483e-226
5.70237e-229
-2.67378e-226
3.83771e-229
-1.70782e-226
2.47501e-229
-1.0488e-226
1.52587e-229
-6.17559e-227
8.96814e-230
-3.47611e-227
5.00975e-230
-1.86432e-227
2.65103e-230
-9.49342e-228
1.32404e-230
-4.57229e-228
6.21653e-231
-2.07421e-228
2.7317e-231
-8.82267e-229
1.11794e-231
-3.50096e-229
4.23772e-232
-1.28879e-229
1.47876e-232
-4.37394e-230
4.71795e-233
-1.35907e-230
1.36589e-233
-3.83676e-231
3.55828e-234
-9.75791e-232
8.26399e-235
-2.21479e-232
1.69345e-235
-4.4397e-233
3.0264e-236
-7.76783e-234
4.65531e-237
-1.17058e-234
6.07329e-238
-1.49679e-235
6.60873e-239
-1.59674e-236
5.88701e-240
-1.39428e-237
4.20394e-241
-9.75506e-239
2.35087e-242
-5.33886e-240
1.00298e-243
-2.22508e-241
3.17249e-245
-6.85504e-243
7.21503e-247
-1.51164e-244
1.14419e-248
-2.30854e-246
1.23522e-250
-2.37445e-248
9.06888e-253
-1.63236e-250
4.77746e-255
-7.83516e-253
2.04759e-257
-2.95233e-255
8.12649e-260
-9.89214e-258
3.13962e-262
-3.02008e-260
1.17706e-264
-7.55963e-263
4.19065e-267
-7.61407e-266
1.73527e-269
1.26181e-272
7.77088e-272
1.36463e-274
3.47025e-274
9.72262e-277
1.54377e-276
5.96255e-279
6.83393e-279
3.37879e-281
3.0071e-281
1.81908e-283
1.31379e-283
9.43369e-286
5.6926e-286
4.74813e-288
2.44336e-288
2.32949e-290
1.0376e-290
1.11682e-292
4.35406e-293
5.23938e-295
1.80311e-295
2.40668e-297
7.35927e-298
1.08251e-299
2.95615e-300
4.76642e-302
1.167e-302
2.05333e-304
4.52084e-305
8.64812e-307
1.71586e-307
3.55794e-309
6.37016e-310
1.42834e-311
2.30924e-312
5.58835e-314
8.15917e-315
2.12785e-316
2.8044e-317
7.87264e-319
9.3576e-320
2.82606e-321
3.0138e-322
9.88131e-324
0
0
0
0
0
0
0
0
0
0
0
0
0
0
0
0
0
0
0
0
0
0
0
0
0
0
0
0
0
0
0
0
0
0
0
0
0
0
0
0
0
0
0
0
0
0
0
0
0
0
0
0
0
0
0
0
0
0
0
0
0
0
0
0
0
0
0
0
0
0
0
0
0
0
0
0
0
0
0
0
0
0
0
0
0
0
0
0
-3.60668e-322
0
-1.15601e-319
1.4822e-323
-3.5683e-317
3.74502e-321
-1.06695e-314
1.07599e-318
-3.09716e-312
2.99213e-316
-8.74609e-310
8.07144e-314
-2.40731e-307
2.11557e-311
-6.4701e-305
5.39638e-309
-1.70097e-302
1.34144e-306
-4.3813e-300
3.25383e-304
-1.10742e-297
7.71023e-302
-2.75087e-295
1.78644e-299
-6.72522e-293
4.05104e-297
-1.62038e-290
8.99556e-295
-3.85286e-288
1.95615e-292
-9.05232e-286
4.16551e-290
-2.1042e-283
8.68229e-288
-4.8449e-281
1.76872e-285
-1.10627e-278
3.51143e-283
-2.50793e-276
6.76645e-281
-5.65104e-274
1.25675e-278
-1.267e-271
2.21821e-276
-2.82964e-269
3.61749e-274
-6.30162e-267
5.09811e-272
-1.40086e-264
4.82928e-270
-2.97524e-262
-1.36506e-263
-5.3359e-260
-1.27476e-260
-8.11241e-258
-3.75847e-258
-1.03934e-255
-7.69535e-256
-1.10916e-253
-1.21584e-253
-9.71116e-252
-1.52059e-251
-6.86021e-250
-1.50692e-249
-3.84921e-248
-1.17379e-247
-1.69387e-246
-7.1145e-246
-5.80154e-245
-3.32755e-244
-1.54554e-243
-1.19606e-242
-3.22132e-242
-3.31239e-241
-5.31149e-241
-7.12868e-240
-7.02713e-240
-1.20813e-238
-7.57548e-239
-1.63799e-237
-6.75659e-238
-1.80639e-236
-5.0622e-237
-1.64654e-235
-3.23279e-236
-1.26027e-234
-1.78372e-235
-8.22238e-234
-8.60894e-235
-4.63653e-233
-3.67461e-234
-2.28832e-232
-1.40095e-233
-9.99573e-232
-4.81418e-233
-3.90357e-231
-1.50333e-232
-1.37548e-230
-4.29662e-232
-4.40947e-230
-1.13086e-231
-1.29545e-229
-2.75563e-231
-3.50976e-229
-6.24802e-231
-8.81692e-229
-1.32515e-230
-2.06425e-228
-2.64313e-230
-4.52841e-228
-4.98235e-230
-9.35937e-228
-8.91177e-230
-1.83171e-227
-1.51715e-229
-3.40884e-227
-2.46436e-229
-6.05204e-227
-3.82739e-229
-1.02783e-226
-5.69404e-229
-1.67373e-226
-8.12909e-229
-2.61886e-226
-1.11594e-228
-3.94565e-226
-1.4761e-228
-5.7376e-226
-1.88525e-228
-8.0731e-226
-2.32833e-228
-1.10198e-225
-2.78296e-228
-1.46241e-225
-3.21883e-228
-1.89005e-225
-3.59926e-228
-2.38125e-225
-3.88628e-228
-2.92603e-225
-4.04546e-228
-3.50899e-225
-4.05114e-228
-4.1104e-225
-3.88792e-228
-4.70921e-225
-3.54845e-228
-5.28382e-225
-3.03337e-228
-5.80801e-225
-2.29555e-228
-6.24533e-225
-8.24132e-229
-6.37383e-225
-8.0103e-235
-3.51194e-225
-7.2655e-231
1.2539e-229
-5.18193e-226
4.14362e-225
-1.06591e-221
1.28061e-224
-2.58212e-221
1.99738e-224
-3.26033e-221
2.65816e-224
-3.62351e-221
3.14243e-224
-3.64601e-221
3.44972e-224
-3.4666e-221
3.55496e-224
-3.14324e-221
3.48781e-224
-2.74996e-221
3.28502e-224
-2.33636e-221
2.98178e-224
-1.93176e-221
2.61334e-224
-1.55505e-221
2.21377e-224
-1.21853e-221
1.81274e-224
-9.2868e-222
1.43432e-224
-6.87594e-222
1.09572e-224
-4.93844e-222
8.07174e-225
-3.43459e-222
5.72593e-225
-2.30885e-222
3.90427e-225
-1.4969e-222
2.5537e-225
-9.33792e-223
1.59841e-225
-5.58987e-223
9.54875e-226
-3.20179e-223
5.42832e-226
-1.74927e-223
2.92704e-226
-9.08442e-224
1.49168e-226
-4.46774e-224
7.15621e-227
-2.07226e-224
3.21765e-227
-9.02405e-225
1.34933e-227
-3.67097e-225
5.24874e-228
-1.38732e-225
1.88248e-228
-4.84082e-226
6.18354e-229
-1.54903e-226
1.84655e-229
-4.51176e-227
4.97197e-230
-1.1862e-227
1.19609e-230
-2.7892e-228
2.5446e-231
-5.80507e-229
4.73255e-232
-1.05703e-229
7.59571e-233
-1.66196e-230
1.03685e-233
-2.22332e-231
1.18422e-234
-2.48889e-232
1.11101e-235
-2.28813e-233
8.38654e-237
-1.69136e-234
4.97686e-238
-9.81552e-236
2.26257e-239
-4.35398e-237
7.65849e-241
-1.43286e-238
1.87191e-242
-3.3864e-240
3.20382e-244
-5.55642e-242
3.74536e-246
-6.14099e-244
2.98081e-248
-4.51069e-246
1.69825e-250
-2.27514e-248
7.87131e-253
-8.77919e-251
3.42762e-255
-2.95914e-253
1.49699e-257
-9.05193e-256
6.61441e-260
-2.26561e-258
2.94946e-262
-2.21017e-261
1.45929e-264
2.02221e-267
7.47833e-267
2.47845e-269
3.82158e-269
2.01476e-271
1.94535e-271
1.41273e-273
9.85383e-274
9.15419e-276
4.9612e-276
5.63658e-278
2.48003e-278
3.3435e-280
1.22946e-280
1.92497e-282
6.03744e-283
1.08032e-284
2.93321e-285
5.92448e-287
1.40814e-287
3.17911e-289
6.67116e-290
1.67024e-291
3.11479e-292
8.59244e-294
1.43129e-294
4.32724e-296
6.46359e-297
2.13226e-298
2.86424e-299
1.02729e-300
1.24353e-301
4.83469e-303
5.28075e-304
2.22019e-305
2.18966e-306
9.9359e-308
8.84922e-309
4.32713e-310
3.47889e-311
1.83102e-312
1.32767e-313
7.51529e-315
4.90798e-316
2.9865e-317
1.75333e-318
1.14673e-319
6.03748e-321
4.24896e-322
1.97626e-323
0
0
0
0
0
0
0
0
0
0
0
0
0
0
0
0
0
0
0
0
0
0
0
0
0
0
0
0
0
0
0
0
0
0
0
0
0
0
0
0
0
0
0
0
0
0
0
0
0
0
0
0
0
0
0
0
0
0
0
0
0
0
0
0
0
0
0
0
0
0
0
0
0
0
0
0
0
-1.4822e-323
0
-4.30331e-321
0
-1.29911e-318
3.26083e-322
-3.77131e-316
9.1333e-320
-1.05534e-313
2.46668e-317
-2.85396e-311
6.42295e-315
-7.47601e-309
1.616e-312
-1.90113e-306
3.93658e-310
-4.70286e-304
9.30182e-308
-1.13387e-301
2.13551e-305
-2.66936e-299
4.77093e-303
-6.14675e-297
1.03872e-300
-1.38673e-294
2.20673e-298
-3.06995e-292
4.57996e-296
-6.67905e-290
9.2943e-294
-1.43011e-287
1.84561e-291
-3.01783e-285
3.58836e-289
-6.28451e-283
6.8323e-287
-1.29319e-280
1.27368e-284
-2.63272e-278
2.32341e-282
-5.30916e-276
4.14223e-280
-1.06179e-273
7.19928e-278
-2.10832e-271
1.21446e-275
-4.16113e-269
1.97409e-273
-8.17215e-267
3.05047e-271
-1.59874e-264
4.35856e-269
-3.11887e-262
5.38359e-267
-6.07353e-260
4.46421e-265
-1.1453e-257
-3.6531e-259
-1.89192e-255
-3.37263e-256
-2.70161e-253
-9.85414e-254
-3.28424e-251
-1.99257e-251
-3.34111e-249
-3.09445e-249
-2.79184e-247
-3.78278e-247
-1.88022e-245
-3.64213e-245
-1.00308e-243
-2.73909e-243
-4.18461e-242
-1.59228e-241
-1.35587e-240
-7.10091e-240
-3.41432e-239
-2.42378e-238
-6.72955e-238
-6.36117e-237
-1.05068e-236
-1.29685e-235
-1.31868e-235
-2.08368e-234
-1.35201e-234
-2.68234e-233
-1.15034e-233
-2.81513e-232
-8.24647e-233
-2.44906e-231
-5.05268e-232
-1.79424e-230
-2.68136e-231
-1.12347e-229
-1.24742e-230
-6.09468e-229
-5.14275e-230
-2.90002e-228
-1.89745e-229
-1.22377e-227
-6.3209e-229
-4.62576e-227
-1.91641e-228
-1.58033e-226
-5.32606e-228
-4.91938e-226
-1.36548e-227
-1.4055e-225
-3.24775e-227
-3.70941e-225
-7.20319e-227
-9.09572e-225
-1.49718e-226
-2.08307e-224
-2.93033e-226
-4.47836e-224
-5.42398e-226
-9.08297e-224
-9.5313e-226
-1.74566e-223
-1.5952e-225
-3.19196e-223
-2.54932e-225
-5.57182e-223
-3.89951e-225
-9.3105e-223
-5.7219e-225
-1.49323e-222
-8.0698e-225
-2.30434e-222
-1.09598e-224
-3.42941e-222
-1.43579e-224
-4.93332e-222
-1.81717e-224
-6.87446e-222
-2.22444e-224
-9.29885e-222
-2.63573e-224
-1.22324e-221
-3.02342e-224
-1.56742e-221
-3.35596e-224
-1.9587e-221
-3.60108e-224
-2.38924e-221
-3.72981e-224
-2.84726e-221
-3.72019e-224
-3.31803e-221
-3.55841e-224
-3.78557e-221
-3.23886e-224
-4.23257e-221
-2.76364e-224
-4.63915e-221
-2.09174e-224
-4.97836e-221
-7.5623e-225
-5.08122e-221
-8.21418e-231
-2.82233e-221
-6.58946e-227
2.14856e-226
-1.46155e-222
2.36781e-221
-7.1923e-218
5.74838e-221
-1.2192e-217
8.18983e-221
-1.34651e-217
1.03363e-220
-1.39166e-217
1.19579e-220
-1.36225e-217
1.29978e-220
-1.28161e-217
1.33802e-220
-1.162e-217
1.31764e-220
-1.02195e-217
1.24838e-220
-8.74626e-218
1.14134e-220
-7.29241e-218
1.00855e-220
-5.92428e-218
8.62036e-221
-4.68766e-218
7.12737e-221
-3.60957e-218
5.69842e-221
-2.7018e-218
4.40205e-221
-1.96307e-218
3.2819e-221
-1.3822e-218
2.35816e-221
-9.4143e-219
1.63011e-221
-6.18931e-219
1.08194e-221
-3.91873e-219
6.87882e-222
-2.38322e-219
4.17855e-222
-1.38827e-219
2.4182e-222
-7.72225e-220
1.32899e-222
-4.08792e-220
6.91154e-223
-2.05185e-220
3.38806e-223
-9.72547e-221
1.55869e-223
-4.33367e-221
6.69739e-224
-1.80649e-221
2.67341e-224
-7.00621e-222
9.85521e-225
-2.51293e-222
3.33317e-225
-8.28012e-223
1.02679e-225
-2.488e-223
2.85771e-226
-6.76185e-224
7.12116e-227
-1.64709e-224
1.57285e-227
-3.55931e-225
3.0444e-228
-6.74574e-226
5.09865e-229
-1.10688e-226
7.28317e-230
-1.54977e-227
8.73133e-231
-1.82138e-228
8.62639e-232
-1.7638e-229
6.88103e-233
-1.37817e-230
4.33047e-234
-8.4853e-232
2.09543e-235
-4.00825e-233
7.57654e-237
-1.40999e-234
1.98482e-238
-3.57457e-236
3.65002e-240
-6.30904e-238
4.58545e-242
-7.50573e-240
3.89989e-244
-5.90723e-242
2.33552e-246
-3.14364e-244
1.10918e-248
-1.2459e-246
4.86434e-251
-4.22021e-249
2.13367e-253
-1.28945e-251
9.48561e-256
-3.22339e-254
4.26555e-258
-3.14262e-257
2.12944e-260
4.49232e-263
1.10068e-262
5.56084e-265
5.67332e-265
4.56025e-267
2.91294e-267
3.22589e-269
1.48827e-269
2.1087e-271
7.55802e-272
1.30977e-273
3.81089e-274
7.83703e-276
1.90563e-276
4.55129e-278
9.43914e-279
2.57636e-280
4.62575e-281
1.42508e-282
2.23999e-283
7.71305e-285
1.07045e-285
4.08726e-287
5.04152e-288
2.12087e-289
2.33685e-290
1.07738e-291
1.0645e-292
5.35518e-294
4.75836e-295
2.60262e-296
2.08391e-297
1.23559e-298
8.92685e-300
5.72372e-301
3.73388e-302
2.58388e-303
1.5222e-304
1.13512e-305
6.0366e-307
4.84515e-308
2.32396e-309
2.00603e-310
8.66627e-312
8.04139e-313
3.1231e-314
3.11467e-315
1.08492e-316
1.16312e-317
3.62313e-319
4.17782e-320
1.16105e-321
1.43279e-322
4.94066e-324
0
0
0
0
0
0
0
0
0
0
0
0
0
0
0
0
0
0
0
0
0
0
0
0
0
0
0
0
0
0
0
0
0
0
0
0
0
0
0
0
0
0
0
0
0
0
0
0
0
0
0
0
0
0
0
0
0
0
0
0
0
0
0
0
0
0
0
0
0
0
0
-6.62048e-322
0
-2.1684e-319
8.89318e-323
-6.77401e-317
2.69118e-320
-2.02836e-314
7.81097e-318
-5.8388e-312
2.17479e-315
-1.62017e-309
5.82417e-313
-4.34456e-307
1.5038e-310
-1.1285e-304
3.75168e-308
-2.84561e-302
9.06185e-306
-6.98007e-300
2.12312e-303
-1.66876e-297
4.83317e-301
-3.89559e-295
1.07069e-298
-8.89502e-293
2.31151e-296
-1.98991e-290
4.86944e-294
-4.36832e-288
1.00209e-291
-9.42415e-286
2.01641e-289
-2.00099e-283
3.97009e-287
-4.18719e-281
7.65278e-285
-8.64683e-279
1.44463e-282
-1.76444e-276
2.67017e-280
-3.56216e-274
4.82917e-278
-7.12371e-272
8.53508e-276
-1.41284e-269
1.47062e-273
-2.78211e-267
2.45947e-271
-5.44551e-265
3.96256e-269
-1.06062e-262
6.06798e-267
-2.05779e-260
8.59168e-265
-3.98131e-258
1.05112e-262
-7.6892e-256
8.59829e-261
-1.43636e-253
-4.75654e-255
-2.34601e-251
-4.26793e-252
-3.30176e-249
-1.23286e-249
-3.93905e-247
-2.45744e-247
-3.91215e-245
-3.74384e-245
-3.17272e-243
-4.46326e-243
-2.061e-241
-4.16411e-241
-1.05411e-239
-3.01484e-239
-4.19322e-238
-1.67676e-237
-1.2906e-236
-7.11584e-236
-3.08075e-235
-2.30305e-234
-5.75394e-234
-5.72109e-233
-8.52031e-233
-1.10398e-231
-1.01596e-231
-1.68087e-230
-9.9176e-231
-2.05446e-229
-8.05465e-230
-2.05197e-228
-5.52628e-229
-1.70341e-227
-3.24881e-228
-1.1941e-226
-1.65813e-227
-7.17269e-226
-7.43524e-227
-3.74175e-225
-2.9609e-226
-1.71595e-224
-1.05735e-225
-6.99388e-224
-3.41542e-225
-2.55858e-223
-1.00581e-224
-8.47546e-223
-2.71972e-224
-2.56257e-222
-6.7954e-224
-7.12324e-222
-1.5778e-223
-1.83212e-221
-3.42207e-223
-4.38551e-221
-6.96633e-223
-9.82152e-221
-1.33708e-222
-2.06804e-220
-2.42969e-222
-4.11321e-220
-4.19544e-222
-7.76074e-220
-6.90584e-222
-1.39442e-219
-1.0865e-221
-2.39392e-219
-1.63788e-221
-3.93818e-219
-2.37102e-221
-6.22472e-219
-3.30264e-221
-9.47691e-219
-4.435e-221
-1.39298e-218
-5.75039e-221
-1.98136e-218
-7.20893e-221
-2.73266e-218
-8.74661e-221
-3.66144e-218
-1.02773e-220
-4.77398e-218
-1.16981e-220
-6.06615e-218
-1.28945e-220
-7.522e-218
-1.37535e-220
-9.11153e-218
-1.4174e-220
-1.0793e-217
-1.40769e-220
-1.25143e-217
-1.34135e-220
-1.42159e-217
-1.21682e-220
-1.58344e-217
-1.03568e-220
-1.72987e-217
-7.83089e-221
-1.85195e-217
-2.84577e-221
-1.88841e-217
-3.53063e-227
-1.0545e-217
-2.80597e-223
3.52066e-223
-2.91443e-219
6.41612e-218
-2.17728e-214
1.54768e-217
-3.44385e-214
2.11102e-217
-3.5546e-214
2.58802e-217
-3.52474e-214
2.9569e-217
-3.38339e-214
3.19266e-217
-3.15088e-214
3.28474e-217
-2.8504e-214
3.24433e-217
-2.51223e-214
3.08896e-217
-2.15979e-214
2.84191e-217
-1.81178e-214
2.52982e-217
-1.48264e-214
2.18035e-217
-1.1829e-214
1.81933e-217
-9.19233e-215
1.46921e-217
-6.94981e-215
1.14737e-217
-5.10476e-215
8.65497e-218
-3.63673e-215
6.29787e-218
-2.50848e-215
4.41285e-218
-1.67166e-215
2.97171e-218
-1.07387e-215
1.91894e-218
-6.63312e-216
1.18519e-218
-3.92864e-216
6.98163e-219
-2.22441e-216
3.91023e-219
-1.20003e-216
2.07496e-219
-6.14594e-217
1.0392e-219
-2.97625e-217
4.89116e-220
-1.35682e-217
2.15322e-220
-5.79477e-218
8.8196e-221
-2.30615e-218
3.34169e-221
-8.50171e-219
1.1637e-221
-2.88439e-219
3.69801e-222
-8.9409e-220
1.06386e-222
-2.51182e-220
2.74617e-223
-6.33827e-221
6.29763e-224
-1.4222e-221
1.26877e-224
-2.80576e-222
2.21766e-225
-4.80536e-223
3.3157e-226
-7.04314e-224
4.17347e-227
-8.69247e-225
4.34354e-228
-8.86947e-226
3.66253e-229
-7.32835e-227
2.44544e-230
-4.78909e-228
1.26013e-231
-2.41052e-229
4.87039e-233
-9.07087e-231
1.36865e-234
-2.46928e-232
2.70738e-236
-4.69456e-234
3.66107e-238
-6.02425e-236
3.33606e-240
-5.09727e-238
2.10768e-242
-2.87738e-240
1.02797e-244
-1.17839e-242
4.53011e-247
-4.02543e-245
1.98465e-249
-1.23088e-247
8.81175e-252
-3.08308e-250
3.95966e-254
-3.07699e-253
1.9789e-256
5.5558e-259
1.02617e-258
6.94772e-261
5.30645e-261
5.72657e-263
2.73351e-263
4.06791e-265
1.40121e-265
2.66935e-267
7.1396e-268
1.66411e-269
3.612e-270
9.99289e-272
1.81229e-272
5.82369e-274
9.00737e-275
3.30812e-276
4.42931e-277
1.83621e-278
2.15228e-279
9.97278e-281
1.03211e-281
5.30324e-283
4.87796e-284
2.76156e-285
2.269e-286
1.40784e-287
1.03726e-288
7.02284e-290
4.6531e-291
3.42539e-292
2.04512e-293
1.63206e-294
8.7923e-296
7.58769e-297
3.69095e-298
3.43777e-299
1.51019e-300
1.51574e-301
6.01092e-303
6.49354e-304
2.32262e-305
2.69842e-306
8.69343e-308
1.08569e-308
3.14459e-310
4.22083e-311
1.09648e-312
1.58207e-313
3.67557e-315
5.70358e-316
1.181e-317
1.97258e-318
3.62545e-320
6.52661e-321
1.03754e-322
1.97626e-323
0
0
0
0
0
0
0
0
0
0
0
0
0
0
0
0
0
0
0
0
0
0
0
0
0
0
0
0
0
0
0
0
0
0
0
0
0
0
0
0
0
0
0
0
0
0
0
0
0
0
0
0
0
0
0
0
0
0
0
0
0
0
0
0
-4.94066e-323
0
-1.76826e-320
9.88131e-324
-6.04998e-318
3.43376e-321
-1.97074e-315
1.08902e-318
-6.13349e-313
3.29178e-316
-1.82973e-310
9.51831e-314
-5.24748e-308
2.64033e-311
-1.45071e-305
7.04461e-309
-3.87588e-303
1.81216e-306
-1.00308e-300
4.50428e-304
-2.52016e-298
1.08397e-301
-6.1594e-296
2.53038e-299
-1.46726e-293
5.73938e-297
-3.41294e-291
1.26687e-294
-7.76526e-289
2.72523e-292
-1.73103e-286
5.72035e-290
-3.78669e-284
1.17294e-287
-8.14087e-282
2.35168e-285
-1.72253e-279
4.61367e-283
-3.59209e-277
8.86157e-281
-7.39254e-275
1.66683e-278
-1.50337e-272
3.06994e-276
-3.02488e-270
5.53261e-274
-6.029e-268
9.74303e-272
-1.19176e-265
1.67253e-269
-2.33904e-263
2.78673e-267
-4.56328e-261
4.4727e-265
-8.85899e-259
6.82129e-263
-1.71327e-256
9.61507e-261
-3.30413e-254
1.16974e-258
-6.36109e-252
9.45225e-257
-1.18166e-249
-4.20988e-251
-1.91171e-247
-3.62311e-248
-2.65294e-245
-1.03086e-245
-3.10459e-243
-2.01937e-243
-3.0068e-241
-3.00925e-241
-2.36273e-239
-3.48878e-239
-1.47732e-237
-3.14499e-237
-7.22779e-236
-2.18543e-235
-2.73618e-234
-1.15952e-233
-7.98658e-233
-4.67128e-232
-1.80499e-231
-1.43083e-230
-3.19169e-230
-3.35973e-229
-4.47973e-229
-6.13038e-228
-5.07282e-228
-8.83916e-227
-4.71355e-227
-1.02535e-225
-3.65305e-226
-9.74325e-225
-2.39798e-225
-7.71562e-224
-1.35225e-224
-5.17356e-223
-6.63599e-224
-2.98038e-222
-2.86768e-223
-1.49473e-221
-1.10297e-222
-6.60537e-221
-3.81207e-222
-2.60007e-220
-1.19407e-221
-9.20543e-220
-3.41601e-221
-2.9569e-219
-8.98814e-221
-8.68474e-219
-2.18883e-220
-2.34905e-218
-4.96125e-220
-5.88868e-218
-1.05209e-219
-1.37602e-217
-2.09717e-219
-3.01306e-217
-3.94657e-219
-6.21237e-217
-7.03976e-219
-1.21146e-216
-1.19453e-218
-2.24378e-216
-1.93411e-218
-3.96172e-216
-2.99626e-218
-6.69025e-216
-4.45201e-218
-1.08373e-215
-6.35886e-218
-1.68841e-215
-8.74816e-218
-2.53633e-215
-1.16138e-217
-3.68221e-215
-1.49005e-217
-5.17791e-215
-1.85003e-217
-7.06646e-215
-2.22478e-217
-9.37722e-215
-2.59278e-217
-1.21183e-214
-2.92905e-217
-1.52724e-214
-3.20673e-217
-1.87953e-214
-3.39993e-217
-2.26124e-214
-3.48583e-217
-2.66253e-214
-3.44657e-217
-3.0713e-214
-3.27126e-217
-3.47362e-214
-2.95752e-217
-3.85406e-214
-2.51095e-217
-4.19647e-214
-1.89607e-217
-4.48132e-214
-6.928e-218
-4.5637e-214
-9.82591e-224
-2.56148e-214
-7.7831e-220
5.31525e-220
-4.68387e-216
1.19873e-214
-4.31891e-211
2.93246e-214
-6.77061e-211
3.95553e-214
-6.79431e-211
4.7899e-214
-6.58709e-211
5.4291e-214
-6.23985e-211
5.83807e-214
-5.7716e-211
6.00893e-214
-5.21448e-211
5.95141e-214
-4.60393e-211
5.69152e-214
-3.97325e-211
5.26638e-214
-3.35099e-211
4.72024e-214
-2.76044e-211
4.10019e-214
-2.2194e-211
3.45143e-214
-1.73974e-211
2.81434e-214
-1.32804e-211
2.22121e-214
-9.85803e-212
1.69489e-214
-7.10397e-212
1.24871e-214
-4.96112e-212
8.86738e-215
-3.35054e-212
6.05791e-215
-2.18349e-212
3.97256e-215
-1.36961e-212
2.49435e-215
-8.24666e-213
1.49549e-215
-4.75225e-213
8.53489e-216
-2.61239e-213
4.62073e-216
-1.36501e-213
2.36414e-216
-6.75282e-214
1.1383e-216
-3.14922e-214
5.13378e-217
-1.3779e-214
2.15764e-217
-5.62664e-215
8.40234e-218
-2.13192e-215
3.01265e-218
-7.4472e-216
9.87573e-219
-2.38133e-216
2.9367e-219
-6.91529e-217
7.85274e-220
-1.80769e-217
1.86984e-220
-4.21177e-218
3.92138e-221
-8.64989e-219
7.15415e-222
-1.54644e-219
1.11974e-222
-2.37304e-220
1.48007e-223
-3.07608e-221
1.62304e-224
-3.30789e-222
1.44715e-225
-2.89095e-223
1.02557e-226
-2.00605e-224
5.63103e-228
-1.07647e-225
2.32811e-229
-4.33638e-227
7.02472e-231
-1.26875e-228
1.49669e-232
-2.60158e-230
2.18278e-234
-3.60778e-232
2.1379e-236
-3.292e-234
1.43232e-238
-1.98132e-236
7.21582e-241
-8.43819e-239
3.20501e-243
-2.91901e-241
1.40369e-245
-8.95009e-244
6.22762e-248
-2.25214e-246
2.79771e-250
-2.33217e-249
1.39953e-252
4.84205e-255
7.28618e-255
6.14686e-257
3.78288e-257
5.10177e-259
1.95656e-259
3.64381e-261
1.00704e-261
2.40276e-263
5.15231e-264
1.50485e-265
2.61745e-266
9.07709e-268
1.31879e-268
5.31336e-270
6.58233e-271
3.03148e-272
3.25062e-273
1.69004e-274
1.58632e-275
9.21927e-277
7.64006e-278
4.92422e-279
3.62661e-280
2.57558e-281
1.69435e-282
1.3189e-283
7.77992e-285
6.60868e-286
3.50562e-287
3.2379e-288
1.54771e-289
1.5497e-290
6.68398e-292
7.23753e-293
2.81868e-294
3.29411e-295
1.15858e-296
1.45909e-297
4.63275e-299
6.27978e-300
1.79842e-301
2.62175e-302
6.76291e-304
1.05978e-304
2.45781e-306
4.13945e-307
8.6107e-309
1.55889e-309
2.90018e-311
5.64674e-312
9.3632e-314
1.96226e-314
2.88826e-316
6.52314e-317
8.48256e-319
2.06791e-319
2.36163e-321
6.22523e-322
4.94066e-324
0
0
0
0
0
0
0
0
0
0
0
0
0
0
0
0
0
0
0
0
0
0
0
0
0
0
0
0
0
0
0
0
0
0
0
0
0
0
0
0
0
0
0
0
0
0
0
0
0
0
0
0
0
0
0
0
0
0
0
-9.28843e-322
0
-3.52417e-319
2.66795e-322
-1.26534e-316
9.29337e-320
-4.30851e-314
3.08488e-317
-1.39676e-311
9.73137e-315
-4.32643e-309
2.92745e-312
-1.28455e-306
8.42455e-310
-3.66662e-304
2.32585e-307
-1.00892e-301
6.17623e-305
-2.68301e-299
1.5813e-302
-6.9115e-297
3.91211e-300
-1.72847e-294
9.37102e-298
-4.20518e-292
2.17744e-295
-9.97189e-290
4.91617e-293
-2.30907e-287
1.0802e-290
-5.23017e-285
2.31309e-288
-1.16073e-282
4.83325e-286
-2.52792e-280
9.86562e-284
-5.41091e-278
1.96911e-281
-1.13992e-275
3.84594e-279
-2.36689e-273
7.35428e-277
-4.85026e-271
1.37717e-274
-9.82184e-269
2.52514e-272
-1.9679e-266
4.53059e-270
-3.90594e-264
7.94286e-268
-7.68899e-262
1.3573e-265
-1.50291e-259
2.25108e-263
-2.92014e-257
3.59612e-261
-5.64621e-255
5.45744e-259
-1.08758e-252
7.64973e-257
-2.08916e-250
9.23846e-255
-4.00626e-248
7.3436e-253
-7.39066e-246
-2.86741e-247
-1.18234e-243
-2.34488e-244
-1.61469e-241
-6.55015e-242
-1.84943e-239
-1.25755e-239
-1.74245e-237
-1.82815e-237
-1.32322e-235
-2.0554e-235
-7.94208e-234
-1.78515e-233
-3.70715e-232
-1.18718e-231
-1.33244e-230
-5.99235e-230
-3.68132e-229
-2.28633e-228
-7.86587e-228
-6.61523e-227
-1.31547e-226
-1.46624e-225
-1.74875e-225
-2.52736e-224
-1.8796e-224
-3.44856e-223
-1.66172e-223
-3.79468e-222
-1.22856e-222
-3.42934e-221
-7.71374e-222
-2.58985e-220
-4.17152e-221
-1.66063e-219
-1.96811e-220
-9.17285e-219
-8.19582e-220
-4.42235e-218
-3.04444e-219
-1.88309e-217
-1.01832e-218
-7.15844e-217
-3.09305e-218
-2.45268e-216
-8.59615e-218
-7.63933e-216
-2.20093e-217
-2.17971e-215
-5.22408e-217
-5.73695e-215
-1.15597e-216
-1.40174e-214
-2.39671e-216
-3.1977e-214
-4.67767e-216
-6.84589e-214
-8.63026e-216
-1.38202e-213
-1.51107e-215
-2.64231e-213
-2.51959e-215
-4.80372e-213
-4.01319e-215
-8.33476e-213
-6.12221e-215
-1.38464e-212
-8.9667e-215
-2.20871e-212
-1.26369e-214
-3.39195e-212
-1.71711e-214
-5.02772e-212
-2.25367e-214
-7.20937e-212
-2.8612e-214
-1.00227e-211
-3.51813e-214
-1.35352e-211
-4.19321e-214
-1.77877e-211
-4.84691e-214
-2.27832e-211
-5.43463e-214
-2.8479e-211
-5.90983e-214
-3.4787e-211
-6.22859e-214
-4.15716e-211
-6.35259e-214
-4.86586e-211
-6.25217e-214
-5.58378e-211
-5.91058e-214
-6.28647e-211
-5.32659e-214
-6.94775e-211
-4.51181e-214
-7.54057e-211
-3.40279e-214
-8.0328e-211
-1.25014e-214
-8.16815e-211
-2.02648e-220
-4.60833e-211
-1.59907e-216
7.20703e-217
-6.36718e-213
1.74949e-211
-6.46441e-208
4.33447e-211
-1.01953e-207
5.81954e-211
-1.01094e-207
7.0013e-211
-9.68748e-208
7.90169e-211
-9.10929e-208
8.48829e-211
-8.39826e-208
8.74787e-211
-7.58669e-208
8.69053e-211
-6.71284e-208
8.34793e-211
-5.81569e-208
7.76788e-211
-4.93069e-208
7.00895e-211
-4.08797e-208
6.13507e-211
-3.31148e-208
5.20894e-211
-2.61793e-208
4.28805e-211
-2.01735e-208
3.41981e-211
-1.51309e-208
2.63929e-211
-1.10278e-208
1.96856e-211
-7.79633e-209
1.4166e-211
-5.33549e-209
9.81693e-212
-3.52694e-209
6.537e-212
-2.24641e-209
4.17247e-212
-1.37494e-209
2.54588e-212
-8.06332e-210
1.48043e-212
-4.51624e-210
8.17663e-213
-2.40736e-210
4.27347e-213
-1.21654e-210
2.1048e-213
-5.80339e-211
9.72476e-214
-2.60122e-211
4.19359e-214
-1.08985e-211
1.6784e-214
-4.24395e-212
6.19587e-215
-1.52633e-212
2.09512e-215
-5.03455e-213
6.43975e-216
-1.51121e-213
1.78383e-216
-4.09231e-214
4.41043e-217
-9.90076e-215
9.62862e-218
-2.11682e-215
1.83367e-218
-3.95071e-216
3.0047e-219
-6.34768e-217
4.17127e-220
-8.64319e-218
4.82056e-221
-9.79717e-219
4.54617e-222
-9.05893e-220
3.42084e-223
-6.67702e-221
2.00234e-224
-3.82167e-222
8.86154e-226
-1.64908e-223
2.87352e-227
-5.19021e-225
6.60223e-229
-1.1492e-226
1.04031e-230
-1.72521e-228
1.09849e-232
-1.70248e-230
7.84349e-235
-1.09778e-232
4.1068e-237
-4.89379e-235
1.84546e-239
-1.72238e-237
8.09049e-242
-5.30634e-240
3.58979e-244
-1.34435e-242
1.61352e-246
-1.45577e-245
8.08166e-249
3.27718e-251
4.22839e-251
4.24323e-253
2.20636e-253
3.55331e-255
1.14695e-255
2.55533e-257
5.93356e-258
1.69536e-259
3.0515e-260
1.06798e-261
1.55829e-262
6.4784e-264
7.8927e-265
3.81336e-266
3.96032e-267
2.18774e-268
1.96624e-269
1.22642e-270
9.6472e-272
6.72737e-273
4.6716e-274
3.61326e-275
2.2297e-276
1.90046e-277
1.04748e-278
9.78642e-280
4.8365e-281
4.93139e-282
2.19157e-283
2.4298e-284
9.73041e-286
1.16956e-286
4.22615e-288
5.49348e-289
1.79243e-290
2.51475e-291
7.41015e-293
1.12035e-293
2.98031e-295
4.85005e-296
1.16373e-297
2.03675e-298
4.40201e-300
8.28174e-301
1.60929e-302
3.25402e-303
5.67167e-305
1.23277e-305
1.92175e-307
4.49226e-308
6.24176e-310
1.57051e-310
1.93707e-312
5.25256e-313
5.72361e-315
1.6753e-315
1.60392e-317
5.07809e-318
4.24402e-320
1.457e-320
1.03754e-322
3.95253e-323
0
0
0
0
0
0
0
0
0
0
0
0
0
0
0
0
0
0
0
0
0
0
0
0
0
0
0
0
0
0
0
0
0
0
0
0
0
0
0
0
0
0
0
0
0
0
0
0
0
0
0
0
-3.45846e-323
0
-1.40759e-320
1.4822e-323
-5.66188e-318
5.25686e-321
-2.13979e-315
1.94405e-318
-7.63611e-313
6.77495e-316
-2.58439e-310
2.23522e-313
-8.32781e-308
7.00841e-311
-2.56407e-305
2.0956e-308
-7.56752e-303
5.99443e-306
-2.14727e-300
1.64505e-303
-5.8737e-298
4.34245e-301
-1.55282e-295
1.10523e-298
-3.97683e-293
2.71825e-296
-9.88797e-291
6.47321e-294
-2.39181e-288
1.49536e-291
-5.63941e-286
3.35664e-289
-1.29845e-283
7.33287e-287
-2.9245e-281
1.56124e-284
-6.45407e-279
3.24371e-282
-1.39782e-276
6.58373e-280
-2.97552e-274
1.30668e-277
-6.23435e-272
2.53785e-275
-1.28748e-269
4.82589e-273
-2.62415e-267
8.98662e-271
-5.28564e-265
1.63856e-268
-1.05344e-262
2.92349e-266
-2.07995e-260
5.09692e-264
-4.07321e-258
8.6611e-262
-7.92068e-256
1.42827e-259
-1.53114e-253
2.26838e-257
-2.94558e-251
3.4213e-255
-5.64542e-249
4.76211e-253
-1.07907e-246
5.69764e-251
-2.05911e-244
4.43395e-249
-3.76598e-242
-1.60828e-243
-5.94691e-240
-1.23801e-240
-7.97659e-238
-3.38542e-238
-8.92217e-236
-6.35451e-236
-8.15699e-234
-8.98886e-234
-5.97016e-232
-9.774e-232
-3.43032e-230
-8.15481e-230
-1.52362e-228
-5.17519e-228
-5.18757e-227
-2.47843e-226
-1.35412e-225
-8.93551e-225
-2.73153e-224
-2.43778e-223
-4.31596e-223
-5.09336e-222
-5.43016e-222
-8.28565e-221
-5.53677e-221
-1.06915e-219
-4.65562e-220
-1.11542e-218
-3.28271e-219
-9.58367e-218
-1.97107e-218
-6.90062e-217
-1.02208e-217
-4.2306e-216
-4.6356e-217
-2.24041e-215
-1.86012e-216
-1.03825e-214
-6.6728e-216
-4.25973e-214
-2.15999e-215
-1.56373e-213
-6.3617e-215
-5.1849e-213
-1.71757e-214
-1.56591e-212
-4.27949e-214
-4.34044e-212
-9.9008e-214
-1.11172e-211
-2.1388e-213
-2.64765e-211
-4.33565e-213
-5.89655e-211
-8.28509e-213
-1.23428e-210
-1.49863e-212
-2.43969e-210
-2.57557e-212
-4.57315e-210
-4.22004e-212
-8.16088e-210
-6.61215e-212
-1.39141e-209
-9.93333e-212
-2.27391e-209
-1.43419e-211
-3.57205e-209
-1.9945e-211
-5.40781e-209
-2.67683e-211
-7.90974e-209
-3.47338e-211
-1.12028e-208
-4.36347e-211
-1.53978e-208
-5.31347e-211
-2.05763e-208
-6.27672e-211
-2.67801e-208
-7.19589e-211
-3.39966e-208
-8.00821e-211
-4.21491e-208
-8.64993e-211
-5.11021e-208
-9.06225e-211
-6.06606e-208
-9.19433e-211
-7.05826e-208
-9.0076e-211
-8.05748e-208
-8.48226e-211
-9.03003e-208
-7.6203e-211
-9.94051e-208
-6.43986e-211
-1.07548e-207
-4.85024e-211
-1.14297e-207
-1.79128e-211
-1.16051e-207
-3.31553e-217
-6.58072e-208
-2.60673e-213
8.65757e-214
-7.50217e-210
2.10742e-208
-7.83142e-205
5.25751e-208
-1.24565e-204
7.03737e-208
-1.22922e-204
8.44088e-208
-1.17158e-204
9.51521e-208
-1.09807e-204
1.02272e-207
-1.01137e-204
1.0562e-207
-9.14594e-205
1.05289e-207
-8.11466e-205
1.01607e-207
-7.05936e-205
9.50861e-208
-6.01726e-205
8.63709e-208
-5.02111e-205
7.61805e-208
-4.09783e-205
6.52352e-208
-3.26698e-205
5.42121e-208
-2.54118e-205
4.36856e-208
-1.9257e-205
3.40978e-208
-1.41934e-205
2.57456e-208
-1.01574e-205
1.87733e-208
-7.04348e-206
1.31961e-208
-4.72248e-206
8.92225e-209
-3.05402e-206
5.7888e-209
-1.89999e-206
3.59438e-209
-1.13386e-206
2.12951e-209
-6.47016e-207
1.19983e-209
-3.51816e-207
6.40542e-210
-1.81598e-207
3.22705e-210
-8.86101e-208
1.52736e-210
-4.0685e-208
6.75762e-211
-1.74888e-208
2.77954e-211
-6.99882e-209
1.05639e-211
-2.59144e-209
3.68472e-212
-8.81703e-210
1.17066e-212
-2.73558e-210
3.35919e-213
-7.67389e-211
8.62407e-214
-1.92785e-211
1.95998e-214
-4.29103e-212
3.89642e-215
-8.36052e-213
6.68486e-216
-1.40656e-213
9.74774e-217
-2.01197e-214
1.18736e-217
-2.40423e-215
1.18465e-218
-2.35248e-216
9.46783e-220
-1.84231e-217
5.91052e-221
-1.12518e-218
2.80163e-222
-5.20379e-220
9.77106e-224
-1.76316e-221
2.42367e-225
-4.22007e-223
4.13305e-227
-6.86915e-225
4.71806e-229
-7.35031e-227
3.60743e-231
-5.1011e-229
1.97562e-233
-2.39602e-231
9.02148e-236
-8.62545e-234
3.96482e-238
-2.67608e-236
1.76085e-240
-6.83931e-239
7.92505e-243
-7.79284e-242
3.97549e-245
1.82149e-247
2.09246e-247
2.41755e-249
1.09844e-249
2.04653e-251
5.74497e-252
1.48397e-253
2.99039e-254
9.91847e-256