/*--------------------------------*- C++ -*----------------------------------*\
| =========                 |                                                 |
| \\      /  F ield         | OpenFOAM: The Open Source CFD Toolbox           |
|  \\    /   O peration     | Version:  2412                                  |
|   \\  /    A nd           | Website:  www.openfoam.com                      |
|    \\/     M anipulation  |                                                 |
\*---------------------------------------------------------------------------*/
FoamFile
{
    version     2.0;
    format      ascii;
    arch        "LSB;label=32;scalar=64";
    class       volScalarField;
    location    "1.04";
    object      alpha.water;
}
// * * * * * * * * * * * * * * * * * * * * * * * * * * * * * * * * * * * * * //

dimensions      [0 0 0 0 0 0 0];

internalField   nonuniform List<scalar> 
40000
(
5.83573e-223
1.54496e-220
2.69898e-218
4.09109e-218
5.05242e-218
5.08305e-218
4.76043e-218
4.23594e-218
3.62742e-218
3.02719e-218
2.46437e-218
1.95469e-218
1.51066e-218
1.13614e-218
8.30287e-219
5.88536e-219
4.03753e-219
2.67594e-219
1.70947e-219
1.05e-219
6.18393e-220
3.48162e-220
1.86777e-220
9.51388e-221
4.58375e-221
2.08024e-221
8.85243e-222
3.51466e-222
1.29465e-222
4.39703e-223
1.36743e-223
3.86432e-224
9.84004e-225
2.23673e-225
4.49169e-226
7.87599e-227
1.19009e-227
1.52688e-228
1.63581e-229
1.4362e-230
1.01192e-231
5.5891e-233
2.35765e-234
7.38093e-236
1.66308e-237
2.61562e-239
2.8032e-241
2.04518e-243
1.0717e-245
4.57355e-248
1.80915e-250
6.97342e-253
2.61095e-255
9.29288e-258
3.85081e-260
1.72749e-262
7.73608e-265
3.45476e-267
1.5369e-269
6.80368e-272
2.99386e-274
1.30805e-276
5.66794e-279
2.43287e-281
1.03319e-283
4.33579e-286
1.79565e-288
7.32923e-291
2.94428e-293
1.1624e-295
4.50332e-298
1.70935e-300
6.34651e-303
2.30087e-305
8.13034e-308
2.79476e-310
9.32638e-313
3.00406e-315
0
0
0
0
0
0
0
0
0
0
0
0
0
0
0
0
0
0
0
0
0
0
0
0
0
0
0
0
0
0
0
0
0
0
0
0
0
0
0
0
0
0
0
3.59539e-315
1.15227e-312
3.55637e-310
1.06327e-307
3.08619e-305
8.71431e-303
2.39836e-300
6.44548e-298
1.69436e-295
4.36397e-293
1.10296e-290
2.73962e-288
6.69731e-286
1.61357e-283
3.83646e-281
9.01337e-279
2.09506e-276
4.82368e-274
1.10139e-271
2.4968e-269
5.62583e-267
1.26133e-264
2.81693e-262
6.27327e-260
1.39455e-257
3.09774e-255
6.58091e-253
1.18175e-250
1.80076e-248
2.31461e-246
2.48061e-244
2.18323e-242
1.55185e-240
8.76988e-239
3.89077e-237
1.34481e-235
3.61907e-234
7.62762e-233
1.27309e-231
1.70672e-230
1.86638e-229
1.69041e-228
1.28754e-227
8.36843e-227
4.70479e-226
2.31646e-225
1.00991e-224
3.9377e-224
1.3857e-223
4.4374e-223
1.30246e-222
3.52601e-222
8.85185e-222
2.07125e-221
4.54159e-221
9.38277e-221
1.83564e-220
3.4151e-220
6.06151e-220
1.02919e-219
1.6756e-219
2.6213e-219
3.94868e-219
5.74121e-219
8.07719e-219
1.10242e-218
1.46286e-218
1.89048e-218
2.38163e-218
2.92632e-218
3.50915e-218
4.1104e-218
4.70904e-218
5.28348e-218
5.8075e-218
6.2446e-218
6.37236e-218
3.51111e-218
7.26471e-224
5.1801e-219
1.0655e-214
2.58098e-214
3.2592e-214
3.62235e-214
3.64501e-214
3.46581e-214
3.1427e-214
2.74964e-214
2.33623e-214
1.93179e-214
1.55519e-214
1.21874e-214
9.28926e-215
6.87849e-215
4.94087e-215
3.43675e-215
2.31066e-215
1.49834e-215
9.34877e-216
5.59764e-216
3.20707e-216
1.75267e-216
9.10517e-217
4.47968e-217
2.07872e-217
9.05683e-218
3.6865e-218
1.39415e-218
4.8686e-219
1.55941e-219
4.54712e-220
1.19711e-220
2.81941e-221
5.87947e-222
1.07315e-222
1.69232e-223
2.27234e-224
2.55569e-225
2.36362e-226
1.76072e-227
1.03219e-228
4.64034e-230
1.55479e-231
3.76557e-233
6.39238e-235
7.41935e-237
5.86829e-239
3.3259e-241
1.53502e-243
6.66264e-246
2.90327e-248
1.28118e-250
5.71142e-253
2.82793e-255
1.45179e-257
7.43992e-260
3.80199e-262
1.93541e-264
9.80365e-267
4.93606e-269
2.46754e-271
1.22332e-273
6.00752e-276
2.91881e-278
1.4013e-280
6.63915e-283
3.10005e-285
1.42462e-287
6.43392e-290
2.85133e-292
1.23803e-294
5.25786e-297
2.18038e-299
8.8126e-302
3.46486e-304
1.32246e-306
4.8893e-309
1.74686e-311
6.01598e-314
1.96948e-316
0
0
0
0
0
0
0
0
0
0
0
0
0
0
0
0
0
0
0
0
0
0
0
0
0
0
0
0
0
0
0
0
0
0
0
0
0
1.47731e-316
4.28854e-314
1.29448e-311
3.7574e-309
1.05133e-306
2.84276e-304
7.44586e-302
1.89326e-299
4.68292e-297
1.12895e-294
2.65755e-292
6.11902e-290
1.38037e-287
3.05563e-285
6.64742e-283
1.42324e-280
3.00317e-278
6.25365e-276
1.28677e-273
2.61955e-271
5.28242e-269
1.0564e-266
2.09758e-264
4.13985e-262
8.13024e-260
1.59053e-257
3.10283e-255
6.0423e-253
1.17576e-250
2.21772e-248
3.66807e-246
5.24972e-244
6.40259e-242
6.54105e-240
5.49429e-238
3.72325e-236
2.00064e-234
8.4146e-233
2.75153e-231
6.99965e-230
1.39512e-228
2.20492e-227
2.80419e-226
2.91646e-225
2.51986e-224
1.8364e-223
1.14515e-222
6.19214e-222
2.93875e-221
1.2375e-220
4.66961e-220
1.59303e-219
4.95303e-219
1.4137e-218
3.72789e-218
9.1344e-218
2.09063e-217
4.49223e-217
9.10697e-217
1.74958e-216
3.19804e-216
5.58076e-216
9.32298e-216
1.49489e-215
2.30643e-215
3.43191e-215
4.93615e-215
6.87747e-215
9.30183e-215
1.2235e-214
1.56762e-214
1.95879e-214
2.38919e-214
2.84704e-214
3.31761e-214
3.78494e-214
4.23173e-214
4.63809e-214
4.97707e-214
5.07925e-214
2.82122e-214
6.58792e-220
1.46082e-215
7.18886e-211
1.2186e-210
1.34594e-210
1.39108e-210
1.36172e-210
1.28115e-210
1.16164e-210
1.02169e-210
8.7445e-211
7.29142e-211
5.92391e-211
4.68775e-211
3.60997e-211
2.70238e-211
1.96373e-211
1.38286e-211
9.42017e-212
6.19424e-212
3.92262e-212
2.38612e-212
1.39031e-212
7.73582e-213
4.09645e-213
2.05691e-213
9.75367e-214
4.34841e-214
1.81368e-214
7.03883e-215
2.52662e-215
8.33291e-216
2.5066e-216
6.82127e-217
1.66416e-217
3.60301e-218
6.84435e-219
1.12627e-219
1.58253e-220
1.86826e-221
1.8196e-222
1.43235e-223
8.90492e-225
4.261e-226
1.52507e-227
3.95874e-229
7.22067e-231
9.00614e-233
7.61221e-235
4.53493e-237
2.14458e-239
9.37447e-242
4.10261e-244
1.82155e-246
8.18898e-249
4.0911e-251
2.11838e-253
1.09496e-255
5.64386e-258
2.89785e-260
1.48058e-262
7.51913e-265
3.79138e-267
1.89593e-269
9.39146e-272
4.60258e-274
2.22888e-276
1.0652e-278
5.01707e-281
2.32567e-283
1.05948e-285
4.73628e-288
2.07441e-290
8.88693e-293
3.71753e-295
1.51568e-297
6.01135e-300
2.31449e-302
8.63193e-305
3.11109e-307
1.08088e-309
3.61009e-312
1.15703e-314
4.92419e-317
0
0
0
0
0
0
0
0
0
0
0
0
0
0
0
0
0
0
0
0
0
0
0
0
0
0
0
0
0
0
0
0
0
0
6.59842e-315
2.16089e-312
6.74963e-310
2.02081e-307
5.81634e-305
1.61374e-302
4.32686e-300
1.12378e-297
2.83342e-295
6.94949e-293
1.6613e-290
3.87783e-288
8.85375e-286
1.98053e-283
4.34742e-281
9.37845e-279
1.99117e-276
4.16642e-274
8.60351e-272
1.75552e-269
3.54403e-267
7.08723e-265
1.40557e-262
2.76774e-260
5.41729e-258
1.05511e-255
2.0471e-253
3.96063e-251
7.6493e-249
1.47624e-246
2.75841e-244
4.51105e-242
6.36327e-240
7.61629e-238
7.59649e-236
6.19302e-234
4.04807e-232
2.08538e-230
8.3638e-229
2.59797e-227
6.26504e-226
1.1833e-224
1.77374e-223
2.14321e-222
2.12232e-221
1.75037e-220
1.22089e-219
7.3049e-219
3.79892e-218
1.73783e-217
7.06878e-217
2.5817e-216
8.5403e-216
2.57921e-215
7.16259e-215
1.84073e-214
4.40305e-214
9.85488e-214
2.074e-213
4.12323e-213
7.77666e-213
1.39681e-212
2.39732e-212
3.94276e-212
6.23056e-212
9.48392e-212
1.39377e-211
1.98218e-211
2.73343e-211
3.66204e-211
4.77429e-211
6.06601e-211
7.52124e-211
9.11001e-211
1.07906e-210
1.25109e-210
1.42115e-210
1.58289e-210
1.72922e-210
1.8512e-210
1.8874e-210
1.05393e-210
2.80496e-216
2.91262e-212
2.17592e-207
3.44173e-207
3.55269e-207
3.52287e-207
3.38165e-207
3.14935e-207
2.84913e-207
2.51122e-207
2.15905e-207
1.81127e-207
1.48232e-207
1.18274e-207
9.19193e-208
6.95022e-208
5.10566e-208
3.63785e-208
2.50962e-208
1.6727e-208
1.07475e-208
6.63995e-209
3.93365e-209
2.22787e-209
1.20228e-209
6.15973e-210
2.98418e-210
1.36109e-210
5.81625e-211
2.3162e-211
8.54523e-212
2.90173e-212
9.00411e-213
2.53274e-213
6.40063e-214
1.43879e-214
2.84477e-215
4.88546e-216
7.18488e-217
8.90541e-218
9.13649e-219
7.60246e-220
5.01439e-221
2.55511e-222
9.7752e-224
2.72181e-225
5.34008e-227
7.16917e-229
6.49208e-231
4.08009e-233
1.98147e-235
8.7033e-238
3.80415e-240
1.6868e-242
7.57751e-245
3.78964e-247
1.96856e-249
1.02081e-251
5.27871e-254
2.71923e-256
1.3939e-258
7.10248e-261
3.5933e-263
1.80295e-265
8.96124e-268
4.40679e-270
2.14143e-272
1.02696e-274
4.85387e-277
2.25792e-279
1.03226e-281
4.63102e-284
2.03557e-286
8.75196e-289
3.67433e-291
1.50353e-293
5.985e-296
2.31284e-298
8.65776e-301
3.13204e-303
1.09224e-305
3.66178e-308
1.17672e-310
3.6128e-313
1.03406e-315
0
0
0
0
0
0
0
0
0
0
0
0
0
0
0
0
0
0
0
0
0
0
0
0
0
0
0
0
0
0
0
4.92478e-316
1.76233e-313
6.02886e-311
1.9636e-308
6.11049e-306
1.82264e-303
5.22654e-301
1.44476e-298
3.85956e-296
9.98754e-294
2.50904e-291
6.13167e-289
1.46053e-286
3.39701e-284
7.72841e-282
1.72269e-279
3.7682e-277
8.10065e-275
1.71392e-272
3.57397e-270
7.35496e-268
1.49567e-265
3.00929e-263
5.99778e-261
1.18556e-258
2.32684e-256
4.53944e-254
8.81268e-252
1.70431e-249
3.28688e-247
6.32796e-245
1.21739e-242
2.26216e-240
3.66456e-238
5.09718e-236
5.98463e-234
5.821e-232
4.59827e-230
2.89313e-228
1.42574e-226
5.44186e-225
1.60312e-223
3.66027e-222
6.54533e-221
9.29997e-220
1.0672e-218
1.00594e-217
7.91718e-217
5.28362e-216
3.0325e-215
1.5164e-214
6.68528e-214
2.62647e-213
9.28416e-213
2.97828e-212
8.7379e-212
2.36124e-211
5.91457e-211
1.38114e-210
3.02253e-210
6.2288e-210
1.21414e-209
2.24791e-209
3.96773e-209
6.69848e-209
1.08479e-208
1.68969e-208
2.53777e-208
3.68368e-208
5.17922e-208
7.06733e-208
9.37731e-208
1.21172e-207
1.52697e-207
1.87905e-207
2.26052e-207
2.66153e-207
3.07001e-207
3.47202e-207
3.85216e-207
4.19429e-207
4.47885e-207
4.56061e-207
2.55974e-207
7.77932e-213
4.68043e-209
4.31554e-204
6.76543e-204
6.78974e-204
6.58273e-204
6.23582e-204
5.76803e-204
5.21144e-204
4.60144e-204
3.9713e-204
3.34954e-204
2.75944e-204
2.21877e-204
1.7394e-204
1.32791e-204
9.85818e-205
7.10498e-205
4.96255e-205
3.35205e-205
2.18488e-205
1.37077e-205
8.25561e-206
4.7587e-206
2.61675e-206
1.36777e-206
6.76922e-207
3.15834e-207
1.38264e-207
5.64952e-208
2.14215e-208
7.48934e-209
2.39723e-209
6.96979e-210
1.82455e-210
4.25843e-211
8.7642e-212
1.57095e-212
2.41846e-213
3.14775e-214
3.4026e-215
2.99376e-216
2.09575e-217
1.13783e-218
4.65634e-220
1.39205e-221
2.94155e-223
4.25889e-225
4.1452e-227
2.76247e-229
1.38569e-231
6.13422e-234
2.68028e-236
1.18753e-238
5.333e-241
2.66957e-243
1.39218e-245
7.24784e-248
3.76295e-250
1.94625e-252
1.00173e-254
5.12523e-257
2.60373e-259
1.3119e-261
6.54813e-264
3.23383e-266
1.57819e-268
7.60122e-271
3.60835e-273
1.68591e-275
7.74163e-278
3.4886e-280
1.54031e-282
6.6525e-285
2.80563e-287
1.15332e-289
4.61215e-292
1.7906e-294
6.73419e-297
2.44764e-299
8.57606e-302
2.88886e-304
9.3278e-307
2.87771e-309
8.45271e-312
2.35365e-314
4.92465e-317
0
0
0
0
0
0
0
0
0
0
0
0
0
0
0
0
0
0
0
0
0
0
0
0
0
0
0
0
9.25834e-315
3.51225e-312
1.26088e-309
4.29277e-307
1.39148e-304
4.30954e-302
1.27938e-299
3.65145e-297
1.00464e-294
2.67134e-292
6.88076e-290
1.72062e-287
4.18571e-285
9.92492e-283
2.29802e-280
5.20476e-278
1.15501e-275
2.51533e-273
5.38366e-271
1.13412e-268
2.35476e-266
4.82522e-264
9.77082e-262
1.95763e-259
3.88546e-257
7.64857e-255
1.495e-252
2.90475e-250
5.61647e-248
1.08186e-245
2.07819e-243
3.98529e-241
7.63729e-239
1.4094e-236
2.25778e-234
3.09064e-232
3.5518e-230
3.36085e-228
2.56581e-226
1.54974e-224
7.28656e-223
2.64067e-221
7.36358e-220
1.58958e-218
2.68847e-217
3.61815e-216
3.94103e-215
3.53461e-214
2.65393e-213
1.69411e-212
9.32497e-212
4.48314e-211
1.90468e-210
7.22723e-210
2.47251e-209
7.69141e-209
2.19225e-208
5.76483e-208
1.40749e-207
3.20874e-207
6.86569e-207
1.38536e-206
2.64758e-206
4.81156e-206
8.34574e-206
1.38608e-205
2.21047e-205
3.39393e-205
5.02972e-205
7.21106e-205
1.00236e-204
1.35347e-204
1.77851e-204
2.27776e-204
2.84697e-204
3.47729e-204
4.15522e-204
4.86332e-204
5.58061e-204
6.28266e-204
6.94331e-204
7.53556e-204
8.02721e-204
8.16144e-204
4.60452e-204
1.59809e-209
6.36179e-206
6.45834e-201
1.01859e-200
1.01011e-200
9.67971e-201
9.10214e-201
8.39189e-201
7.58118e-201
6.70824e-201
5.81199e-201
4.92784e-201
4.08587e-201
3.31003e-201
2.617e-201
2.01684e-201
1.51287e-201
1.10275e-201
7.79728e-202
5.33698e-202
3.52857e-202
2.2479e-202
1.37617e-202
8.07268e-203
4.52284e-203
2.4117e-203
1.21921e-203
5.81878e-204
2.60948e-204
1.09397e-204
4.26299e-205
1.53444e-205
5.06622e-206
1.52247e-206
4.12847e-207
1.00048e-207
2.14339e-208
4.01023e-209
6.46319e-210
8.83467e-211
1.00638e-211
9.36507e-213
6.96063e-214
4.02853e-215
1.76461e-216
5.66914e-218
1.29178e-219
2.02062e-221
2.12015e-223
1.50575e-225
7.84961e-228
3.51542e-230
1.53746e-232
6.81218e-235
3.06067e-237
1.53395e-239
8.03895e-242
4.20597e-244
2.19463e-246
1.14085e-248
5.90198e-251
3.03527e-253
1.55002e-255
7.85091e-258
3.93943e-260
1.95592e-262
9.59688e-265
4.6474e-267
2.21825e-269
1.04215e-271
4.81216e-274
2.18067e-276
9.68266e-279
4.20571e-281
1.7839e-283
7.3755e-286
2.96664e-288
1.1585e-290
4.38266e-293
1.60239e-295
5.64796e-298
1.91394e-300
6.21714e-303
1.92967e-305
5.70249e-308
1.59822e-310
4.22953e-313
1.03414e-315
0
0
0
0
0
0
0
0
0
0
0
0
0
0
0
0
0
0
0
0
0
0
0
0
0
3.44766e-316
1.40299e-313
5.64255e-311
2.13218e-308
7.60794e-306
2.57452e-303
8.29496e-301
2.55364e-298
7.53588e-296
2.13806e-293
5.84788e-291
1.54584e-288
3.95858e-286
9.84173e-284
2.38042e-281
5.61213e-279
1.29207e-276
2.90996e-274
6.42158e-272
1.39071e-269
2.96024e-267
6.20206e-265
1.28076e-262
2.61037e-260
5.25776e-258
1.04786e-255
2.0689e-253
4.05155e-251
7.87852e-249
1.52299e-246
2.92992e-244
5.61549e-242
1.07337e-239
2.04828e-237
3.90619e-235
7.14703e-233
1.13019e-230
1.51957e-228
1.70548e-226
1.56605e-224
1.15236e-222
6.66333e-221
2.98135e-219
1.02355e-217
2.69674e-216
5.49618e-215
8.78299e-214
1.11875e-212
1.15606e-211
9.86196e-211
7.06232e-210
4.31144e-209
2.27562e-208
1.05177e-207
4.30597e-207
1.57795e-206
5.22447e-206
1.57596e-205
4.36389e-205
1.11676e-204
2.65773e-204
5.91532e-204
1.23754e-203
2.44501e-203
4.58128e-203
8.17252e-203
1.39297e-202
2.27585e-202
3.57426e-202
5.41002e-202
7.91154e-202
1.12035e-201
1.53967e-201
2.05722e-201
2.6772e-201
3.39831e-201
4.21288e-201
5.10738e-201
6.06232e-201
7.05353e-201
8.05172e-201
9.02322e-201
9.9327e-201
1.07461e-200
1.14201e-200
1.15938e-200
6.57433e-201
2.60481e-206
7.49496e-203
7.82285e-198
1.24432e-197
1.22803e-197
1.17047e-197
1.09705e-197
1.01045e-197
9.13798e-198
8.10792e-198
7.05383e-198
6.01289e-198
5.01778e-198
4.09541e-198
3.26532e-198
2.54013e-198
1.92511e-198
1.41908e-198
1.0157e-198
7.04425e-199
4.72382e-199
3.0555e-199
1.90134e-199
1.13495e-199
6.4783e-200
3.52376e-200
1.81956e-200
8.88237e-201
4.08036e-201
1.755e-201
7.02809e-202
2.60434e-202
8.86919e-203
2.75481e-203
7.73803e-204
1.94705e-204
4.34214e-205
8.48015e-206
1.43089e-206
2.05432e-207
2.46641e-208
2.428e-209
1.91661e-210
1.18298e-211
5.54966e-213
1.9175e-214
4.71667e-216
7.98414e-218
9.05614e-220
6.88692e-222
3.75495e-224
1.70875e-226
7.49124e-229
3.32211e-231
1.49449e-233
7.50101e-236
3.95432e-238
2.08127e-240
1.09255e-242
5.71408e-245
2.97428e-247
1.53912e-249
7.90911e-252
4.03135e-254
2.03577e-256
1.01727e-258
5.02375e-261
2.44876e-263
1.17654e-265
5.5643e-268
2.5866e-270
1.18007e-272
5.27553e-275
2.3072e-277
9.85401e-280
4.10254e-282
1.66175e-284
6.53517e-287
2.48986e-289
9.16856e-292
3.25491e-294
1.11097e-296
3.63508e-299
1.13649e-301
3.38318e-304
9.55182e-307
2.54656e-309
6.37965e-312
1.49207e-314
4.92506e-317
0
0
0
0
0
0
0
0
0
0
0
0
0
0
0
0
0
0
0
0
0
0
3.8908e-315
1.78305e-312
7.61684e-310
3.04047e-307
1.14047e-304
4.03954e-302
1.35701e-299
4.3405e-297
1.3266e-294
3.88672e-292
1.09486e-289
2.97332e-287
7.80432e-285
1.98451e-282
4.8995e-280
1.17685e-277
2.7555e-275
6.30068e-273
1.40941e-270
3.08933e-268
6.64591e-266
1.40527e-263
2.92491e-261
6.0008e-259
1.21516e-256
2.43188e-254
4.81594e-252
9.44881e-250
1.83883e-247
3.55366e-245
6.82753e-243
1.30552e-240
2.48713e-238
4.72572e-236
8.96483e-234
1.69967e-231
3.07804e-229
4.79606e-227
6.32095e-225
6.91281e-223
6.14442e-221
4.34587e-219
2.39903e-217
1.01876e-215
3.30588e-214
8.21496e-213
1.5786e-211
2.38113e-210
2.86869e-209
2.81093e-208
2.28012e-207
1.55698e-206
9.08909e-206
4.59972e-205
2.04362e-204
8.062e-204
2.85311e-203
9.14204e-203
2.67417e-202
7.1939e-202
1.79173e-201
4.15667e-201
9.03227e-201
1.84763e-200
3.57424e-200
6.56603e-200
1.14978e-199
1.92588e-199
3.09538e-199
4.78744e-199
7.14382e-199
1.03097e-198
1.44213e-198
1.95943e-198
2.59063e-198
3.33874e-198
4.20031e-198
5.16485e-198
6.21523e-198
7.32825e-198
8.47597e-198
9.62515e-198
1.07374e-197
1.17735e-197
1.26978e-197
1.3462e-197
1.36472e-197
7.77808e-198
3.51716e-203
7.77399e-200
7.98929e-195
1.2809e-194
1.26236e-194
1.20069e-194
1.12442e-194
1.03628e-194
9.39033e-195
8.35936e-195
7.30515e-195
6.2617e-195
5.25969e-195
4.32512e-195
3.47762e-195
2.73065e-195
2.09083e-195
1.55858e-195
1.12917e-195
7.9346e-196
5.39654e-196
3.54395e-196
2.24139e-196
1.36139e-196
7.91644e-197
4.39222e-197
2.31646e-197
1.15657e-197
5.44207e-198
2.40129e-198
9.88174e-199
3.76962e-199
1.3241e-199
4.25066e-200
1.23675e-200
3.23107e-201
7.50071e-202
1.5291e-202
2.7013e-203
4.07364e-204
5.15524e-205
5.36958e-206
4.50279e-207
2.96502e-208
1.49048e-209
5.54255e-211
1.47328e-212
2.70299e-214
3.3228e-216
2.71778e-218
1.5598e-220
7.24903e-223
3.19133e-225
1.41764e-227
6.3907e-230
3.21271e-232
1.70535e-234
9.03838e-237
4.77806e-239
2.51674e-241
1.31942e-243
6.8772e-246
3.55988e-248
1.82791e-250
9.29952e-253
4.68192e-255
2.32971e-257
1.14428e-259
5.54035e-262
2.64065e-264
1.23716e-266
5.68891e-269
2.56352e-271
1.13014e-273
4.8659e-276
2.04235e-278
8.34053e-281
3.30718e-283
1.27049e-285
4.71752e-288
1.68884e-290
5.81315e-293
1.91822e-295
6.0485e-298
1.81601e-300
5.17142e-303
1.39067e-305
3.51423e-308
8.29873e-311
1.81947e-313
3.44742e-316
0
0
0
0
0
0
0
0
0
0
0
0
0
0
0
0
0
0
0
4.92567e-317
3.93498e-314
1.94606e-311
8.87534e-309
3.75848e-306
1.48734e-303
5.531e-301
1.94231e-298
6.46927e-296
2.0517e-293
6.21778e-291
1.80643e-288
5.04613e-286
1.35903e-283
3.53776e-281
8.92232e-279
2.18488e-276
5.20564e-274
1.20908e-271
2.74265e-269
6.08658e-267
1.32367e-264
2.82539e-262
5.92814e-260
1.22442e-257
2.49295e-255
5.01017e-253
9.9519e-251
1.95622e-248
3.80993e-246
7.36062e-244
1.41224e-241
2.69394e-239
5.11476e-237
9.67586e-235
1.82574e-232
3.4397e-230
6.47714e-228
1.159e-225
1.77598e-223
2.28942e-221
2.43391e-219
2.08863e-217
1.41599e-215
7.44141e-214
2.99143e-212
9.1548e-211
2.14195e-209
3.87599e-208
5.5135e-207
6.27882e-206
5.83146e-205
4.49672e-204
2.92746e-203
1.63392e-202
7.92763e-202
3.38559e-201
1.28695e-200
4.39852e-200
1.36399e-199
3.86906e-199
1.01121e-198
2.45121e-198
5.5437e-198
1.17615e-197
2.35248e-197
4.45598e-197
8.02572e-197
1.3796e-196
2.27099e-196
3.59098e-196
5.4698e-196
8.04661e-196
1.14601e-195
1.58356e-195
2.12728e-195
2.78308e-195
3.55198e-195
4.42874e-195
5.40146e-195
6.45243e-195
7.55803e-195
8.6902e-195
9.81673e-195
1.09013e-194
1.19077e-194
1.28024e-194
1.35396e-194
1.37052e-194
7.85135e-195
4.05174e-200
7.18424e-197
7.07062e-192
1.14013e-191
1.12394e-191
1.06891e-191
1.00165e-191
9.2465e-192
8.40154e-192
7.50729e-192
6.59186e-192
5.68271e-192
4.80517e-192
3.98129e-192
3.22829e-192
2.55865e-192
1.9793e-192
1.492e-192
1.0941e-192
7.7893e-193
5.37277e-193
3.58203e-193
2.30245e-193
1.42291e-193
8.42874e-194
4.76978e-194
2.56917e-194
1.31189e-194
6.32247e-195
2.86184e-195
1.21015e-195
4.75208e-196
1.72156e-196
5.71169e-197
1.7213e-197
4.66896e-198
1.12821e-198
2.40076e-199
4.44042e-200
7.03386e-201
9.38338e-202
1.03422e-202
9.21505e-204
6.47557e-205
3.48968e-206
1.39756e-207
4.01824e-209
8.00173e-211
1.06858e-212
9.43949e-215
5.73917e-217
2.73952e-219
1.21373e-221
5.40532e-224
2.4437e-226
1.23053e-228
6.58332e-231
3.51694e-233
1.87415e-235
9.95185e-238
5.26012e-240
2.76442e-242
1.44292e-244
7.47158e-247
3.83355e-249
1.94662e-251
9.77035e-254
4.84089e-256
2.36453e-258
1.13701e-260
5.37476e-263
2.49386e-265
1.13402e-267
5.04533e-270
2.19239e-272
9.2878e-275
3.82852e-277
1.53241e-279
5.94287e-282
2.22777e-284
8.05194e-287
2.79836e-289
9.32382e-292
2.96871e-294
9.00089e-297
2.58847e-299
7.02981e-302
1.79414e-304
4.27918e-307
9.47725e-310
1.93461e-312
3.59503e-315
0
0
0
0
0
0
0
0
0
0
0
0
0
0
0
0
0
5.9106e-316
3.4596e-313
1.85501e-310
9.08763e-308
4.10339e-305
1.72048e-302
6.74131e-300
2.48228e-297
8.63176e-295
2.84701e-292
8.94175e-290
2.68375e-287
7.72236e-285
2.13664e-282
5.69994e-280
1.46982e-277
3.67225e-275
8.90901e-273
2.10305e-270
4.83988e-268
1.08788e-265
2.39248e-263
5.15641e-261
1.09086e-258
2.26862e-256
4.6447e-254
9.37474e-252
1.86787e-249
3.67862e-247
7.16992e-245
1.38472e-242
2.65304e-240
5.04844e-238
9.55184e-236
1.79892e-233
3.37596e-231
6.31976e-229
1.18134e-226
2.2073e-224
3.89569e-222
5.85883e-220
7.37067e-218
7.59798e-216
6.27773e-214
4.0679e-212
2.02941e-210
7.70314e-209
2.21858e-207
4.87949e-206
8.30529e-205
1.11322e-203
1.19766e-202
1.05393e-201
7.72393e-201
4.7934e-200
2.55771e-199
1.18972e-198
4.88377e-198
1.78885e-197
5.90474e-197
1.77217e-196
4.87485e-196
1.23787e-195
2.92046e-195
6.43917e-195
1.33392e-194
2.60895e-194
4.83898e-194
8.54538e-194
1.442e-193
2.33287e-193
3.62932e-193
5.44476e-193
7.89701e-193
1.10997e-192
1.51508e-192
2.01236e-192
2.6052e-192
3.2928e-192
4.06906e-192
4.92258e-192
5.83755e-192
6.79318e-192
7.76521e-192
8.72584e-192
9.64555e-192
1.04962e-191
1.12499e-191
1.18685e-191
1.19946e-191
6.90683e-192
4.06789e-197
5.97476e-194
5.52506e-189
8.94322e-189
8.82577e-189
8.40189e-189
7.88537e-189
7.29627e-189
6.65088e-189
5.96745e-189
5.26604e-189
4.5665e-189
3.88743e-189
3.24549e-189
2.65403e-189
2.12325e-189
1.65939e-189
1.26487e-189
9.388e-190
6.77132e-190
4.73655e-190
3.20575e-190
2.09409e-190
1.31668e-190
7.94474e-191
4.58533e-191
2.52226e-191
1.31711e-191
6.50101e-192
3.01848e-192
1.31147e-192
5.30103e-193
1.98054e-193
6.79057e-194
2.11951e-194
5.9686e-195
1.5012e-195
3.33429e-196
6.45664e-197
1.07433e-197
1.51084e-198
1.76225e-199
1.66865e-200
1.25168e-201
7.23411e-203
3.12197e-204
9.71773e-206
2.10316e-207
3.0577e-209
2.92837e-211
1.89793e-213
9.36379e-216
4.18615e-218
1.87072e-220
8.48828e-223
4.28127e-225
2.31071e-227
1.24545e-229
6.69679e-232
3.58843e-234
1.91415e-236
1.01531e-238
5.34926e-241
2.79613e-243
1.44836e-245
7.42555e-248
3.76327e-250
1.88289e-252
9.28807e-255
4.51091e-257
2.15383e-259
1.00952e-261
4.63755e-264
2.08455e-266
9.1523e-269
3.91783e-271
1.63198e-273
6.60151e-276
2.58747e-278
9.80369e-281
3.5817e-283
1.25831e-285
4.23838e-288
1.36434e-290
4.18226e-293
1.21609e-295
3.33951e-298
8.61856e-301
2.07873e-303
4.65582e-306
9.61173e-309
1.81305e-311
3.09259e-314
4.92532e-317
0
0
0
0
0
0
0
0
0
0
0
0
0
0
4.03877e-315
2.66027e-312
1.55992e-309
8.27026e-307
4.00623e-304
1.78878e-301
7.4167e-299
2.87391e-296
1.04656e-293
3.59932e-291
1.1742e-288
3.64779e-286
1.083e-283
3.08278e-281
8.43829e-279
2.22716e-276
5.6824e-274
1.4048e-271
3.37256e-269
7.87877e-267
1.79455e-264
3.99252e-262
8.6914e-260
1.85439e-257
3.88388e-255
7.99726e-253
1.62127e-250
3.24049e-248
6.39427e-246
1.24726e-243
2.40799e-241
4.6069e-239
8.74447e-237
1.64865e-234
3.09086e-232
5.76852e-230
1.07288e-227
1.99065e-225
3.68848e-223
6.83208e-221
1.18714e-218
1.74865e-216
2.14191e-214
2.13546e-212
1.69404e-210
1.04614e-208
4.94039e-207
1.76616e-205
4.77747e-204
9.86228e-203
1.57726e-201
1.9907e-200
2.0223e-199
1.68563e-198
1.17384e-197
6.94364e-197
3.54202e-196
1.57948e-195
6.2324e-195
2.19978e-194
7.01303e-194
2.03716e-193
5.4345e-193
1.34083e-192
3.07905e-192
6.61889e-192
1.3389e-191
2.5608e-191
4.6511e-191
8.05358e-191
1.33415e-190
2.12136e-190
3.2472e-190
4.79823e-190
6.86174e-190
9.51868e-190
1.28351e-189
1.68557e-189
2.15937e-189
2.70301e-189
3.31072e-189
3.973e-189
4.67723e-189
5.40744e-189
6.14501e-189
6.86911e-189
7.55863e-189
8.19389e-189
8.75527e-189
9.21401e-189
9.29767e-189
5.38154e-189
3.61718e-194
4.50954e-191
3.86564e-186
6.27138e-186
6.19803e-186
5.90976e-186
5.5582e-186
5.15739e-186
4.71798e-186
4.25169e-186
3.77142e-186
3.2901e-186
2.82001e-186
2.37241e-186
1.95661e-186
1.58001e-186
1.24752e-186
9.61548e-187
7.22314e-187
5.27795e-187
3.74388e-187
2.5722e-187
1.70747e-187
1.09222e-187
6.71266e-188
3.95103e-188
2.21935e-188
1.1851e-188
5.99033e-189
2.85284e-189
1.27348e-189
5.29805e-190
2.04123e-190
7.23196e-191
2.3377e-191
6.83384e-192
1.78893e-192
4.14708e-193
8.40724e-194
1.46938e-194
2.17837e-195
2.68906e-196
2.7062e-197
2.16736e-198
1.34386e-199
6.253e-201
2.1088e-202
4.96619e-204
7.8758e-206
8.20604e-208
5.70352e-210
2.92831e-212
1.32532e-214
5.94886e-217
2.71123e-219
1.36953e-221
7.464e-224
4.06279e-226
2.20637e-228
1.19419e-230
6.43496e-233
3.44839e-235
1.83568e-237
9.69598e-240
5.07559e-242
2.62999e-244
1.34725e-246
6.81407e-249
3.3982e-251
1.66866e-253
8.05635e-256
3.81858e-258
1.77408e-260
8.06552e-263
3.58197e-265
1.55112e-267
6.5367e-270
2.67525e-272
1.06098e-274
4.06783e-277
1.50396e-279
5.34733e-282
1.82298e-284
5.93971e-287
1.84308e-289
5.42516e-292
1.50824e-294
3.94081e-297
9.62349e-300
2.18239e-302
4.56205e-305
8.71379e-308
1.5049e-310
2.31984e-313
2.95509e-316
0
0
0
0
0
0
0
0
0
0
0
4.92602e-317
2.4281e-314
1.79236e-311
1.16279e-308
6.73338e-306
3.52547e-303
1.68662e-300
7.43774e-298
3.04591e-295
1.16579e-292
4.19353e-290
1.42471e-287
4.59157e-285
1.40926e-282
4.13386e-280
1.16269e-277
3.14485e-275
8.20262e-273
2.06833e-270
5.0539e-268
1.19929e-265
2.76959e-263
6.23646e-261
1.37181e-258
2.95281e-256
6.22995e-254
1.29041e-251
2.62797e-249
5.2698e-247
1.04196e-244
2.0341e-242
3.92574e-240
7.49969e-238
1.41992e-235
2.66747e-233
4.97793e-231
9.23844e-229
1.70697e-226
3.14339e-224
5.77527e-222
1.05974e-219
1.94412e-217
3.31942e-215
4.77873e-213
5.68552e-211
5.46771e-209
4.15254e-207
2.43659e-205
1.08614e-203
3.64795e-202
9.24973e-201
1.7897e-199
2.68675e-198
3.19108e-197
3.05977e-196
2.4151e-195
1.59785e-194
9.0087e-194
4.39318e-193
1.87811e-192
7.12365e-192
2.42297e-191
7.46101e-191
2.09781e-190
5.42757e-190
1.3012e-189
2.90865e-189
6.09658e-189
1.20432e-188
2.25262e-188
4.00658e-188
6.80261e-188
1.10638e-187
1.72913e-187
2.60443e-187
3.79083e-187
5.34541e-187
7.31884e-187
9.74939e-187
1.26595e-186
1.60494e-186
1.9897e-186
2.41563e-186
2.87573e-186
3.36102e-186
3.86033e-186
4.36108e-186
4.84968e-186
5.31253e-186
5.73728e-186
6.11135e-186
6.41566e-186
6.46439e-186
3.76114e-186
2.88462e-191
3.11173e-188
2.44804e-183
3.97576e-183
3.93568e-183
3.75992e-183
3.54499e-183
3.29958e-183
3.02996e-183
2.74294e-183
2.44605e-183
2.1469e-183
1.85285e-183
1.57079e-183
1.30656e-183
1.06499e-183
8.49499e-184
6.62068e-184
5.03347e-184
3.72587e-184
2.67998e-184
1.86899e-184
1.2607e-184
8.20375e-185
5.13515e-185
3.08222e-185
1.76783e-185
9.65237e-186
4.99611e-186
2.44029e-186
1.11909e-186
4.79146e-187
1.9035e-187
6.96814e-188
2.33244e-188
7.0776e-189
1.92815e-189
4.66486e-190
9.89983e-191
1.81733e-191
2.84013e-192
3.71053e-193
3.9691e-194
3.39449e-195
2.25868e-196
1.13364e-197
4.14512e-199
1.06335e-200
1.84274e-202
2.09554e-204
1.57082e-206
8.45324e-209
3.88883e-211
1.7552e-213
8.04074e-216
4.06693e-218
2.24023e-220
1.23259e-222
6.76696e-225
3.70305e-227
2.01766e-229
1.09341e-231
5.8868e-234
3.1451e-236
1.66547e-238
8.73088e-241
4.52536e-243
2.31611e-245
1.16894e-247
5.80965e-250
2.83923e-252
1.36235e-254
6.40802e-257
2.94977e-259
1.32656e-261
5.8175e-264
2.48299e-266
1.0293e-268
4.1351e-271
1.60612e-273
6.01617e-276
2.16733e-278
7.48698e-281
2.47205e-283
7.77381e-286
2.31915e-288
6.53489e-291
1.73072e-293
4.28422e-296
9.84898e-299
2.08717e-301
4.04169e-304
7.07685e-307
1.10609e-309
1.5183e-312
1.773e-315
0
0
0
0
0
0
0
0
0
9.85176e-317
1.24455e-313
1.05442e-310
7.68211e-308
4.91553e-305
2.80756e-302
1.44996e-299
6.84256e-297
2.97663e-294
1.20255e-291
4.54086e-289
1.61157e-286
5.40223e-284
1.71796e-281
5.20326e-279
1.50627e-276
4.18124e-274
1.11627e-271
2.87399e-269
7.15406e-267
1.72581e-264
4.04358e-262
9.22078e-260
2.05042e-257
4.45438e-255
9.47029e-253
1.97374e-250
4.0388e-248
8.12662e-246
1.61024e-243
3.14631e-241
6.07047e-239
1.15802e-236
2.18691e-234
4.09346e-232
7.60347e-230
1.40312e-227
2.57529e-225
4.70635e-223
8.57302e-221
1.55824e-218
2.82902e-216
5.1355e-214
8.5995e-212
1.20731e-209
1.3917e-207
1.28736e-205
9.33199e-204
5.187e-202
2.17626e-200
6.85065e-199
1.62524e-197
2.94359e-196
4.14449e-195
4.6297e-194
4.18863e-193
3.13013e-192
1.96733e-191
1.05715e-190
4.92853e-190
2.02001e-189
7.36528e-189
2.41424e-188
7.18101e-188
1.95456e-187
4.90502e-187
1.1427e-186
2.48662e-186
5.08235e-186
9.80511e-186
1.7937e-185
3.12443e-185
5.20195e-185
8.30672e-185
1.27615e-184
1.89156e-184
2.71221e-184
3.77119e-184
5.09656e-184
6.70733e-184
8.61189e-184
1.08047e-183
1.32672e-183
1.59664e-183
1.8856e-183
2.18793e-183
2.49664e-183
2.80399e-183
3.10208e-183
3.38305e-183
3.63986e-183
3.86513e-183
4.04753e-183
4.07221e-183
2.38171e-183
2.08396e-188
1.97545e-185
1.41556e-180
2.29916e-180
2.27986e-180
2.18271e-180
2.06347e-180
1.92696e-180
1.77653e-180
1.61577e-180
1.44868e-180
1.27936e-180
1.1118e-180
9.4985e-181
7.96825e-181
6.55592e-181
5.28291e-181
4.16307e-181
3.20312e-181
2.40178e-181
1.75171e-181
1.23995e-181
8.49844e-182
5.62539e-182
3.58605e-182
2.19475e-182
1.28525e-182
7.17479e-183
3.80252e-183
1.90468e-183
8.97237e-184
3.95316e-184
1.61916e-184
6.1236e-185
2.12233e-185
6.68406e-186
1.89485e-186
4.78384e-187
1.06268e-187
2.04883e-188
3.37515e-189
4.6667e-190
5.30612e-191
4.84639e-192
3.46137e-193
1.87463e-194
7.43636e-196
2.08004e-197
3.94529e-199
4.91091e-201
3.99139e-203
2.26815e-205
1.06577e-207
4.84323e-210
2.23172e-212
1.12993e-214
6.29639e-217
3.50497e-219
1.94706e-221
1.07825e-223
5.94612e-226
3.26172e-228
1.77776e-230
9.61634e-233
5.15638e-235
2.73748e-237
1.43708e-239
7.45026e-242
3.80925e-244
1.91814e-246
9.49862e-249
4.61874e-251
2.20182e-253
1.02734e-255
4.68344e-258
2.08224e-260
9.01092e-263
3.78773e-265
1.54313e-267
6.07873e-270
2.30948e-272
8.43945e-275
2.95751e-277
9.90698e-280
3.16092e-282
9.56825e-285
2.73586e-287
7.35295e-290
1.84718e-292
4.30977e-295
9.26973e-298
1.82197e-300
3.23821e-303
5.13757e-306
7.15899e-309
8.57884e-312
8.56923e-315
0
0
0
0
0
0
0
4.43318e-316
5.36759e-313
5.36041e-310
4.4737e-307
3.2108e-304