/*--------------------------------*- C++ -*----------------------------------*\
| =========                 |                                                 |
| \\      /  F ield         | OpenFOAM: The Open Source CFD Toolbox           |
|  \\    /   O peration     | Version:  2412                                  |
|   \\  /    A nd           | Website:  www.openfoam.com                      |
|    \\/     M anipulation  |                                                 |
\*---------------------------------------------------------------------------*/
FoamFile
{
    version     2.0;
    format      ascii;
    arch        "LSB;label=32;scalar=64";
    class       volScalarField;
    location    "1.04";
    object      p;
}
// * * * * * * * * * * * * * * * * * * * * * * * * * * * * * * * * * * * * * //

dimensions      [1 -1 -2 0 0 0 0];

internalField   nonuniform List<scalar> 
40000
(
0
-0.000137247
-0.000393597
-0.000823479
-0.00143085
-0.00221109
-0.00316107
-0.0042795
-0.00556469
-0.00701526
-0.00862991
-0.0104074
-0.0123465
-0.0144458
-0.0167038
-0.0191191
-0.0216899
-0.0244146
-0.0272913
-0.0303181
-0.0334926
-0.0368127
-0.0402758
-0.0438795
-0.0476211
-0.0514977
-0.0555064
-0.0596442
-0.0639081
-0.0682949
-0.0728013
-0.0774237
-0.0821586
-0.0870022
-0.0919506
-0.0969999
-0.102146
-0.107384
-0.112711
-0.118121
-0.123609
-0.129171
-0.134803
-0.140498
-0.146252
-0.152061
-0.157917
-0.163817
-0.169754
-0.175723
-0.181718
-0.187734
-0.193763
-0.199801
-0.205841
-0.211877
-0.217902
-0.223912
-0.229899
-0.235856
-0.241779
-0.24766
-0.253492
-0.25927
-0.264987
-0.270637
-0.276212
-0.281707
-0.287114
-0.292428
-0.297643
-0.302752
-0.307749
-0.312628
-0.317384
-0.32201
-0.3265
-0.330849
-0.335052
-0.339103
-0.342997
-0.346729
-0.350294
-0.353688
-0.356906
-0.359945
-0.362799
-0.365466
-0.367942
-0.370224
-0.372308
-0.374192
-0.375873
-0.377349
-0.378618
-0.379678
-0.380528
-0.381167
-0.381594
-0.381808
-0.381808
-0.381595
-0.38117
-0.380532
-0.379683
-0.378623
-0.377355
-0.37588
-0.3742
-0.372318
-0.370235
-0.367955
-0.365481
-0.362816
-0.359963
-0.356927
-0.353711
-0.350319
-0.346756
-0.343027
-0.339136
-0.335088
-0.330889
-0.326542
-0.322055
-0.317432
-0.31268
-0.307804
-0.302809
-0.297703
-0.292491
-0.287179
-0.281774
-0.276282
-0.27071
-0.265063
-0.259348
-0.253573
-0.247742
-0.241863
-0.235942
-0.229986
-0.224001
-0.217993
-0.211968
-0.205934
-0.199896
-0.193859
-0.187831
-0.181817
-0.175824
-0.169856
-0.16392
-0.158022
-0.152167
-0.14636
-0.140606
-0.134912
-0.129281
-0.12372
-0.118233
-0.112824
-0.107499
-0.102261
-0.0971158
-0.092067
-0.0871188
-0.0822753
-0.0775404
-0.0729177
-0.0684109
-0.0640236
-0.0597589
-0.0556203
-0.0516109
-0.0477336
-0.0439913
-0.0403867
-0.0369222
-0.0336005
-0.0304241
-0.0273954
-0.0245165
-0.0217891
-0.0192153
-0.0167966
-0.014535
-0.0124322
-0.010489
-0.00870686
-0.00708715
-0.00563079
-0.0043391
-0.00321307
-0.00225288
-0.00145915
-0.000832922
-0.000374028
-8.27826e-05
4.63656e-05
-3.92387
-3.92399
-3.92425
-3.92469
-3.9253
-3.92608
-3.92703
-3.92815
-3.92944
-3.93089
-3.9325
-3.93428
-3.93622
-3.93832
-3.94058
-3.943
-3.94557
-3.9483
-3.95117
-3.9542
-3.95738
-3.9607
-3.96417
-3.96777
-3.97152
-3.97539
-3.97941
-3.98355
-3.98781
-3.9922
-3.99671
-4.00134
-4.00607
-4.01092
-4.01587
-4.02092
-4.02607
-4.03132
-4.03665
-4.04206
-4.04755
-4.05312
-4.05875
-4.06445
-4.07021
-4.07602
-4.08188
-4.08779
-4.09373
-4.0997
-4.1057
-4.11172
-4.11776
-4.1238
-4.12984
-4.13588
-4.14192
-4.14793
-4.15392
-4.15988
-4.16581
-4.1717
-4.17754
-4.18332
-4.18904
-4.19469
-4.20027
-4.20577
-4.21119
-4.21651
-4.22173
-4.22684
-4.23184
-4.23673
-4.24149
-4.24612
-4.25061
-4.25496
-4.25917
-4.26323
-4.26712
-4.27086
-4.27443
-4.27783
-4.28105
-4.28409
-4.28695
-4.28962
-4.29209
-4.29438
-4.29646
-4.29835
-4.30003
-4.30151
-4.30278
-4.30384
-4.30469
-4.30533
-4.30576
-4.30597
-4.30597
-4.30576
-4.30534
-4.3047
-4.30385
-4.30279
-4.30152
-4.30004
-4.29836
-4.29647
-4.29439
-4.29211
-4.28963
-4.28696
-4.28411
-4.28107
-4.27785
-4.27445
-4.27089
-4.26715
-4.26326
-4.25921
-4.255
-4.25065
-4.24616
-4.24153
-4.23678
-4.2319
-4.2269
-4.22179
-4.21657
-4.21125
-4.20584
-4.20035
-4.19477
-4.18912
-4.1834
-4.17762
-4.17178
-4.1659
-4.15997
-4.15401
-4.14802
-4.14201
-4.13598
-4.12994
-4.12389
-4.11785
-4.11182
-4.1058
-4.0998
-4.09383
-4.08789
-4.08199
-4.07613
-4.07032
-4.06456
-4.05886
-4.05323
-4.04766
-4.04217
-4.03676
-4.03143
-4.02619
-4.02104
-4.01599
-4.01104
-4.00619
-4.00145
-3.99683
-3.99232
-3.98793
-3.98366
-3.97952
-3.97551
-3.97163
-3.96788
-3.96428
-3.96081
-3.95749
-3.95431
-3.95128
-3.9484
-3.94567
-3.94309
-3.94067
-3.93841
-3.93631
-3.93436
-3.93258
-3.93096
-3.9295
-3.92821
-3.92708
-3.92612
-3.92533
-3.9247
-3.92424
-3.92395
-3.92382
-7.84755
-7.84767
-7.84795
-7.84839
-7.84901
-7.84979
-7.85074
-7.85187
-7.85315
-7.85461
-7.85622
-7.858
-7.85995
-7.86205
-7.86431
-7.86673
-7.86931
-7.87204
-7.87492
-7.87795
-7.88113
-7.88446
-7.88792
-7.89154
-7.89528
-7.89917
-7.90318
-7.90733
-7.9116
-7.916
-7.92051
-7.92514
-7.92989
-7.93474
-7.9397
-7.94476
-7.94992
-7.95516
-7.9605
-7.96592
-7.97142
-7.977
-7.98264
-7.98835
-7.99412
-7.99994
-8.00581
-8.01172
-8.01767
-8.02366
-8.02967
-8.0357
-8.04174
-8.04779
-8.05385
-8.0599
-8.06594
-8.07197
-8.07797
-8.08395
-8.08988
-8.09578
-8.10163
-8.10742
-8.11316
-8.11882
-8.12441
-8.12992
-8.13535
-8.14068
-8.14591
-8.15103
-8.15604
-8.16094
-8.16571
-8.17035
-8.17485
-8.17922
-8.18343
-8.1875
-8.1914
-8.19515
-8.19872
-8.20213
-8.20536
-8.20841
-8.21127
-8.21395
-8.21643
-8.21872
-8.22081
-8.2227
-8.22439
-8.22587
-8.22714
-8.22821
-8.22906
-8.2297
-8.23013
-8.23034
-8.23034
-8.23013
-8.2297
-8.22906
-8.22821
-8.22715
-8.22588
-8.2244
-8.22271
-8.22082
-8.21873
-8.21644
-8.21396
-8.21129
-8.20843
-8.20538
-8.20215
-8.19875
-8.19518
-8.19143
-8.18753
-8.18347
-8.17926
-8.1749
-8.1704
-8.16576
-8.16099
-8.1561
-8.15109
-8.14597
-8.14074
-8.13541
-8.12999
-8.12448
-8.11889
-8.11323
-8.1075
-8.10171
-8.09586
-8.08997
-8.08403
-8.07806
-8.07206
-8.06603
-8.05999
-8.05394
-8.04789
-8.04184
-8.03579
-8.02977
-8.02376
-8.01778
-8.01183
-8.00591
-8.00005
-7.99422
-7.98846
-7.98275
-7.97711
-7.97153
-7.96604
-7.96062
-7.95528
-7.95003
-7.94487
-7.93981
-7.93486
-7.93
-7.92526
-7.92063
-7.91611
-7.91172
-7.90744
-7.9033
-7.89928
-7.8954
-7.89165
-7.88804
-7.88456
-7.88124
-7.87806
-7.87502
-7.87214
-7.86941
-7.86683
-7.8644
-7.86214
-7.86003
-7.85809
-7.8563
-7.85468
-7.85322
-7.85193
-7.8508
-7.84984
-7.84904
-7.84841
-7.84795
-7.84766
-7.84753
-11.7711
-11.7712
-11.7715
-11.7719
-11.7725
-11.7733
-11.7743
-11.7754
-11.7767
-11.7782
-11.7798
-11.7816
-11.7835
-11.7856
-11.7879
-11.7903
-11.7929
-11.7956
-11.7985
-11.8015
-11.8047
-11.8081
-11.8115
-11.8152
-11.8189
-11.8228
-11.8268
-11.831
-11.8353
-11.8397
-11.8442
-11.8488
-11.8536
-11.8585
-11.8634
-11.8685
-11.8737
-11.8789
-11.8843
-11.8897
-11.8952
-11.9008
-11.9065
-11.9122
-11.918
-11.9238
-11.9297
-11.9356
-11.9416
-11.9476
-11.9536
-11.9597
-11.9657
-11.9718
-11.9779
-11.9839
-11.99
-11.996
-12.0021
-12.008
-12.014
-12.0199
-12.0258
-12.0316
-12.0373
-12.043
-12.0486
-12.0542
-12.0596
-12.0649
-12.0702
-12.0753
-12.0804
-12.0853
-12.0901
-12.0947
-12.0992
-12.1036
-12.1078
-12.1119
-12.1158
-12.1196
-12.1232
-12.1266
-12.1299
-12.1329
-12.1358
-12.1385
-12.141
-12.1433
-12.1454
-12.1473
-12.149
-12.1504
-12.1517
-12.1528
-12.1536
-12.1543
-12.1547
-12.1549
-12.1549
-12.1547
-12.1543
-12.1536
-12.1528
-12.1517
-12.1504
-12.149
-12.1473
-12.1454
-12.1433
-12.141
-12.1385
-12.1358
-12.1329
-12.1299
-12.1266
-12.1232
-12.1196
-12.1159
-12.112
-12.1079
-12.1037
-12.0993
-12.0948
-12.0901
-12.0853
-12.0804
-12.0754
-12.0703
-12.065
-12.0597
-12.0542
-12.0487
-12.0431
-12.0374
-12.0317
-12.0259
-12.02
-12.0141
-12.0081
-12.0021
-11.9961
-11.9901
-11.984
-11.978
-11.9719
-11.9658
-11.9598
-11.9537
-11.9477
-11.9417
-11.9357
-11.9298
-11.9239
-11.9181
-11.9123
-11.9066
-11.9009
-11.8953
-11.8898
-11.8844
-11.879
-11.8738
-11.8686
-11.8635
-11.8586
-11.8537
-11.849
-11.8443
-11.8398
-11.8354
-11.8311
-11.8269
-11.8229
-11.819
-11.8153
-11.8117
-11.8082
-11.8048
-11.8017
-11.7986
-11.7957
-11.793
-11.7904
-11.788
-11.7857
-11.7836
-11.7816
-11.7799
-11.7782
-11.7768
-11.7755
-11.7743
-11.7734
-11.7726
-11.772
-11.7715
-11.7712
-11.7711
-15.6944
-15.6945
-15.6948
-15.6953
-15.6959
-15.6967
-15.6977
-15.6988
-15.7001
-15.7015
-15.7032
-15.705
-15.7069
-15.709
-15.7113
-15.7137
-15.7163
-15.7191
-15.722
-15.725
-15.7282
-15.7315
-15.735
-15.7386
-15.7424
-15.7463
-15.7503
-15.7545
-15.7588
-15.7632
-15.7678
-15.7724
-15.7772
-15.7821
-15.787
-15.7921
-15.7973
-15.8026
-15.808
-15.8134
-15.8189
-15.8246
-15.8302
-15.836
-15.8418
-15.8476
-15.8535
-15.8595
-15.8655
-15.8715
-15.8775
-15.8836
-15.8897
-15.8958
-15.9019
-15.908
-15.914
-15.9201
-15.9262
-15.9322
-15.9382
-15.9441
-15.95
-15.9558
-15.9616
-15.9673
-15.9729
-15.9785
-15.984
-15.9893
-15.9946
-15.9998
-16.0048
-16.0097
-16.0145
-16.0192
-16.0238
-16.0282
-16.0324
-16.0365
-16.0405
-16.0442
-16.0478
-16.0513
-16.0545
-16.0576
-16.0605
-16.0632
-16.0657
-16.068
-16.0701
-16.072
-16.0737
-16.0752
-16.0765
-16.0776
-16.0784
-16.0791
-16.0795
-16.0797
-16.0797
-16.0795
-16.0791
-16.0784
-16.0776
-16.0765
-16.0752
-16.0737
-16.072
-16.0701
-16.068
-16.0657
-16.0632
-16.0605
-16.0576
-16.0545
-16.0513
-16.0479
-16.0443
-16.0405
-16.0365
-16.0325
-16.0282
-16.0238
-16.0193
-16.0146
-16.0098
-16.0049
-15.9998
-15.9947
-15.9894
-15.984
-15.9786
-15.973
-15.9674
-15.9617
-15.9559
-15.9501
-15.9442
-15.9382
-15.9323
-15.9262
-15.9202
-15.9141
-15.9081
-15.902
-15.8959
-15.8898
-15.8837
-15.8776
-15.8716
-15.8656
-15.8596
-15.8536
-15.8477
-15.8419
-15.8361
-15.8303
-15.8247
-15.8191
-15.8135
-15.8081
-15.8027
-15.7974
-15.7923
-15.7872
-15.7822
-15.7773
-15.7725
-15.7679
-15.7633
-15.7589
-15.7546
-15.7505
-15.7464
-15.7425
-15.7388
-15.7351
-15.7316
-15.7283
-15.7251
-15.7221
-15.7192
-15.7164
-15.7138
-15.7114
-15.7091
-15.707
-15.705
-15.7033
-15.7016
-15.7002
-15.6989
-15.6977
-15.6968
-15.696
-15.6953
-15.6949
-15.6946
-15.6944
-19.6176
-19.6177
-19.618
-19.6185
-19.6191
-19.6199
-19.6209
-19.622
-19.6233
-19.6248
-19.6264
-19.6282
-19.6302
-19.6323
-19.6346
-19.637
-19.6396
-19.6423
-19.6452
-19.6483
-19.6515
-19.6549
-19.6584
-19.662
-19.6658
-19.6697
-19.6737
-19.6779
-19.6822
-19.6867
-19.6912
-19.6959
-19.7007
-19.7056
-19.7106
-19.7157
-19.7209
-19.7262
-19.7316
-19.737
-19.7426
-19.7482
-19.7539
-19.7597
-19.7655
-19.7714
-19.7773
-19.7833
-19.7893
-19.7954
-19.8014
-19.8075
-19.8136
-19.8198
-19.8259
-19.832
-19.8381
-19.8442
-19.8503
-19.8563
-19.8624
-19.8683
-19.8742
-19.8801
-19.8859
-19.8917
-19.8973
-19.9029
-19.9084
-19.9138
-19.9191
-19.9243
-19.9294
-19.9343
-19.9392
-19.9439
-19.9484
-19.9529
-19.9571
-19.9613
-19.9652
-19.969
-19.9726
-19.9761
-19.9794
-19.9825
-19.9854
-19.9881
-19.9906
-19.9929
-19.9951
-19.997
-19.9987
-20.0002
-20.0015
-20.0026
-20.0034
-20.0041
-20.0045
-20.0047
-20.0047
-20.0045
-20.0041
-20.0034
-20.0026
-20.0015
-20.0002
-19.9987
-19.997
-19.9951
-19.993
-19.9906
-19.9881
-19.9854
-19.9825
-19.9794
-19.9761
-19.9727
-19.9691
-19.9653
-19.9613
-19.9572
-19.9529
-19.9485
-19.9439
-19.9392
-19.9344
-19.9294
-19.9243
-19.9192
-19.9139
-19.9085
-19.903
-19.8974
-19.8917
-19.886
-19.8802
-19.8743
-19.8684
-19.8624
-19.8564
-19.8504
-19.8443
-19.8382
-19.8321
-19.826
-19.8199
-19.8137
-19.8076
-19.8015
-19.7955
-19.7894
-19.7834
-19.7774
-19.7715
-19.7656
-19.7598
-19.754
-19.7483
-19.7427
-19.7372
-19.7317
-19.7263
-19.721
-19.7158
-19.7107
-19.7057
-19.7008
-19.696
-19.6913
-19.6868
-19.6823
-19.678
-19.6739
-19.6698
-19.6659
-19.6621
-19.6585
-19.655
-19.6516
-19.6484
-19.6453
-19.6424
-19.6397
-19.6371
-19.6346
-19.6324
-19.6302
-19.6283
-19.6265
-19.6248
-19.6234
-19.6221
-19.6209
-19.62
-19.6192
-19.6185
-19.6181
-19.6178
-19.6177
-23.5406
-23.5408
-23.5411
-23.5415
-23.5422
-23.5429
-23.5439
-23.5451
-23.5464
-23.5478
-23.5495
-23.5513
-23.5532
-23.5554
-23.5577
-23.5601
-23.5627
-23.5655
-23.5684
-23.5715
-23.5747
-23.578
-23.5815
-23.5852
-23.589
-23.5929
-23.597
-23.6012
-23.6055
-23.61
-23.6145
-23.6192
-23.624
-23.629
-23.634
-23.6391
-23.6443
-23.6497
-23.6551
-23.6606
-23.6662
-23.6718
-23.6776
-23.6833
-23.6892
-23.6951
-23.7011
-23.7071
-23.7131
-23.7192
-23.7253
-23.7315
-23.7376
-23.7438
-23.7499
-23.7561
-23.7622
-23.7684
-23.7745
-23.7805
-23.7866
-23.7926
-23.7986
-23.8045
-23.8103
-23.8161
-23.8218
-23.8274
-23.8329
-23.8384
-23.8437
-23.8489
-23.854
-23.859
-23.8639
-23.8687
-23.8733
-23.8777
-23.882
-23.8862
-23.8902
-23.894
-23.8976
-23.9011
-23.9044
-23.9075
-23.9105
-23.9132
-23.9157
-23.9181
-23.9202
-23.9222
-23.9239
-23.9254
-23.9267
-23.9278
-23.9287
-23.9293
-23.9298
-23.93
-23.93
-23.9298
-23.9293
-23.9287
-23.9278
-23.9267
-23.9254
-23.9239
-23.9222
-23.9202
-23.9181
-23.9158
-23.9132
-23.9105
-23.9076
-23.9044
-23.9011
-23.8977
-23.894
-23.8902
-23.8862
-23.8821
-23.8777
-23.8733
-23.8687
-23.864
-23.8591
-23.8541
-23.849
-23.8438
-23.8384
-23.833
-23.8275
-23.8218
-23.8161
-23.8104
-23.8045
-23.7986
-23.7927
-23.7867
-23.7806
-23.7745
-23.7684
-23.7623
-23.7562
-23.75
-23.7438
-23.7377
-23.7315
-23.7254
-23.7193
-23.7132
-23.7072
-23.7012
-23.6952
-23.6893
-23.6835
-23.6777
-23.6719
-23.6663
-23.6607
-23.6552
-23.6498
-23.6445
-23.6392
-23.6341
-23.6291
-23.6242
-23.6194
-23.6147
-23.6101
-23.6056
-23.6013
-23.5971
-23.593
-23.5891
-23.5853
-23.5817
-23.5781
-23.5748
-23.5716
-23.5685
-23.5656
-23.5628
-23.5602
-23.5577
-23.5555
-23.5533
-23.5514
-23.5496
-23.5479
-23.5464
-23.5451
-23.544
-23.543
-23.5422
-23.5416
-23.5411
-23.5408
-23.5407
-27.4635
-27.4636
-27.4639
-27.4644
-27.465
-27.4658
-27.4668
-27.4679
-27.4692
-27.4707
-27.4724
-27.4742
-27.4762
-27.4783
-27.4806
-27.4831
-27.4857
-27.4884
-27.4914
-27.4945
-27.4977
-27.5011
-27.5046
-27.5083
-27.5121
-27.516
-27.5201
-27.5243
-27.5287
-27.5332
-27.5378
-27.5425
-27.5473
-27.5523
-27.5573
-27.5625
-27.5677
-27.5731
-27.5785
-27.5841
-27.5897
-27.5954
-27.6011
-27.6069
-27.6128
-27.6188
-27.6248
-27.6308
-27.6369
-27.643
-27.6492
-27.6554
-27.6615
-27.6677
-27.6739
-27.6801
-27.6863
-27.6925
-27.6987
-27.7048
-27.7109
-27.7169
-27.7229
-27.7289
-27.7348
-27.7406
-27.7463
-27.752
-27.7576
-27.763
-27.7684
-27.7737
-27.7788
-27.7839
-27.7888
-27.7936
-27.7982
-27.8027
-27.807
-27.8112
-27.8153
-27.8191
-27.8228
-27.8263
-27.8296
-27.8328
-27.8357
-27.8385
-27.8411
-27.8434
-27.8456
-27.8475
-27.8493
-27.8508
-27.8521
-27.8532
-27.8541
-27.8548
-27.8552
-27.8554
-27.8554
-27.8552
-27.8548
-27.8541
-27.8532
-27.8521
-27.8508
-27.8493
-27.8476
-27.8456
-27.8434
-27.8411
-27.8385
-27.8358
-27.8328
-27.8297
-27.8263
-27.8228
-27.8191
-27.8153
-27.8113
-27.8071
-27.8027
-27.7983
-27.7936
-27.7888
-27.7839
-27.7789
-27.7737
-27.7685
-27.7631
-27.7576
-27.7521
-27.7464
-27.7406
-27.7348
-27.7289
-27.723
-27.717
-27.711
-27.7049
-27.6987
-27.6926
-27.6864
-27.6802
-27.674
-27.6678
-27.6616
-27.6554
-27.6493
-27.6431
-27.637
-27.6309
-27.6249
-27.6189
-27.6129
-27.6071
-27.6012
-27.5955
-27.5898
-27.5842
-27.5786
-27.5732
-27.5678
-27.5626
-27.5574
-27.5524
-27.5474
-27.5426
-27.5379
-27.5333
-27.5288
-27.5245
-27.5202
-27.5161
-27.5122
-27.5084
-27.5047
-27.5012
-27.4978
-27.4946
-27.4915
-27.4885
-27.4858
-27.4831
-27.4807
-27.4784
-27.4762
-27.4743
-27.4725
-27.4708
-27.4693
-27.468
-27.4669
-27.4659
-27.4651
-27.4644
-27.464
-27.4637
-27.4635
-31.3862
-31.3863
-31.3866
-31.3871
-31.3877
-31.3885
-31.3895
-31.3906
-31.392
-31.3935
-31.3951
-31.3969
-31.3989
-31.4011
-31.4034
-31.4058
-31.4085
-31.4113
-31.4142
-31.4173
-31.4206
-31.424
-31.4275
-31.4312
-31.435
-31.439
-31.4431
-31.4474
-31.4517
-31.4562
-31.4609
-31.4656
-31.4705
-31.4754
-31.4805
-31.4857
-31.491
-31.4964
-31.5019
-31.5074
-31.5131
-31.5188
-31.5246
-31.5305
-31.5364
-31.5424
-31.5484
-31.5545
-31.5607
-31.5668
-31.573
-31.5792
-31.5855
-31.5917
-31.598
-31.6042
-31.6105
-31.6167
-31.6229
-31.6291
-31.6352
-31.6413
-31.6474
-31.6533
-31.6593
-31.6652
-31.6709
-31.6767
-31.6823
-31.6878
-31.6932
-31.6986
-31.7038
-31.7088
-31.7138
-31.7186
-31.7233
-31.7278
-31.7322
-31.7365
-31.7405
-31.7444
-31.7481
-31.7517
-31.7551
-31.7582
-31.7612
-31.764
-31.7666
-31.769
-31.7712
-31.7731
-31.7749
-31.7764
-31.7778
-31.7789
-31.7798
-31.7804
-31.7809
-31.7811
-31.7811
-31.7809
-31.7804
-31.7798
-31.7789
-31.7778
-31.7764
-31.7749
-31.7731
-31.7712
-31.769
-31.7666
-31.764
-31.7612
-31.7583
-31.7551
-31.7517
-31.7482
-31.7445
-31.7406
-31.7365
-31.7323
-31.7279
-31.7234
-31.7187
-31.7139
-31.7089
-31.7038
-31.6986
-31.6933
-31.6879
-31.6823
-31.6767
-31.671
-31.6652
-31.6594
-31.6534
-31.6474
-31.6414
-31.6353
-31.6291
-31.623
-31.6168
-31.6105
-31.6043
-31.5981
-31.5918
-31.5856
-31.5793
-31.5731
-31.5669
-31.5608
-31.5546
-31.5486
-31.5425
-31.5365
-31.5306
-31.5247
-31.5189
-31.5132
-31.5075
-31.502
-31.4965
-31.4911
-31.4858
-31.4806
-31.4756
-31.4706
-31.4657
-31.461
-31.4563
-31.4518
-31.4475
-31.4432
-31.4391
-31.4351
-31.4313
-31.4276
-31.4241
-31.4207
-31.4174
-31.4143
-31.4114
-31.4086
-31.4059
-31.4035
-31.4012
-31.399
-31.397
-31.3952
-31.3935
-31.392
-31.3907
-31.3896
-31.3886
-31.3878
-31.3871
-31.3867
-31.3864
-31.3862
-35.3087
-35.3088
-35.3091
-35.3096
-35.3102
-35.3111
-35.312
-35.3132
-35.3145
-35.316
-35.3177
-35.3195
-35.3215
-35.3237
-35.326
-35.3285
-35.3311
-35.3339
-35.3369
-35.34
-35.3433
-35.3467
-35.3503
-35.354
-35.3578
-35.3618
-35.366
-35.3702
-35.3746
-35.3792
-35.3838
-35.3886
-35.3935
-35.3985
-35.4036
-35.4089
-35.4142
-35.4196
-35.4251
-35.4307
-35.4364
-35.4422
-35.448
-35.454
-35.4599
-35.466
-35.4721
-35.4782
-35.4844
-35.4906
-35.4968
-35.5031
-35.5094
-35.5157
-35.522
-35.5283
-35.5346
-35.5409
-35.5471
-35.5534
-35.5596
-35.5657
-35.5718
-35.5779
-35.5839
-35.5898
-35.5957
-35.6014
-35.6071
-35.6127
-35.6182
-35.6235
-35.6288
-35.6339
-35.639
-35.6438
-35.6486
-35.6531
-35.6576
-35.6618
-35.666
-35.6699
-35.6737
-35.6773
-35.6807
-35.6839
-35.6869
-35.6897
-35.6923
-35.6947
-35.6969
-35.6989
-35.7007
-35.7023
-35.7036
-35.7047
-35.7056
-35.7063
-35.7068
-35.707
-35.707
-35.7068
-35.7063
-35.7057
-35.7048
-35.7036
-35.7023
-35.7007
-35.6989
-35.697
-35.6948
-35.6923
-35.6897
-35.6869
-35.6839
-35.6807
-35.6773
-35.6737
-35.6699
-35.666
-35.6619
-35.6576
-35.6532
-35.6486
-35.6439
-35.639
-35.634
-35.6289
-35.6236
-35.6182
-35.6128
-35.6072
-35.6015
-35.5957
-35.5899
-35.5839
-35.578
-35.5719
-35.5658
-35.5596
-35.5534
-35.5472
-35.541
-35.5347
-35.5284
-35.5221
-35.5158
-35.5095
-35.5032
-35.4969
-35.4907
-35.4845
-35.4783
-35.4722
-35.4661
-35.46
-35.4541
-35.4482
-35.4423
-35.4365
-35.4308
-35.4252
-35.4197
-35.4143
-35.409
-35.4037
-35.3986
-35.3936
-35.3887
-35.384
-35.3793
-35.3748
-35.3704
-35.3661
-35.362
-35.358
-35.3541
-35.3504
-35.3468
-35.3434
-35.3401
-35.337
-35.334
-35.3312
-35.3286
-35.3261
-35.3238
-35.3216
-35.3196
-35.3178
-35.3161
-35.3146
-35.3133
-35.3121
-35.3111
-35.3103
-35.3097
-35.3092
-35.3089
-35.3088
-39.231
-39.2312
-39.2315
-39.2319
-39.2326
-39.2334
-39.2344
-39.2356
-39.2369
-39.2384
-39.2401
-39.2419
-39.2439
-39.2461
-39.2484
-39.2509
-39.2536
-39.2564
-39.2594
-39.2626
-39.2659
-39.2693
-39.2729
-39.2766
-39.2805
-39.2845
-39.2887
-39.293
-39.2974
-39.302
-39.3067
-39.3115
-39.3164
-39.3215
-39.3266
-39.3319
-39.3373
-39.3427
-39.3483
-39.354
-39.3597
-39.3655
-39.3714
-39.3774
-39.3834
-39.3895
-39.3956
-39.4018
-39.408
-39.4143
-39.4206
-39.4269
-39.4333
-39.4397
-39.446
-39.4524
-39.4587
-39.4651
-39.4714
-39.4777
-39.484
-39.4902
-39.4964
-39.5025
-39.5085
-39.5145
-39.5204
-39.5263
-39.532
-39.5377
-39.5432
-39.5487
-39.554
-39.5592
-39.5642
-39.5692
-39.574
-39.5786
-39.5831
-39.5874
-39.5916
-39.5956
-39.5994
-39.603
-39.6064
-39.6097
-39.6127
-39.6156
-39.6183
-39.6207
-39.6229
-39.625
-39.6268
-39.6283
-39.6297
-39.6308
-39.6318
-39.6324
-39.6329
-39.6331
-39.6331
-39.6329
-39.6324
-39.6318
-39.6308
-39.6297
-39.6284
-39.6268
-39.625
-39.623
-39.6207
-39.6183
-39.6156
-39.6128
-39.6097
-39.6065
-39.603
-39.5994
-39.5956
-39.5916
-39.5874
-39.5831
-39.5786
-39.574
-39.5692
-39.5643
-39.5592
-39.554
-39.5487
-39.5433
-39.5377
-39.5321
-39.5263
-39.5205
-39.5146
-39.5086
-39.5026
-39.4964
-39.4903
-39.484
-39.4778
-39.4715
-39.4652
-39.4588
-39.4525
-39.4461
-39.4397
-39.4334
-39.427
-39.4207
-39.4144
-39.4082
-39.4019
-39.3957
-39.3896
-39.3835
-39.3775
-39.3715
-39.3656
-39.3598
-39.3541
-39.3484
-39.3429
-39.3374
-39.332
-39.3268
-39.3216
-39.3165
-39.3116
-39.3068
-39.3021
-39.2976
-39.2931
-39.2888
-39.2847
-39.2806
-39.2767
-39.273
-39.2694
-39.266
-39.2627
-39.2595
-39.2565
-39.2537
-39.2511
-39.2485
-39.2462
-39.244
-39.242
-39.2402
-39.2385
-39.237
-39.2357
-39.2345
-39.2335
-39.2327
-39.232
-39.2316
-39.2313
-39.2311
-43.1532
-43.1533
-43.1537
-43.1541
-43.1548
-43.1556
-43.1566
-43.1578
-43.1591
-43.1606
-43.1623
-43.1642
-43.1662
-43.1684
-43.1707
-43.1733
-43.1759
-43.1788
-43.1818
-43.185
-43.1883
-43.1917
-43.1954
-43.1991
-43.203
-43.2071
-43.2113
-43.2156
-43.2201
-43.2247
-43.2294
-43.2343
-43.2392
-43.2443
-43.2495
-43.2548
-43.2603
-43.2658
-43.2714
-43.2771
-43.2829
-43.2887
-43.2947
-43.3007
-43.3068
-43.3129
-43.3191
-43.3254
-43.3317
-43.338
-43.3444
-43.3508
-43.3572
-43.3636
-43.37
-43.3765
-43.3829
-43.3893
-43.3957
-43.4021
-43.4084
-43.4147
-43.4209
-43.4271
-43.4333
-43.4393
-43.4453
-43.4512
-43.457
-43.4628
-43.4684
-43.4739
-43.4793
-43.4845
-43.4897
-43.4946
-43.4995
-43.5042
-43.5087
-43.5131
-43.5173
-43.5214
-43.5252
-43.5289
-43.5324
-43.5357
-43.5388
-43.5417
-43.5444
-43.5469
-43.5491
-43.5512
-43.553
-43.5546
-43.556
-43.5572
-43.5581
-43.5588
-43.5592
-43.5595
-43.5595
-43.5592
-43.5588
-43.5581
-43.5572
-43.556
-43.5546
-43.553
-43.5512
-43.5492
-43.5469
-43.5444
-43.5417
-43.5388
-43.5357
-43.5324
-43.529
-43.5253
-43.5214
-43.5174
-43.5132
-43.5088
-43.5042
-43.4995
-43.4947
-43.4897
-43.4846
-43.4793
-43.4739
-43.4684
-43.4628
-43.4571
-43.4513
-43.4454
-43.4394
-43.4333
-43.4272
-43.421
-43.4148
-43.4085
-43.4022
-43.3958
-43.3894
-43.383
-43.3766
-43.3701
-43.3637
-43.3573
-43.3509
-43.3445
-43.3381
-43.3318
-43.3255
-43.3192
-43.313
-43.3069
-43.3008
-43.2948
-43.2889
-43.283
-43.2772
-43.2715
-43.2659
-43.2604
-43.255
-43.2496
-43.2444
-43.2394
-43.2344
-43.2295
-43.2248
-43.2202
-43.2157
-43.2114
-43.2072
-43.2032
-43.1992
-43.1955
-43.1919
-43.1884
-43.1851
-43.1819
-43.1789
-43.176
-43.1734
-43.1708
-43.1685
-43.1663
-43.1643
-43.1624
-43.1607
-43.1592
-43.1579
-43.1567
-43.1557
-43.1549
-43.1542
-43.1537
-43.1534
-43.1533
-47.0752
-47.0753
-47.0757
-47.0761
-47.0768
-47.0776
-47.0786
-47.0798
-47.0812
-47.0827
-47.0844
-47.0863
-47.0883
-47.0905
-47.0929
-47.0954
-47.0981
-47.101
-47.104
-47.1072
-47.1105
-47.114
-47.1177
-47.1215
-47.1254
-47.1295
-47.1337
-47.1381
-47.1426
-47.1473
-47.152
-47.1569
-47.1619
-47.1671
-47.1723
-47.1777
-47.1831
-47.1887
-47.1944
-47.2001
-47.206
-47.2119
-47.2179
-47.224
-47.2301
-47.2363
-47.2426
-47.2489
-47.2553
-47.2617
-47.2681
-47.2746
-47.2811
-47.2876
-47.2941
-47.3006
-47.3071
-47.3136
-47.32
-47.3265
-47.3329
-47.3393
-47.3456
-47.3519
-47.3581
-47.3642
-47.3703
-47.3763
-47.3821
-47.3879
-47.3936
-47.3992
-47.4047
-47.41
-47.4152
-47.4203
-47.4252
-47.43
-47.4346
-47.439
-47.4433
-47.4474
-47.4513
-47.455
-47.4586
-47.4619
-47.4651
-47.468
-47.4708
-47.4733
-47.4756
-47.4776
-47.4795
-47.4811
-47.4825
-47.4837
-47.4846
-47.4854
-47.4858
-47.4861
-47.4861
-47.4858
-47.4854
-47.4847
-47.4837
-47.4825
-47.4811
-47.4795
-47.4777
-47.4756
-47.4733
-47.4708
-47.468
-47.4651
-47.462
-47.4586
-47.4551
-47.4513
-47.4474
-47.4433
-47.4391
-47.4346
-47.43
-47.4252
-47.4203
-47.4153
-47.4101
-47.4047
-47.3993
-47.3937
-47.388
-47.3822
-47.3763
-47.3703
-47.3643
-47.3581
-47.3519
-47.3457
-47.3393
-47.333
-47.3266
-47.3201
-47.3137
-47.3072
-47.3007
-47.2942
-47.2877
-47.2812
-47.2747
-47.2682
-47.2618
-47.2554
-47.249
-47.2427
-47.2365
-47.2302
-47.2241
-47.218
-47.212
-47.2061
-47.2002
-47.1945
-47.1888
-47.1833
-47.1778
-47.1724
-47.1672
-47.1621
-47.157
-47.1521
-47.1474
-47.1427
-47.1382
-47.1339
-47.1296
-47.1255
-47.1216
-47.1178
-47.1141
-47.1106
-47.1073
-47.1041
-47.1011
-47.0982
-47.0955
-47.093
-47.0906
-47.0884
-47.0863
-47.0845
-47.0828
-47.0813
-47.0799
-47.0787
-47.0777
-47.0769
-47.0762
-47.0757
-47.0754
-47.0753
-50.997
-50.9972
-50.9975
-50.998
-50.9986
-50.9995
-51.0005
-51.0017
-51.003
-51.0046
-51.0063
-51.0082
-51.0102
-51.0124
-51.0148
-51.0174
-51.0201
-51.023
-51.0261
-51.0293
-51.0326
-51.0362
-51.0399
-51.0437
-51.0477
-51.0518
-51.0561
-51.0605
-51.065
-51.0697
-51.0745
-51.0795
-51.0845
-51.0897
-51.095
-51.1004
-51.1059
-51.1115
-51.1173
-51.1231
-51.129
-51.135
-51.1411
-51.1472
-51.1534
-51.1597
-51.166
-51.1724
-51.1789
-51.1853
-51.1918
-51.1984
-51.2049
-51.2115
-51.2181
-51.2247
-51.2313
-51.2378
-51.2444
-51.2509
-51.2574
-51.2639
-51.2703
-51.2766
-51.2829
-51.2892
-51.2953
-51.3014
-51.3074
-51.3132
-51.319
-51.3247
-51.3302
-51.3356
-51.3409
-51.346
-51.351
-51.3559
-51.3606
-51.3651
-51.3694
-51.3736
-51.3776
-51.3814
-51.385
-51.3884
-51.3916
-51.3945
-51.3973
-51.3999
-51.4022
-51.4043
-51.4062
-51.4079
-51.4093
-51.4105
-51.4114
-51.4122
-51.4126
-51.4129
-51.4129
-51.4126
-51.4122
-51.4114
-51.4105
-51.4093
-51.4079
-51.4062
-51.4043
-51.4022
-51.3999
-51.3973
-51.3946
-51.3916
-51.3884
-51.385
-51.3814
-51.3776
-51.3736
-51.3695
-51.3651
-51.3606
-51.3559
-51.3511
-51.3461
-51.3409
-51.3357
-51.3303
-51.3247
-51.3191
-51.3133
-51.3074
-51.3014
-51.2954
-51.2892
-51.283
-51.2767
-51.2704
-51.264
-51.2575
-51.251
-51.2445
-51.2379
-51.2314
-51.2248
-51.2182
-51.2116
-51.205
-51.1985
-51.1919
-51.1854
-51.179
-51.1725
-51.1661
-51.1598
-51.1535
-51.1473
-51.1412
-51.1351
-51.1291
-51.1232
-51.1174
-51.1117
-51.106
-51.1005
-51.0951
-51.0898
-51.0846
-51.0796
-51.0746
-51.0698
-51.0651
-51.0606
-51.0562
-51.0519
-51.0478
-51.0438
-51.04
-51.0363
-51.0328
-51.0294
-51.0262
-51.0231
-51.0202
-51.0175
-51.0149
-51.0125
-51.0103
-51.0083
-51.0064
-51.0047
-51.0031
-51.0018
-51.0006
-50.9996
-50.9987
-50.9981
-50.9976
-50.9973
-50.9971
-54.9187
-54.9188
-54.9191
-54.9196
-54.9203
-54.9211
-54.9222
-54.9233
-54.9247
-54.9263
-54.928
-54.9299
-54.932
-54.9342
-54.9366
-54.9392
-54.942
-54.9449
-54.948
-54.9512
-54.9546
-54.9582
-54.9619
-54.9657
-54.9698
-54.9739
-54.9782
-54.9827
-54.9873
-54.992
-54.9969
-55.0019
-55.007
-55.0122
-55.0176
-55.023
-55.0286
-55.0343
-55.0401
-55.046
-55.0519
-55.058
-55.0641
-55.0703
-55.0766
-55.083
-55.0894
-55.0959
-55.1024
-55.1089
-55.1155
-55.1221
-55.1288
-55.1355
-55.1421
-55.1488
-55.1555
-55.1621
-55.1688
-55.1754
-55.182
-55.1885
-55.195
-55.2015
-55.2079
-55.2142
-55.2204
-55.2266
-55.2327
-55.2386
-55.2445
-55.2502
-55.2559
-55.2614
-55.2667
-55.272
-55.277
-55.282
-55.2867
-55.2913
-55.2957
-55.3
-55.304
-55.3079
-55.3115
-55.315
-55.3182
-55.3213
-55.3241
-55.3267
-55.3291
-55.3312
-55.3332
-55.3348
-55.3363
-55.3375
-55.3385
-55.3392
-55.3397
-55.3399
-55.3399
-55.3397
-55.3392
-55.3385
-55.3375
-55.3363
-55.3349
-55.3332
-55.3313
-55.3291
-55.3267
-55.3241
-55.3213
-55.3183
-55.315
-55.3116
-55.3079
-55.304
-55.3
-55.2958
-55.2913
-55.2868
-55.282
-55.2771
-55.272
-55.2668
-55.2614
-55.2559
-55.2503
-55.2445
-55.2387
-55.2327
-55.2267
-55.2205
-55.2143
-55.2079
-55.2016
-55.1951
-55.1886
-55.1821
-55.1755
-55.1689
-55.1622
-55.1556
-55.1489
-55.1422
-55.1356
-55.1289
-55.1222
-55.1156
-55.109
-55.1025
-55.096
-55.0895
-55.0831
-55.0767
-55.0705
-55.0642
-55.0581
-55.052
-55.0461
-55.0402
-55.0344
-55.0287
-55.0231
-55.0177
-55.0123
-55.0071
-55.002
-54.997
-54.9921
-54.9874
-54.9828
-54.9784
-54.974
-54.9699
-54.9659
-54.962
-54.9583
-54.9547
-54.9513
-54.9481
-54.945
-54.9421
-54.9393
-54.9367
-54.9343
-54.9321
-54.93
-54.9281
-54.9264
-54.9248
-54.9234
-54.9222
-54.9212
-54.9204
-54.9197
-54.9192
-54.9189
-54.9188
-58.8401
-58.8403
-58.8406
-58.8411
-58.8418
-58.8426
-58.8436
-58.8449
-58.8462
-58.8478
-58.8496
-58.8515
-58.8536
-58.8558
-58.8583
-58.8609
-58.8636
-58.8666
-58.8697
-58.873
-58.8764
-58.88
-58.8837
-58.8877
-58.8917
-58.8959
-58.9003
-58.9048
-58.9094
-58.9142
-58.9191
-58.9241
-58.9293
-58.9346
-58.94
-58.9455
-58.9512
-58.9569
-58.9628
-58.9687
-58.9748
-58.9809
-58.9871
-58.9934
-58.9998
-59.0062
-59.0127
-59.0193
-59.0259
-59.0325
-59.0392
-59.0459
-59.0526
-59.0594
-59.0661
-59.0729
-59.0797
-59.0864
-59.0932
-59.0999
-59.1066
-59.1132
-59.1198
-59.1264
-59.1329
-59.1393
-59.1456
-59.1519
-59.1581
-59.1641
-59.1701
-59.1759
-59.1817
-59.1873
-59.1927
-59.198
-59.2032
-59.2082
-59.213
-59.2177
-59.2222
-59.2265
-59.2307
-59.2346
-59.2383
-59.2418
-59.2451
-59.2482
-59.2511
-59.2538
-59.2562
-59.2584
-59.2603
-59.2621
-59.2635
-59.2648
-59.2658
-59.2665
-59.267
-59.2672
-59.2672
-59.267
-59.2665
-59.2658
-59.2648
-59.2635
-59.2621
-59.2603
-59.2584
-59.2562
-59.2538
-59.2511
-59.2483
-59.2452
-59.2419
-59.2383
-59.2346
-59.2307
-59.2266
-59.2222
-59.2178
-59.2131
-59.2082
-59.2032
-59.1981
-59.1928
-59.1873
-59.1817
-59.176
-59.1701
-59.1642
-59.1581
-59.152
-59.1457
-59.1394
-59.1329
-59.1265
-59.1199
-59.1133
-59.1067
-59.1
-59.0933
-59.0865
-59.0798
-59.073
-59.0662
-59.0595
-59.0527
-59.046
-59.0393
-59.0326
-59.026
-59.0194
-59.0128
-59.0063
-58.9999
-58.9935
-58.9872
-58.981
-58.9749
-58.9688
-58.9629
-58.957
-58.9513
-58.9457
-58.9401
-58.9347
-58.9294
-58.9243
-58.9192
-58.9143
-58.9095
-58.9049
-58.9004
-58.896
-58.8918
-58.8878
-58.8839
-58.8801
-58.8765
-58.8731
-58.8698
-58.8667
-58.8638
-58.861
-58.8584
-58.8559
-58.8537
-58.8516
-58.8497
-58.8479
-58.8463
-58.845
-58.8437
-58.8427
-58.8419
-58.8412
-58.8407
-58.8404
-58.8402
-62.7614
-62.7616
-62.7619
-62.7624
-62.7631
-62.7639
-62.765
-62.7662
-62.7676
-62.7692
-62.7709
-62.7729
-62.775
-62.7773
-62.7797
-62.7824
-62.7852
-62.7881
-62.7913
-62.7946
-62.798
-62.8017
-62.8055
-62.8094
-62.8135
-62.8178
-62.8222
-62.8267
-62.8314
-62.8362
-62.8412
-62.8463
-62.8515
-62.8569
-62.8623
-62.8679
-62.8737
-62.8795
-62.8854
-62.8914
-62.8975
-62.9037
-62.91