/*--------------------------------*- C++ -*----------------------------------*\
| =========                 |                                                 |
| \\      /  F ield         | OpenFOAM: The Open Source CFD Toolbox           |
|  \\    /   O peration     | Version:  2412                                  |
|   \\  /    A nd           | Website:  www.openfoam.com                      |
|    \\/     M anipulation  |                                                 |
\*---------------------------------------------------------------------------*/
FoamFile
{
    version     2.0;
    format      ascii;
    arch        "LSB;label=32;scalar=64";
    class       volScalarField;
    location    "1.04";
    object      p_rgh;
}
// * * * * * * * * * * * * * * * * * * * * * * * * * * * * * * * * * * * * * //

dimensions      [1 -1 -2 0 0 0 0];

internalField   nonuniform List<scalar> 
40000
(
1.962
1.96186
1.96161
1.96118
1.96057
1.95979
1.95884
1.95772
1.95644
1.95498
1.95337
1.95159
1.94965
1.94755
1.9453
1.94288
1.94031
1.93759
1.93471
1.93168
1.92851
1.92519
1.92172
1.91812
1.91438
1.9105
1.90649
1.90236
1.89809
1.89371
1.8892
1.88458
1.87984
1.875
1.87005
1.865
1.85985
1.85462
1.84929
1.84388
1.83839
1.83283
1.8272
1.8215
1.81575
1.80994
1.80408
1.79818
1.79225
1.78628
1.78028
1.77427
1.76824
1.7622
1.75616
1.75012
1.7441
1.73809
1.7321
1.72614
1.72022
1.71434
1.70851
1.70273
1.69701
1.69136
1.68579
1.68029
1.67489
1.66957
1.66436
1.65925
1.65425
1.64937
1.64462
1.63999
1.6355
1.63115
1.62695
1.6229
1.619
1.61527
1.61171
1.60831
1.60509
1.60206
1.5992
1.59653
1.59406
1.59178
1.58969
1.58781
1.58613
1.58465
1.58338
1.58232
1.58147
1.58083
1.58041
1.58019
1.58019
1.5804
1.58083
1.58147
1.58232
1.58338
1.58464
1.58612
1.5878
1.58968
1.59176
1.59404
1.59652
1.59918
1.60204
1.60507
1.60829
1.61168
1.61524
1.61897
1.62286
1.62691
1.63111
1.63546
1.63994
1.64457
1.64932
1.6542
1.65919
1.6643
1.66951
1.67482
1.68023
1.68572
1.69129
1.69694
1.70265
1.70843
1.71426
1.72014
1.72606
1.73201
1.738
1.74401
1.75003
1.75607
1.7621
1.76814
1.77417
1.78018
1.78618
1.79214
1.79808
1.80398
1.80983
1.81564
1.82139
1.82709
1.83272
1.83828
1.84377
1.84918
1.8545
1.85974
1.86488
1.86993
1.87488
1.87972
1.88446
1.88908
1.89359
1.89798
1.90224
1.90638
1.91039
1.91427
1.91801
1.92161
1.92508
1.9284
1.93158
1.9346
1.93748
1.94021
1.94278
1.9452
1.94747
1.94957
1.95151
1.95329
1.95491
1.95637
1.95766
1.95879
1.95975
1.96054
1.96117
1.96163
1.96192
1.96205
1.96213
1.96201
1.96175
1.96131
1.9607
1.95992
1.95897
1.95785
1.95656
1.95511
1.9535
1.95172
1.94978
1.94768
1.94542
1.943
1.94043
1.9377
1.93483
1.9318
1.92862
1.9253
1.92183
1.91823
1.91448
1.91061
1.90659
1.90245
1.89819
1.8938
1.88929
1.88466
1.87993
1.87508
1.87013
1.86508
1.85993
1.85468
1.84935
1.84394
1.83845
1.83288
1.82725
1.82155
1.81579
1.80998
1.80412
1.79821
1.79227
1.7863
1.7803
1.77428
1.76824
1.7622
1.75616
1.75012
1.74408
1.73807
1.73208
1.72612
1.72019
1.7143
1.70846
1.70268
1.69696
1.69131
1.68573
1.68023
1.67481
1.66949
1.66427
1.65916
1.65416
1.64927
1.64451
1.63988
1.63539
1.63104
1.62683
1.62277
1.61888
1.61514
1.61157
1.60817
1.60495
1.60191
1.59905
1.59638
1.59391
1.59162
1.58954
1.58765
1.58597
1.58449
1.58322
1.58216
1.58131
1.58067
1.58024
1.58003
1.58003
1.58024
1.58066
1.5813
1.58215
1.58321
1.58448
1.58596
1.58764
1.58953
1.59161
1.59389
1.59637
1.59904
1.60189
1.60493
1.60815
1.61155
1.61511
1.61885
1.62274
1.62679
1.631
1.63535
1.63984
1.64447
1.64922
1.6541
1.6591
1.66421
1.66943
1.67475
1.68016
1.68565
1.69123
1.69688
1.7026
1.70838
1.71422
1.7201
1.72603
1.73199
1.73798
1.74399
1.75002
1.75606
1.76211
1.76815
1.77418
1.7802
1.7862
1.79217
1.79811
1.80401
1.80987
1.81568
1.82144
1.82714
1.83277
1.83834
1.84383
1.84924
1.85457
1.85981
1.86496
1.87001
1.87496
1.87981
1.88455
1.88917
1.89368
1.89807
1.90234
1.90648
1.91049
1.91437
1.91812
1.92172
1.92519
1.92851
1.93169
1.93472
1.9376
1.94033
1.94291
1.94533
1.94759
1.94969
1.95164
1.95342
1.95504
1.9565
1.95779
1.95892
1.95988
1.96067
1.9613
1.96176
1.96205
1.96218
1.96245
1.96233
1.96205
1.96161
1.96099
1.96021
1.95926
1.95813
1.95685
1.95539
1.95378
1.952
1.95005
1.94795
1.94569
1.94327
1.94069
1.93796
1.93508
1.93205
1.92887
1.92554
1.92208
1.91846
1.91472
1.91083
1.90682
1.90267
1.8984
1.894
1.88949
1.88486
1.88011
1.87526
1.8703
1.86524
1.86008
1.85484
1.8495
1.84408
1.83858
1.833
1.82736
1.82165
1.81588
1.81006
1.80419
1.79828
1.79233
1.78634
1.78033
1.7743
1.76826
1.76221
1.75615
1.7501
1.74406
1.73803
1.73203
1.72605
1.72012
1.71422
1.70837
1.70258
1.69684
1.69118
1.68559
1.68008
1.67465
1.66932
1.66409
1.65897
1.65396
1.64906
1.64429
1.63965
1.63515
1.63078
1.62657
1.6225
1.6186
1.61485
1.61128
1.60787
1.60464
1.60159
1.59873
1.59605
1.59357
1.59128
1.58919
1.5873
1.58561
1.58413
1.58286
1.58179
1.58094
1.5803
1.57987
1.57966
1.57966
1.57987
1.5803
1.58094
1.58179
1.58285
1.58412
1.5856
1.58729
1.58918
1.59127
1.59356
1.59604
1.59871
1.60157
1.60462
1.60785
1.61125
1.61482
1.61857
1.62247
1.62653
1.63074
1.6351
1.6396
1.64424
1.64901
1.6539
1.65891
1.66403
1.66926
1.67459
1.68001
1.68552
1.69111
1.69677
1.7025
1.70829
1.71414
1.72003
1.72597
1.73194
1.73794
1.74397
1.75001
1.75606
1.76211
1.76816
1.77421
1.78023
1.78624
1.79222
1.79817
1.80409
1.80995
1.81578
1.82154
1.82725
1.83289
1.83847
1.84396
1.84938
1.85472
1.85997
1.86513
1.87019
1.87514
1.88
1.88474
1.88937
1.89389
1.89828
1.90256
1.9067
1.91072
1.9146
1.91835
1.92196
1.92544
1.92876
1.93194
1.93498
1.93786
1.94059
1.94317
1.9456
1.94786
1.94997
1.95191
1.9537
1.95532
1.95678
1.95807
1.9592
1.96016
1.96096
1.96159
1.96205
1.96234
1.96247
1.96294
1.96281
1.96252
1.96207
1.96145
1.96067
1.95971
1.95859
1.9573
1.95584
1.95422
1.95244
1.95049
1.94838
1.94612
1.94369
1.94111
1.93838
1.93549
1.93245
1.92927
1.92593
1.92246
1.91884
1.91508
1.91119
1.90717
1.90301
1.89873
1.89433
1.88981
1.88516
1.88041
1.87555
1.87058
1.8655
1.86034
1.85508
1.84973
1.84429
1.83878
1.83319
1.82753
1.82181
1.81603
1.81019
1.80431
1.79838
1.79241
1.78641
1.78039
1.77434
1.76828
1.76221
1.75614
1.75007
1.74401
1.73797
1.73195
1.72596
1.72
1.71409
1.70822
1.70241
1.69666
1.69097
1.68537
1.67984
1.6744
1.66905
1.6638
1.65866
1.65363
1.64872
1.64394
1.63928
1.63476
1.63038
1.62615
1.62207
1.61815
1.6144
1.61081
1.60739
1.60415
1.60109
1.59822
1.59553
1.59304
1.59074
1.58864
1.58674
1.58505
1.58356
1.58229
1.58122
1.58036
1.57972
1.57929
1.57907
1.57907
1.57929
1.57971
1.58036
1.58121
1.58228
1.58356
1.58504
1.58673
1.58863
1.59073
1.59302
1.59551
1.5982
1.60107
1.60413
1.60737
1.61078
1.61437
1.61812
1.62204
1.62611
1.63034
1.63472
1.63923
1.64389
1.64867
1.65358
1.65861
1.66374
1.66899
1.67433
1.67977
1.6853
1.6909
1.69658
1.70233
1.70814
1.71401
1.71992
1.72587
1.73186
1.73788
1.74392
1.74998
1.75605
1.76212
1.76819
1.77424
1.78029
1.78631
1.79231
1.79828
1.8042
1.81009
1.81592
1.8217
1.82742
1.83308
1.83867
1.84418
1.84961
1.85496
1.86022
1.86539
1.87046
1.87543
1.88029
1.88505
1.88969
1.89421
1.89862
1.9029
1.90706
1.91108
1.91497
1.91873
1.92235
1.92582
1.92916
1.93235
1.93539
1.93828
1.94101
1.9436
1.94602
1.94829
1.9504
1.95235
1.95414
1.95577
1.95723
1.95852
1.95965
1.96062
1.96141
1.96204
1.9625
1.96279
1.96293
1.96358
1.96345
1.96316
1.96271
1.96209
1.96129
1.96033
1.95921
1.95791
1.95645
1.95483
1.95304
1.95109
1.94897
1.9467
1.94427
1.94168
1.93894
1.93605
1.933
1.92981
1.92647
1.92298
1.91935
1.91559
1.91169
1.90765
1.90349
1.89919
1.89478
1.89024
1.88558
1.88081
1.87594
1.87095
1.86587
1.86068
1.8554
1.85004
1.84459
1.83906
1.83345
1.82777
1.82203
1.81623
1.81037
1.80447
1.79852
1.79253
1.78651
1.78046
1.7744
1.76831
1.76222
1.75613
1.75003
1.74395
1.73788
1.73184
1.72582
1.71984
1.71391
1.70802
1.70218
1.69641
1.6907
1.68507
1.67951
1.67405
1.66868
1.66341
1.65824
1.65319
1.64826
1.64345
1.63877
1.63423
1.62983
1.62558
1.62149
1.61755
1.61377
1.61017
1.60673
1.60348
1.6004
1.59751
1.59481
1.59231
1.59
1.58789
1.58598
1.58428
1.58279
1.5815
1.58043
1.57957
1.57892
1.57849
1.57827
1.57827
1.57849
1.57892
1.57956
1.58042
1.5815
1.58278
1.58427
1.58597
1.58788
1.58998
1.59229
1.5948
1.59749
1.60038
1.60345
1.60671
1.61014
1.61374
1.61752
1.62145
1.62555
1.62979
1.63419
1.63873
1.6434
1.64821
1.65314
1.65819
1.66335
1.66862
1.67399
1.67945
1.685
1.69063
1.69633
1.7021
1.70794
1.71383
1.71976
1.72574
1.73175
1.7378
1.74386
1.74994
1.75603
1.76213
1.76822
1.7743
1.78037
1.78641
1.79243
1.79842
1.80436
1.81027
1.81612
1.82192
1.82766
1.83334
1.83894
1.84447
1.84992
1.85529
1.86057
1.86575
1.87084
1.87582
1.8807
1.88547
1.89012
1.89466
1.89908
1.90337
1.90754
1.91157
1.91548
1.91924
1.92287
1.92636
1.9297
1.9329
1.93594
1.93884
1.94159
1.94418
1.94661
1.94888
1.951
1.95296
1.95475
1.95638
1.95784
1.95914
1.96027
1.96124
1.96204
1.96267
1.96313
1.96342
1.96355
1.96439
1.96426
1.96397
1.96351
1.96288
1.96209
1.96112
1.95999
1.95869
1.95723
1.9556
1.9538
1.95185
1.94973
1.94745
1.94501
1.94241
1.93966
1.93676
1.9337
1.9305
1.92714
1.92365
1.92001
1.91623
1.91231
1.90826
1.90408
1.89977
1.89534
1.89079
1.88611
1.88133
1.87643
1.87143
1.86632
1.86112
1.85582
1.85043
1.84496
1.83941
1.83378
1.82808
1.82231
1.81649
1.81061
1.80467
1.7987
1.79268
1.78664
1.78056
1.77446
1.76835
1.76223
1.75611
1.74999
1.74387
1.73778
1.7317
1.72566
1.71965
1.71368
1.70776
1.70189
1.69608
1.69035
1.68468
1.6791
1.67361
1.66821
1.66291
1.65771
1.65263
1.64767
1.64283
1.63813
1.63356
1.62914
1.62486
1.62074
1.61678
1.61298
1.60935
1.6059
1.60262
1.59953
1.59662
1.5939
1.59138
1.58906
1.58694
1.58502
1.5833
1.5818
1.58051
1.57943
1.57856
1.57791
1.57748
1.57726
1.57726
1.57747
1.57791
1.57856
1.57942
1.5805
1.58179
1.58329
1.585
1.58692
1.58904
1.59137
1.59388
1.5966
1.5995
1.6026
1.60587
1.60932
1.61295
1.61674
1.6207
1.62482
1.6291
1.63352
1.63808
1.64279
1.64762
1.65258
1.65766
1.66285
1.66815
1.67354
1.67904
1.68462
1.69028
1.69601
1.70181
1.70768
1.7136
1.71957
1.72557
1.73162
1.73769
1.74379
1.7499
1.75601
1.76214
1.76826
1.77437
1.78046
1.78653
1.79258
1.79859
1.80457
1.8105
1.81638
1.8222
1.82797
1.83367
1.83929
1.84485
1.85032
1.85571
1.861
1.86621
1.87131
1.87632
1.88121
1.886
1.89067
1.89522
1.89966
1.90397
1.90815
1.9122
1.91612
1.9199
1.92354
1.92703
1.93039
1.9336
1.93665
1.93956
1.94231
1.94491
1.94735
1.94963
1.95176
1.95372
1.95552
1.95715
1.95862
1.95992
1.96106
1.96203
1.96283
1.96346
1.96392
1.96422
1.96435
1.96537
1.96524
1.96494
1.96448
1.96385
1.96305
1.96208
1.96095
1.95964
1.95817
1.95653
1.95473
1.95277
1.95064
1.94835
1.9459
1.94329
1.94053
1.93762
1.93455
1.93133
1.92796
1.92445
1.9208
1.917
1.91307
1.909
1.90481
1.90048
1.89603
1.89145
1.88676
1.88195
1.87703
1.87201
1.86688
1.86165
1.85633
1.85091
1.84541
1.83983
1.83418
1.82845
1.82265
1.8168
1.81089
1.80492
1.79892
1.79287
1.78679
1.78068
1.77455
1.7684
1.76225
1.75609
1.74993
1.74378
1.73765
1.73154
1.72545
1.71941
1.7134
1.70744
1.70154
1.6957
1.68992
1.68422
1.6786
1.67307
1.66763
1.6623
1.65707
1.65195
1.64696
1.64209
1.63735
1.63275
1.62829
1.62399
1.61983
1.61584
1.61202
1.60836
1.60488
1.60158
1.59846
1.59553
1.5928
1.59026
1.58792
1.58578
1.58384
1.58212
1.5806
1.5793
1.57821
1.57734
1.57668
1.57624
1.57602
1.57602
1.57624
1.57668
1.57733
1.5782
1.57929
1.58059
1.58211
1.58383
1.58576
1.5879
1.59024
1.59278
1.59551
1.59844
1.60155
1.60485
1.60833
1.61199
1.61581
1.6198
1.62395
1.62825
1.63271
1.6373
1.64204
1.64691
1.6519
1.65701
1.66224
1.66757
1.67301
1.67854
1.68415
1.68985
1.69562
1.70146
1.70737
1.71332
1.71933
1.72537
1.73145
1.73756
1.74369
1.74984
1.75599
1.76215
1.76831
1.77445
1.78058
1.78669
1.79277
1.79881
1.80482
1.81078
1.81669
1.82254
1.82834
1.83406
1.83972
1.8453
1.8508
1.85621
1.86153
1.86676
1.87189
1.87692
1.88184
1.88664
1.89134
1.89591
1.90036
1.90469
1.90889
1.91296
1.91689
1.92069
1.92434
1.92785
1.93122
1.93444
1.93751
1.94043
1.94319
1.9458
1.94825
1.95054
1.95267
1.95464
1.95645
1.95809
1.95956
1.96087
1.96201
1.96299
1.96379
1.96442
1.96489
1.96518
1.96532
1.96651
1.96638
1.96608
1.96562
1.96498
1.96418
1.96321
1.96207
1.96075
1.95928
1.95763
1.95582
1.95385
1.95171
1.94941
1.94695
1.94433
1.94156
1.93863
1.93554
1.93231
1.92893
1.9254
1.92173
1.91792
1.91397
1.90988
1.90566
1.90131
1.89684
1.89224
1.88752
1.88269
1.87774
1.87269
1.86753
1.86228
1.85692
1.85148
1.84595
1.84034
1.83465
1.82888
1.82306
1.81716
1.81122
1.80522
1.79917
1.79309
1.78697
1.78082
1.77465
1.76846
1.76226
1.75606
1.74986
1.74367
1.7375
1.73134
1.72522
1.71913
1.71307
1.70707
1.70112
1.69524
1.68942
1.68368
1.67801
1.67244
1.66696
1.66158
1.65631
1.65115
1.64612
1.64121
1.63643
1.63179
1.6273
1.62296
1.61877
1.61474
1.61088
1.6072
1.60369
1.60036
1.59721
1.59426
1.5915
1.58893
1.58657
1.58441
1.58246
1.58072
1.57919
1.57788
1.57678
1.5759
1.57523
1.57479
1.57457
1.57457
1.57479
1.57523
1.57589
1.57677
1.57787
1.57918
1.58071
1.58245
1.5844
1.58655
1.58892
1.59148
1.59424
1.59719
1.60033
1.60366
1.60717
1.61085
1.61471
1.61873
1.62292
1.62726
1.63175
1.63638
1.64116
1.64607
1.6511
1.65626
1.66152
1.6669
1.67238
1.67795
1.68361
1.68935
1.69517
1.70105
1.707
1.713
1.71905
1.72514
1.73126
1.73741
1.74358
1.74977
1.75597
1.76217
1.76837
1.77455
1.78072
1.78687
1.79298
1.79907
1.80511
1.81111
1.81705
1.82294
1.82877
1.83453
1.84022
1.84583
1.85136
1.85681
1.86216
1.86742
1.87257
1.87763
1.88257
1.8874
1.89212
1.89672
1.9012
1.90554
1.90976
1.91385
1.9178
1.92162
1.92529
1.92882
1.9322
1.93544
1.93852
1.94145
1.94423
1.94685
1.94931
1.95161
1.95375
1.95573
1.95755
1.95919
1.96067
1.96199
1.96313
1.96411
1.96492
1.96556
1.96602
1.96632
1.96645
1.96782
1.96769
1.96739
1.96693
1.96629
1.96548
1.9645
1.96335
1.96203
1.96055
1.9589
1.95708
1.95509
1.95294
1.95063
1.94816
1.94553
1.94274
1.93979
1.93669
1.93344
1.93004
1.92649
1.9228
1.91897
1.91499
1.91088
1.90664
1.90227
1.89777
1.89314
1.8884
1.88354
1.87856
1.87348
1.86829
1.863
1.85761
1.85213
1.84657
1.84092
1.83519
1.82939
1.82352
1.81759
1.8116
1.80556
1.79947
1.79334
1.78717
1.78098
1.77477
1.76853
1.76229
1.75604
1.74979
1.74355
1.73732
1.73112
1.72494
1.7188
1.7127
1.70665
1.70065
1.69471
1.68884
1.68305
1.67734
1.67171
1.66618
1.66076
1.65544
1.65023
1.64515
1.64019
1.63537
1.63069
1.62615
1.62177
1.61754
1.61348
1.60958
1.60585
1.60231
1.59895
1.59577
1.59279
1.59
1.58741
1.58502
1.58284
1.58087
1.57911
1.57757
1.57624
1.57513
1.57424
1.57357
1.57312
1.5729
1.5729
1.57312
1.57356
1.57423
1.57512
1.57623
1.57756
1.5791
1.58086
1.58283
1.585
1.58739
1.58998
1.59276
1.59575
1.59892
1.60228
1.60582
1.60955
1.61344
1.6175
1.62173
1.62611
1.63065
1.63533
1.64015
1.6451
1.65018
1.65538
1.6607
1.66613
1.67165
1.67727
1.68299
1.68878
1.69464
1.70058
1.70657
1.71262
1.71872
1.72486
1.73104
1.73724
1.74346
1.7497
1.75594
1.76219
1.76844
1.77467
1.78088
1.78707
1.79324
1.79936
1.80545
1.81149
1.81748
1.82341
1.82928
1.83508
1.8408
1.84645
1.85202
1.8575
1.86288
1.86817
1.87336
1.87844
1.88342
1.88828
1.89303
1.89765
1.90215
1.90653
1.91077
1.91488
1.91885
1.92269
1.92638
1.92993
1.93333
1.93659
1.93969
1.94263
1.94542
1.94806
1.95053
1.95285
1.955
1.95698
1.95881
1.96046
1.96195
1.96327
1.96442
1.96541
1.96622
1.96686
1.96733
1.96762
1.96776
1.96931
1.96917
1.96887
1.9684
1.96776
1.96695
1.96596
1.96481
1.96348
1.96199
1.96032
1.95849
1.9565
1.95434
1.95201
1.94952
1.94688
1.94407
1.94111
1.93799
1.93472
1.9313
1.92773
1.92402
1.92016
1.91616
1.91202
1.90775
1.90335
1.89882
1.89417
1.88939
1.8845
1.87949
1.87437
1.86914
1.86382
1.85839
1.85287
1.84727
1.84157
1.8358
1.82996
1.82405
1.81807
1.81203
1.80594
1.79981
1.79363
1.78741
1.78117
1.7749
1.76861
1.76231
1.75601
1.74971
1.74341
1.73713
1.73087
1.72464
1.71844
1.71228
1.70617
1.70011
1.69412
1.68819
1.68234
1.67657
1.67089
1.66531
1.65983
1.65445
1.64919
1.64406
1.63905
1.63417
1.62944
1.62486
1.62042
1.61615
1.61204
1.6081
1.60433
1.60075
1.59735
1.59414
1.59112
1.5883
1.58568
1.58327
1.58106
1.57907
1.57729
1.57572
1.57438
1.57326
1.57236
1.57168
1.57123
1.571
1.571
1.57122
1.57167
1.57235
1.57325
1.57437
1.57571
1.57727
1.57905
1.58104
1.58325
1.58566
1.58828
1.59109
1.59411
1.59732
1.60072
1.6043
1.60807
1.612
1.61611
1.62038
1.62481
1.6294
1.63413
1.639
1.64401
1.64914
1.6544
1.65977
1.66525
1.67083
1.67651
1.68228
1.68813
1.69405
1.70004
1.7061
1.7122
1.71836
1.72456
1.73079
1.73705
1.74332
1.74962
1.75592
1.76222
1.76852
1.7748
1.78107
1.78731
1.79352
1.7997
1.80584
1.81192
1.81796
1.82393
1.82985
1.83569
1.84146
1.84715
1.85276
1.85827
1.8637
1.86903
1.87425
1.87937
1.88438
1.88927
1.89405
1.89871
1.90324
1.90764
1.91191
1.91605
1.92004
1.9239
1.92762
1.93119
1.93461
1.93788
1.941
1.94397
1.94677
1.94942
1.95191
1.95424
1.9564
1.9584
1.96023
1.9619
1.9634
1.96473
1.96588
1.96687
1.96769
1.96833
1.9688
1.9691
1.96923
1.97096
1.97083
1.97053
1.97005
1.96941
1.96859
1.9676
1.96643
1.9651
1.96359
1.96192
1.96008
1.95807
1.95589
1.95355
1.95105
1.94839
1.94556
1.94258
1.93944
1.93615
1.93271
1.92911
1.92537
1.92149
1.91746
1.9133
1.909
1.90456
1.9
1.89531
1.8905
1.88557
1.88052
1.87537
1.8701
1.86473
1.85926
1.8537
1.84805
1.84231
1.83649
1.8306
1.82464
1.81861
1.81252
1.80638
1.80019
1.79395
1.78768
1.78138
1.77505
1.7687
1.76235
1.75598
1.74962
1.74326
1.73692
1.73059
1.7243
1.71803
1.71181
1.70564
1.69952
1.69346
1.68747
1.68155
1.67572
1.66998
1.66433
1.65878
1.65335
1.64803
1.64283
1.63777
1.63284
1.62805
1.62341
1.61892
1.61459
1.61043
1.60645
1.60263
1.599
1.59556
1.59231
1.58925
1.5864
1.58374
1.5813
1.57907
1.57705
1.57524
1.57366
1.5723
1.57116
1.57025
1.56956
1.56911
1.56888
1.56888
1.5691
1.56956
1.57024
1.57115
1.57229
1.57365
1.57523
1.57703
1.57905
1.58128
1.58372
1.58637
1.58923
1.59228
1.59553
1.59897
1.6026
1.60641
1.6104
1.61456
1.61888
1.62336
1.628
1.63279
1.63772
1.64278
1.64798
1.65329
1.65873
1.66427
1.66992
1.67566
1.68149
1.6874
1.69339
1.69945
1.70556
1.71174
1.71796
1.72422
1.73051
1.73683
1.74317
1.74953
1.75589
1.76225
1.76861
1.77495
1.78128
1.78758
1.79385
1.80008
1.80627
1.81241
1.8185
1.82452
1.83049
1.83638
1.8422
1.84793
1.85359
1.85915
1.86461
1.86998
1.87525
1.88041
1.88545
1.89038
1.89519
1.89988
1.90445
1.90888
1.91318
1.91735
1.92137
1.92526
1.929
1.9326
1.93604
1.93933
1.94247
1.94546
1.94828
1.95095
1.95345
1.95579
1.95797
1.95998
1.96183
1.9635
1.96501
1.96635
1.96751
1.96851
1.96933
1.96997
1.97045
1.97075
1.97088
1.97279
1.97265
1.97235
1.97187
1.97122
1.9704
1.9694
1.96823
1.96689
1.96537
1.96368
1.96183
1.95981
1.95762
1.95526
1.95274
1.95005
1.94721
1.94421
1.94105
1.93773
1.93426
1.93064
1.92687
1.92296
1.9189
1.91471
1.91037
1.90591
1.90131
1.89658
1.89173
1.88676
1.88167
1.87647
1.87116
1.86575
1.86023
1.85462
1.84892
1.84313
1.83726
1.83131
1.82529
1.81921
1.81306
1.80686
1.80061
1.79431
1.78798
1.78161
1.77522
1.76881
1.76238
1.75595
1.74952
1.7431
1.73668
1.73029
1.72392
1.71759
1.7113
1.70505
1.69886
1.69273
1.68667
1.68068
1.67478
1.66896
1.66325
1.65763
1.65213
1.64674
1.64148
1.63635
1.63135
1.6265
1.6218
1.61726
1.61287
1.60866
1.60461
1.60075
1.59707
1.59358
1.59028
1.58719
1.58429
1.5816
1.57912
1.57686
1.57481
1.57298
1.57138
1.57
1.56884
1.56792
1.56722
1.56676
1.56652
1.56652
1.56675
1.56722
1.56791
1.56883
1.56999
1.57137
1.57297
1.5748
1.57684
1.5791
1.58158
1.58427
1.58716
1.59026
1.59355
1.59704
1.60072
1.60458
1.60862
1.61284
1.61722
1.62176
1.62646
1.63131
1.6363
1.64143
1.64669
1.65208
1.65758
1.66319
1.6689
1.67472
1.68062
1.6866
1.69266
1.69879
1.70498
1.71122
1.71751
1.72384
1.7302
1.7366
1.74301
1.74943
1.75586
1.76229
1.76871
1.77512
1.78151
1.78787
1.79421
1.8005
1.80675
1.81295
1.8191
1.82518
1.8312
1.83714
1.84301
1.8488
1.8545
1.86011
1.86563
1.87104
1.87635
1.88155
1.88664
1.89161
1.89646
1.90119
1.90579
1.91026
1.91459
1.91879
1.92285
1.92676
1.93053
1.93415
1.93762
1.94094
1.9441
1.9471
1.94995
1.95264
1.95516
1.95752
1.95971
1.96173
1.96359
1.96528
1.96679
1.96814
1.96931
1.97031
1.97114
1.97179
1.97227
1.97257
1.97271
1.97479
1.97465
1.97435
1.97387
1.97321
1.97238
1.97138
1.9702
1.96884
1.96732
1.96562
1.96375
1.96171
1.9595
1.95713
1.95459
1.95188
1.94902
1.94599
1.94281
1.93946
1.93597
1.93232
1.92852
1.92457
1.92048
1.91625
1.91188
1.90738
1.90274
1.89797
1.89308
1.88806
1.88293
1.87768
1.87232
1.86686
1.86129
1.85563
1.84987
1.84403
1.8381
1.83209
1.82601
1.81987
1.81366
1.80739
1.80107
1.79471
1.78831
1.78187
1.77541
1.76893
1.76243
1.75592
1.74942
1.74292
1.73643
1.72996
1.72351
1.7171
1.71073
1.70441
1.69814
1.69193
1.68579
1.67973
1.67375
1.66786
1.66206
1.65637
1.65079
1.64533
1.64
1.63479
1.62973
1.62481
1.62004
1.61543
1.61098
1.60671
1.6026
1.59868
1.59495
1.59141
1.58806
1.58492
1.58198
1.57925
1.57673
1.57443
1.57235
1.5705
1.56887
1.56746
1.56629
1.56535
1.56465
1.56418
1.56394
1.56394
1.56417
1.56464
1.56535
1.56629
1.56746
1.56886
1.57048
1.57234
1.57442
1.57671
1.57923
1.58196
1.58489
1.58804
1.59138
1.59492
1.59865
1.60257
1.60667
1.61095
1.61539
1.62
1.62477
1.62968
1.63475
1.63995
1.64528
1.65074
1.65632
1.662
1.66779
1.67368
1.67966
1.68572
1.69186
1.69807
1.70433
1.71066
1.71702
1.72343
1.72987
1.73634
1.74283
1.74933
1.75583
1.76233
1.76883
1.77531
1.78177
1.7882
1.7946
1.80097
1.80728
1.81355
1.81975
1.8259
1.83198
1.83798
1.84391
1.84976
1.85551
1.86118
1.86674
1.87221
1.87756
1.88281
1.88795
1.89296
1.89785
1.90262
1.90726
1.91177
1.91614
1.92037
1.92446
1.92841
1.9322
1.93585
1.93935
1.9427
1.94588
1.94891
1.95178
1.95448
1.95703
1.9594
1.96161
1.96365
1.96552
1.96722
1.96875
1.9701
1.97129
1.97229
1.97313
1.97378
1.97426
1.97457
1.9747
1.97697
1.97683
1.97652
1.97604
1.97538
1.97454
1.97353
1.97234
1.97097
1.96943
1.96772
1.96584
1.96378
1.96156
1.95916
1.9566
1.95388
1.95099
1.94793
1.94472
1.94135
1.93782
1.93414
1.93031
1.92633
1.92221
1.91794
1.91353
1.90898
1.9043
1.89949
1.89455
1.88949
1.8843
1.87901
1.87359
1.86808
1.86245
1.85673
1.85091
1.84501
1.83902
1.83295
1.8268
1.82059
1.81431
1.80797
1.80158
1.79515
1.78867
1.78216
1.77562
1.76906
1.76248
1.7559
1.74931
1.74273
1.73615
1.7296
1.72307
1.71658
1.71012
1.70371
1.69736
1.69106
1.68484
1.67869
1.67262
1.66665
1.66077
1.655
1.64934
1.6438
1.63838
1.6331
1.62796
1.62296
1.61812
1.61344
1.60892
1.60458
1.60041
1.59643
1.59264
1.58904
1.58564
1.58244
1.57945
1.57668
1.57412
1.57178
1.56967
1.56778
1.56613
1.5647
1.56351
1.56256
1.56184
1.56136
1.56112
1.56112
1.56136
1.56183
1.56255
1.5635
1.56469
1.56612
1.56777
1.56966
1.57177
1.5741
1.57666
1.57943
1.58242
1.58561
1.58901
1.59261
1.5964
1.60038
1.60454
1.60889
1.6134
1.61808
1.62292
1.62791
1.63305
1.63833
1.64375
1.64928
1.65494
1.66071
1.66659
1.67256
1.67862
1.68477
1.69099
1.69728
1.70364
1.71004
1.7165
1.72299
1.72952
1.73607
1.74264
1.74922
1.7558
1.76239
1.76896
1.77552
1.78206
1.78857
1.79504
1.80148
1.80786
1.8142
1.82048
1.82669
1.83283
1.8389
1.84489
1.8508
1.85661
1.86234
1.86796
1.87348
1.87889
1.88419
1.88937
1.89443
1.89937
1.90418
1.90886
1.91341
1.91782
1.92209
1.92622
1.9302
1.93403
1.93771
1.94124
1.94461
1.94782
1.95088
1.95377
1.9565
1.95906
1.96145
1.96368
1.96574
1.96762
1.96934
1.97088
1.97224
1.97343
1.97445
1.97529
1.97595
1.97643
1.97674
1.97688
1.97932
1.97918
1.97887
1.97838
1.97772
1.97687
1.97585
1.97465
1.97327
1.97172
1.97
1.9681
1.96602
1.96378
1.96136
1.95878
1.95603
1.95311
1.95004
1.94679
1.94339
1.93983
1.93612
1.93225
1.92824
1.92407
1.91976
1.91531
1.91072
1.90599
1.90113
1.89614
1.89103
1.88579
1.88044
1.87497
1.86939
1.86371
1.85793
1.85205
1.84608
1.84002
1.83388
1.82766
1.82137
1.81502
1.80861
1.80214
1.79563
1.78907
1.78248
1.77585
1.76921
1.76255
1.75587
1.7492
1.74252
1.73586
1.72922
1.7226
1.71601
1.70946
1.70296
1.69652
1.69013
1.68381
1.67757
1.67141
1.66535
1.65938
1.65351
1.64776
1.64213
1.63663
1.63127
1.62604
1.62096
1.61604
1.61128
1.60669
1.60227
1.59804
1.59399
1.59013
1.58647
1.58301
1.57976
1.57672
1.57389
1.57129
1.56891
1.56676
1.56484
1.56315
1.5617
1.56049
1.55952
1.55879
1.5583
1.55806
1.55806
1.5583
1.55879
1.55951
1.56049
1.5617
1.56314
1.56483
1.56675
1.5689
1.57127
1.57387
1.5767
1.57973
1.58298
1.58644
1.5901
1.59396
1.598
1.60224
1.60665
1.61124
1.616
1.62092
1.62599
1.63122
1.63658
1.64208
1.64771
1.65346
1.65932
1.66528
1.67135
1.6775
1.68374
1.69006
1.69644
1.70289
1.70939
1.71593
1.72252
1.72913
1.73577
1.74243
1.7491
1.75578
1.76245
1.76911
1.77575
1.78237
1.78896
1.79552
1.80203
1.8085
1.81491
1.82126
1.82755
1.83376
1.8399
1.84596
1.85193
1.85781
1.86359
1.86928
1.87485
1.88032
1.88567
1.89091
1.89602
1.90101
1.90587
1.9106
1.91519
1.91964
1.92396
1.92812
1.93214
1.93601
1.93972
1.94328
1.94668
1.94993
1.95301
1.95592
1.95867
1.96126
1.96368
1.96592
1.968
1.9699
1.97162
1.97318
1.97455
1.97576
1.97678
1.97762
1.97829
1.97878
1.97909
1.97923
1.98185
1.98171
1.9814
1.98091
1.98024
1.97938
1.97835
1.97714
1.97575
1.97419
1.97244
1.97053
1.96844
1.96617
1.96373
1.96113
1.95835
1.95541
1.9523
1.94903
1.94559
1.942
1.93825
1.93435
1.93029
1.92608
1.92173
1.91723
1.91259
1.90781
1.9029
1.89786
1.89269
1.8874
1.88199
1.87646
1.87082
1.86507
1.85922
1.85327
1.84723
1.8411
1.83488
1.82859
1.82222
1.81579
1.8093
1.80275
1.79615
1.7895
1.78282
1.77611
1.76937
1.76262
1.75585
1.74908
1.74231
1.73555
1.72881
1.72209
1.71541
1.70876
1.70216
1.69561
1.68912
1.68271
1.67637
1.67011
1.66394
1.65788
1.65192
1.64607
1.64034
1.63475
1.62929
1.62397
1.61881
1.6138
1.60896
1.60428
1.59979
1.59547
1.59135
1.58742
1.58369
1.58017
1.57686
1.57376
1.57089
1.56823
1.56581
1.56362
1.56166
1.55995
1.55847
1.55723
1.55624
1.5555
1.555
1.55475
1.55475
1.555
1.55549
1.55624
1.55723
1.55846
1.55994
1.56165
1.56361
1.5658
1.56822
1.57087
1.57374
1.57683
1.58014
1.58367
1.58739
1.59132
1.59544
1.59975
1.60425
1.60892
1.61376
1.61877
1.62393
1.62924
1.6347
1.64029
1.64601
1.65186
1.65782
1.66388
1.67004
1.6763
1.68264
1.68905
1.69554
1.70208
1.70868
1.71533
1.72201
1.72873
1.73546
1.74222
1.74899
1.75576
1.76252
1.76927
1.77601
1.78272
1.7894
1.79604
1.80264
1.80919
1.81568
1.82211
1.82848
1.83477
1.84098
1.84711
1.85315
1.8591
1.86495
1.8707
1.87634
1.88187
1.88728
1.89257
1.89774
1.90279
1.9077
1.91247
1.91711
1.92161
1.92596
1.93017
1.93423
1.93814
1.94189
1.94548
1.94891
1.95219
1.9553
1.95824
1.96102
1.96363
1.96607
1.96833
1.97042
1.97234
1.97409
1.97565
1.97704
1.97825
1.97929
1.98014
1.98081
1.9813
1.98162
1.98176
1.98457
1.98442
1.98411
1.98361
1.98293
1.98207
1.98103
1.97981
1.97841
1.97683
1.97507
1.97313
1.97102
1.96873
1.96627
1.96364
1.96084
1.95787
1.95473
1.95142
1.94795
1.94432
1.94053
1.93659
1.93249
1.92824
1.92384
1.91929
1.9146
1.90977
1.90481
1.89971
1.89448
1.88913
1.88365
1.87806
1.87235
1.86653
1.86061
1.85459
1.84847
1.84226
1.83597
1.82959
1.82314
1.81662
1.81004
1.8034
1.79671
1.78997
1.7832
1.77639
1.76955
1.7627
1.75583
1.74896
1.74209
1.73523
1.72838
1.72156
1.71476
1.70801
1.7013
1.69465
1.68805
1.68153
1.67508
1.66871
1.66244
1.65627
1.6502
1.64425
1.63843
1.63273
1.62717
1.62176
1.6165
1.61139
1.60646
1.6017
1.59712
1.59272
1.58852
1.58451
1.58071
1.57712
1.57374
1.57059
1.56765
1.56495
1.56248
1.56024
1.55825
1.5565
1.55499
1.55373
1.55272
1.55196
1.55145
1.5512
1.5512
1.55145
1.55195
1.55271
1.55372
1.55498
1.55649
1.55824
1.56023
1.56246
1.56493
1.56764
1.57057
1.57372
1.5771
1.58068
1.58448
1.58849
1.59269
1.59708
1.60166
1.60642
1.61135
1.61645
1.62171
1.62712
1.63268
1.63837
1.6442
1.65014
1.65621
1.66238
1.66865
1.67501
1.68146
1.68798
1.69457
1.70122
1.70793
1.71468
1.72147
1.72829
1.73514
1.742
1.74887
1.75574
1.7626
1.76945
1.77629
1.78309
1.78987
1.7966
1.80329
1.80993
1.81651
1.82303
1.82948
1.83585
1.84214
1.84835
1.85447
1.86049
1.86641
1.87223
1.87794
1.88353
1.88901
1.89436
1.89959
1.90469
1.90965
1.91448
1.91917
1.92372
1.92812
1.93237
1.93647
1.94042
1.94421
1.94784
1.95131
1.95461
1.95775
1.96073
1.96353
1.96617
1.96863
1.97091
1.97303
1.97496
1.97672
1.97831
1.97971
1.98093
1.98197
1.98283
1.98351
1.98401
1.98432
1.98447
1.98746
1.98732
1.987
1.9865
1.98581
1.98494
1.98389
1.98266
1.98124
1.97964
1.97787
1.97591
1.97378
1.97147
1.96898
1.96633
1.96349
1.96049
1.95732
1.95398
1.95047
1.9468
1.94297
1.93899
1.93484
1.93054
1.92609
1.92149
1.91675
1.91187
1.90684
1.90168
1.89639
1.89097
1.88543
1.87977
1.87399
1.8681
1.8621
1.856
1.8498
1.84351
1.83713
1.83067
1.82413
1.81752
1.81084
1.80411
1.79732
1.79048
1.78361
1.77669
1.76976
1.7628
1.75582
1.74884
1.74186
1.73489
1.72793
1.72099
1.71408
1.70721
1.70039
1.69362
1.68691
1.68027
1.6737
1.66722
1.66084
1.65455
1.64837
1.64231
1.63638
1.63057
1.6249
1.61939
1.61402
1.60882
1.60379
1.59893
1.59426
1.58977
1.58549
1.5814
1.57752
1.57386
1.57041
1.56719
1.56419
1.56143
1.55891
1.55663
1.55459
1.5528
1.55126
1.54997
1.54894
1.54817
1.54765
1.54739
1.54739
1.54765
1.54816
1.54894
1.54997
1.55125
1.55279
1.55458
1.55661
1.55889
1.56142
1.56417
1.56717
1.57039
1.57383
1.57749
1.58137
1.58546
1.58974
1.59422
1.5989
1.60375
1.60878
1.61398
1.61934
1.62486
1.63052
1.63632
1.64226
1.64832
1.65449
1.66077
1.66716
1.67363
1.6802
1.68683
1.69354
1.70031
1.70713
1.714
1.7209
1.72784
1.73479
1.74177
1.74875
1.75572
1.7627
1.76966
1.77659
1.7835
1.79038
1.79721
1.804
1.81073
1.81741
1.82402
1.83055
1.83701
1.84339
1.84968
1.85588
1.86198
1.86798
1.87387
1.87965
1.88531
1.89085
1.89627
1.90156
1.90672
1.91175
1.91663
1.92138
1.92597
1.93042
1.93472
1.93887
1.94286
1.94669
1.95036
1.95386
1.9572
1.96038
1.96338
1.96622
1.96888
1.97136
1.97367
1.97581
1.97776
1.97954
1.98114
1.98255
1.98379
1.98484
1.98571
1.9864
1.9869
1.98721
1.98736
1.99054
1.99039
1.99007
1.98956
1.98887
1.98799
1.98693
1.98568
1.98425
1.98264
1.98085
1.97887
1.97672
1.97438
1.97187
1.96918
1.96632
1.96328
1.96008
1.9567
1.95316
1.94945
1.94557
1.94154
1.93735
1.933
1.9285
1.92384
1.91904
1.9141
1.90901
1.90379
1.89843
1.89295
1.88733
1.8816
1.87574
1.86977
1.86369
1.85751
1.85122
1.84484
1.83837
1.83182
1.82519
1.81848
1.8117
1.80487
1.79797
1.79103
1.78405
1.77703
1.76998
1.7629
1.75582
1.74872
1.74162
1.73453
1.72745
1.72039
1.71336
1.70637
1.69942
1.69253
1.6857
1.67893
1.67225
1.66564
1.65913
1.65273
1.64643
1.64025
1.63419
1.62827
1.62249
1.61686
1.61139
1.60608
1.60094
1.59598
1.59121
1.58663
1.58225
1.57808
1.57412
1.57037
1.56685
1.56356
1.5605
1.55768
1.5551
1.55276
1.55068
1.54885