/*--------------------------------*- C++ -*----------------------------------*\
| =========                 |                                                 |
| \\      /  F ield         | OpenFOAM: The Open Source CFD Toolbox           |
|  \\    /   O peration     | Version:  2412                                  |
|   \\  /    A nd           | Website:  www.openfoam.com                      |
|    \\/     M anipulation  |                                                 |
\*---------------------------------------------------------------------------*/
FoamFile
{
    version     2.0;
    format      ascii;
    arch        "LSB;label=32;scalar=64";
    class       surfaceScalarField;
    location    "1.04";
    object      phi;
}
// * * * * * * * * * * * * * * * * * * * * * * * * * * * * * * * * * * * * * //

dimensions      [0 3 -1 0 0 0 0];

oriented        oriented;

internalField   nonuniform List<scalar> 
79600
(
1.24968e-11
-1.24825e-11
1.50611e-11
-2.56326e-12
2.70557e-11
-1.19928e-11
4.11545e-11
-1.40977e-11
5.6569e-11
-1.54147e-11
7.20018e-11
-1.54341e-11
8.72291e-11
-1.52292e-11
1.02204e-10
-1.49767e-11
1.16897e-10
-1.46943e-11
1.31355e-10
-1.44581e-11
1.45608e-10
-1.42525e-11
1.59665e-10
-1.40574e-11
1.73538e-10
-1.38745e-11
1.87235e-10
-1.36986e-11
2.00759e-10
-1.35254e-11
2.14109e-10
-1.3351e-11
2.27281e-10
-1.31706e-11
2.40268e-10
-1.29848e-11
2.53065e-10
-1.27932e-11
2.65662e-10
-1.25943e-11
2.78051e-10
-1.23877e-11
2.90225e-10
-1.21725e-11
3.02173e-10
-1.19477e-11
3.13888e-10
-1.17131e-11
3.25358e-10
-1.14686e-11
3.36574e-10
-1.12144e-11
3.47526e-10
-1.09508e-11
3.58204e-10
-1.06778e-11
3.686e-10
-1.03955e-11
3.78704e-10
-1.01038e-11
3.88507e-10
-9.80232e-12
3.97998e-10
-9.49111e-12
4.07168e-10
-9.16975e-12
4.16007e-10
-8.83804e-12
4.24505e-10
-8.49614e-12
4.32651e-10
-8.14412e-12
4.40434e-10
-7.78216e-12
4.47845e-10
-7.41053e-12
4.54873e-10
-7.02902e-12
4.61509e-10
-6.63712e-12
4.67743e-10
-6.23451e-12
4.73565e-10
-5.82111e-12
4.78963e-10
-5.39715e-12
4.83927e-10
-4.96325e-12
4.88446e-10
-4.51994e-12
4.92512e-10
-4.06736e-12
4.96117e-10
-3.60564e-12
4.99251e-10
-3.1351e-12
5.01907e-10
-2.65627e-12
5.04077e-10
-2.16994e-12
5.05753e-10
-1.67682e-12
5.06928e-10
-1.17719e-12
5.07597e-10
-6.71111e-13
5.07753e-10
-1.57597e-13
5.07392e-10
3.61253e-13
5.06509e-10
8.82377e-13
5.05101e-10
1.40844e-12
5.03164e-10
1.93723e-12
5.00694e-10
2.46977e-12
4.97689e-10
3.00542e-12
4.94147e-10
3.54365e-12
4.90064e-10
4.08374e-12
4.8544e-10
4.62496e-12
4.80274e-10
5.16647e-12
4.74567e-10
5.7075e-12
4.6832e-10
6.24719e-12
4.61534e-10
6.78457e-12
4.54214e-10
7.31865e-12
4.46363e-10
7.84855e-12
4.37988e-10
8.37367e-12
4.29093e-10
8.89346e-12
4.19686e-10
9.40711e-12
4.09773e-10
9.91356e-12
3.99361e-10
1.04118e-11
3.88458e-10
1.09012e-11
3.77074e-10
1.13813e-11
3.65221e-10
1.18516e-11
3.5291e-10
1.2311e-11
3.40152e-10
1.27584e-11
3.26959e-10
1.31922e-11
3.13347e-10
1.36112e-11
2.9933e-10
1.40149e-11
2.84926e-10
1.44025e-11
2.70152e-10
1.47736e-11
2.55025e-10
1.51272e-11
2.39565e-10
1.54623e-11
2.23788e-10
1.57782e-11
2.07715e-10
1.60738e-11
1.91366e-10
1.63485e-11
1.74763e-10
1.6602e-11
1.57927e-10
1.6834e-11
1.40881e-10
1.70446e-11
1.23648e-10
1.72333e-11
1.06249e-10
1.73991e-11
8.8708e-11
1.75417e-11
7.10474e-11
1.76606e-11
5.32909e-11
1.77556e-11
3.54618e-11
1.78271e-11
1.75839e-11
1.78752e-11
-3.17897e-13
1.78997e-11
-1.82193e-11
1.78998e-11
-3.60964e-11
1.7876e-11
-5.39249e-11
1.78283e-11
-7.1681e-11
1.77568e-11
-8.93415e-11
1.76613e-11
-1.06883e-10
1.7542e-11
-1.24283e-10
1.73997e-11
-1.41517e-10
1.72347e-11
-1.58563e-10
1.7047e-11
-1.75398e-10
1.68371e-11
-1.92002e-10
1.66058e-11
-2.08352e-10
1.63527e-11
-2.24427e-10
1.60779e-11
-2.40209e-10
1.57828e-11
-2.55675e-10
1.54681e-11
-2.70806e-10
1.51336e-11
-2.85585e-10
1.47805e-11
-2.99992e-10
1.44101e-11
-3.14012e-10
1.40225e-11
-3.27628e-10
1.36184e-11
-3.40826e-10
1.31989e-11
-3.53592e-10
1.27653e-11
-3.65912e-10
1.23193e-11
-3.77774e-10
1.18617e-11
-3.89166e-10
1.13927e-11
-4.00079e-10
1.09135e-11
-4.10504e-10
1.04252e-11
-4.20431e-10
9.92774e-12
-4.29853e-10
9.42098e-12
-4.38764e-10
8.90734e-12
-4.47155e-10
8.38814e-12
-4.55021e-10
7.86335e-12
-4.62358e-10
7.33409e-12
-4.69162e-10
6.80189e-12
-4.75431e-10
6.26757e-12
-4.81161e-10
5.73073e-12
-4.86355e-10
5.19211e-12
-4.91011e-10
4.65319e-12
-4.95128e-10
4.11443e-12
-4.98706e-10
3.57607e-12
-5.01746e-10
3.03853e-12
-5.04249e-10
2.50231e-12
-5.06216e-10
1.96758e-12
-5.0765e-10
1.43461e-12
-5.08554e-10
9.04212e-13
-5.08934e-10
3.78564e-13
-5.08793e-10
-1.41849e-13
-5.08137e-10
-6.57229e-13
-5.06974e-10
-1.16321e-12
-5.05315e-10
-1.66013e-12
-5.03167e-10
-2.14805e-12
-5.00541e-10
-2.62664e-12
-4.97443e-10
-3.09673e-12
-4.93883e-10
-3.55995e-12
-4.8987e-10
-4.0158e-12
-4.85407e-10
-4.46374e-12
-4.80501e-10
-4.90462e-12
-4.75164e-10
-5.33797e-12
-4.69402e-10
-5.76264e-12
-4.63225e-10
-6.17773e-12
-4.56643e-10
-6.58277e-12
-4.49667e-10
-6.97771e-12
-4.42308e-10
-7.36099e-12
-4.34578e-10
-7.73117e-12
-4.26491e-10
-8.0891e-12
-4.18056e-10
-8.43632e-12
-4.09285e-10
-8.7731e-12
-4.00185e-10
-9.09949e-12
-3.90771e-10
-9.4169e-12
-3.81046e-10
-9.72519e-12
-3.71021e-10
-1.00258e-11
-3.60705e-10
-1.03178e-11
-3.50106e-10
-1.05986e-11
-3.39241e-10
-1.08649e-11
-3.28127e-10
-1.11137e-11
-3.16777e-10
-1.13485e-11
-3.05206e-10
-1.15737e-11
-2.93418e-10
-1.17905e-11
-2.81415e-10
-1.20029e-11
-2.69204e-10
-1.22103e-11
-2.56789e-10
-1.24102e-11
-2.44187e-10
-1.26013e-11
-2.31411e-10
-1.2778e-11
-2.18475e-10
-1.2937e-11
-2.05395e-10
-1.3081e-11
-1.92181e-10
-1.32119e-11
-1.7884e-10
-1.33356e-11
-1.65387e-10
-1.34562e-11
-1.51818e-10
-1.35708e-11
-1.38137e-10
-1.36805e-11
-1.24356e-10
-1.37821e-11
-1.10484e-10
-1.38687e-11
-9.65381e-11
-1.39418e-11
-8.25401e-11
-1.39997e-11
-6.84933e-11
-1.40462e-11
-5.43957e-11
-1.40903e-11
-4.02755e-11
-1.41234e-11
-2.61604e-11
-1.41198e-11
-1.21788e-11
-1.39786e-11
-1.21854e-11
2.48637e-11
-3.73452e-11
4.15693e-11
-1.9266e-11
5.45509e-11
-2.49732e-11
6.83899e-11
-2.79375e-11
8.26759e-11
-2.97033e-11
9.76361e-11
-3.03976e-11
1.13054e-10
-3.06497e-11
1.28703e-10
-3.06273e-11
1.44473e-10
-3.04653e-11
1.60262e-10
-3.02474e-11
1.76009e-10
-3.00006e-11
1.91682e-10
-2.97325e-11
2.07253e-10
-2.94483e-11
2.22702e-10
-2.91492e-11
2.38011e-10
-2.88342e-11
2.53165e-10
-2.85023e-11
2.68151e-10
-2.81521e-11
2.82954e-10
-2.77836e-11
2.97562e-10
-2.73964e-11
3.1196e-10
-2.69899e-11
3.26137e-10
-2.6563e-11
3.40081e-10
-2.61149e-11
3.5378e-10
-2.5645e-11
3.67223e-10
-2.51532e-11
3.80396e-10
-2.46394e-11
3.93287e-10
-2.41039e-11
4.05884e-10
-2.35467e-11
4.18175e-10
-2.29676e-11
4.30147e-10
-2.23665e-11
4.41787e-10
-2.17433e-11
4.53083e-10
-2.10978e-11
4.64023e-10
-2.04299e-11
4.74595e-10
-1.97394e-11
4.84786e-10
-1.90262e-11
4.94583e-10
-1.82906e-11
5.03974e-10
-1.75327e-11
5.12945e-10
-1.67528e-11
5.21484e-10
-1.59509e-11
5.2958e-10
-1.51269e-11
5.37223e-10
-1.42805e-11
5.444e-10
-1.34118e-11
5.51101e-10
-1.25211e-11
5.57312e-10
-1.16089e-11
5.63023e-10
-1.06757e-11
5.68223e-10
-9.72176e-12
5.72901e-10
-8.74763e-12
5.77049e-10
-7.75385e-12
5.80655e-10
-6.74126e-12
5.83709e-10
-5.711e-12
5.86202e-10
-4.66421e-12
5.88124e-10
-3.60169e-12
5.89469e-10
-2.52397e-12
5.90228e-10
-1.4317e-12
5.90396e-10
-3.26092e-13
5.89966e-10
7.92361e-13
5.88929e-10
1.91948e-12
5.87281e-10
3.05653e-12
5.85017e-10
4.20163e-12
5.82133e-10
5.35429e-12
5.78626e-10
6.5135e-12
5.74493e-10
7.67782e-12
5.69733e-10
8.8455e-12
5.64343e-10
1.00149e-11
5.58325e-10
1.11844e-11
5.51679e-10
1.23526e-11
5.44407e-10
1.3518e-11
5.3651e-10
1.4679e-11
5.27992e-10
1.58337e-11
5.18858e-10
1.69802e-11
5.09114e-10
1.81166e-11
4.98766e-10
1.92409e-11
4.87822e-10
2.03512e-11
4.76288e-10
2.14456e-11
4.64175e-10
2.25226e-11
4.51493e-10
2.35807e-11
4.38254e-10
2.46185e-11
4.24471e-10
2.56338e-11
4.10158e-10
2.66243e-11
3.95328e-10
2.75873e-11
3.79997e-10
2.85209e-11
3.64181e-10
2.94234e-11
3.479e-10
3.02937e-11
3.31172e-10
3.113e-11
3.14017e-10
3.19304e-11
2.96453e-10
3.26925e-11
2.78503e-10
3.34145e-11
2.60186e-10
3.40948e-11
2.41527e-10
3.47322e-11
2.22548e-10
3.53259e-11
2.03273e-10
3.5875e-11
1.83727e-10
3.63785e-11
1.63937e-10
3.68352e-11
1.43927e-10
3.7244e-11
1.23723e-10
3.76031e-11
1.03353e-10
3.79114e-11
8.28419e-11
3.81689e-11
6.22188e-11
3.83756e-11
4.15116e-11
3.85313e-11
2.0748e-11
3.8636e-11
-4.38281e-14
3.86893e-11
-2.08349e-11
3.86903e-11
-4.15975e-11
3.86388e-11
-6.2304e-11
3.8535e-11
-8.29264e-11
3.83793e-11
-1.03437e-10
3.81721e-11
-1.23808e-10
3.79137e-11
-1.44012e-10
3.76051e-11
-1.64023e-10
3.72476e-11
-1.83813e-10
3.68412e-11
-2.03357e-10
3.6386e-11
-2.22632e-10
3.58834e-11
-2.41612e-10
3.53351e-11
-2.6027e-10
3.47412e-11
-2.78587e-10
3.41032e-11
-2.9654e-10
3.34232e-11
-3.14103e-10
3.2702e-11
-3.31259e-10
3.19406e-11
-3.47986e-10
3.11409e-11
-3.64266e-10
3.03045e-11
-3.8008e-10
2.94332e-11
-3.95411e-10
2.85295e-11
-4.10242e-10
2.75957e-11
-4.24556e-10
2.66339e-11
-4.3834e-10
2.5646e-11
-4.5158e-10
2.46331e-11
-4.64261e-10
2.35963e-11
-4.76376e-10
2.25381e-11
-4.87913e-10
2.14607e-11
-4.9886e-10
2.0365e-11
-5.09213e-10
1.9254e-11
-5.18961e-10
1.8131e-11
-5.28098e-10
1.69971e-11
-5.36618e-10
1.58527e-11
-5.44517e-10
1.46998e-11
-5.51794e-10
1.3541e-11
-5.58444e-10
1.23778e-11
-5.64465e-10
1.12108e-11
-5.69859e-10
1.00426e-11
-5.74623e-10
8.87545e-12
-5.78758e-10
7.71028e-12
-5.82266e-10
6.54737e-12
-5.85152e-10
5.38772e-12
-5.87417e-10
4.23312e-12
-5.89068e-10
3.08501e-12
-5.90108e-10
1.94427e-12
-5.90543e-10
8.12694e-13
-5.90381e-10
-3.06892e-13
-5.89627e-10
-1.41233e-12
-5.88287e-10
-2.50273e-12
-5.8637e-10
-3.57695e-12
-5.83882e-10
-4.63424e-12
-5.80834e-10
-5.67436e-12
-5.77235e-10
-6.69697e-12
-5.73093e-10
-7.70262e-12
-5.68419e-10
-8.69095e-12
-5.63223e-10
-9.66082e-12
-5.57514e-10
-1.06128e-11
-5.51307e-10
-1.15461e-11
-5.44611e-10
-1.24589e-11
-5.37438e-10
-1.33511e-11
-5.29801e-10
-1.42227e-11
-5.21711e-10
-1.50717e-11
-5.13179e-10
-1.58964e-11
-5.04215e-10
-1.6696e-11
-4.94834e-10
-1.74731e-11
-4.85044e-10
-1.82262e-11
-4.74863e-10
-1.89572e-11
-4.64298e-10
-1.9665e-11
-4.53366e-10
-2.03511e-11
-4.42078e-10
-2.10148e-11
-4.30444e-10
-2.16571e-11
-4.18483e-10
-2.22803e-11
-4.06202e-10
-2.28796e-11
-3.93614e-10
-2.34524e-11
-3.80733e-10
-2.39984e-11
-3.67566e-10
-2.45158e-11
-3.54127e-10
-2.50106e-11
-3.4043e-10
-2.54875e-11
-3.26486e-10
-2.59454e-11
-3.12311e-10
-2.63846e-11
-2.97915e-10
-2.68042e-11
-2.83311e-10
-2.72025e-11
-2.68509e-10
-2.75773e-11
-2.53523e-10
-2.79263e-11
-2.38358e-10
-2.82478e-11
-2.23027e-10
-2.85437e-11
-2.07537e-10
-2.88191e-11
-1.91907e-10
-2.90803e-11
-1.76152e-10
-2.93277e-11
-1.6028e-10
-2.95563e-11
-1.443e-10
-2.97614e-11
-1.28225e-10
-2.99399e-11
-1.1206e-10
-3.00931e-11
-9.58275e-11
-3.0228e-11
-7.95402e-11
-3.03443e-11
-6.31872e-11
-3.04407e-11
-4.67864e-11
-3.05153e-11
-3.03583e-11
-3.05459e-11
-1.399e-11
-3.03323e-11
-2.61777e-11
1.63258e-11
-5.36692e-11
3.63896e-11
-3.93292e-11
5.27454e-11
-4.13301e-11
6.85153e-11
-4.37096e-11
8.40728e-11
-4.52636e-11
9.96813e-11
-4.60087e-11
1.1541e-10
-4.63804e-11
1.31218e-10
-4.64369e-11
1.47067e-10
-4.63152e-11
1.62914e-10
-4.60948e-11
1.7872e-10
-4.58083e-11
1.94458e-10
-4.54715e-11
2.10102e-10
-4.50933e-11
2.25631e-10
-4.46784e-11
2.41027e-10
-4.42291e-11
2.56273e-10
-4.37465e-11
2.71356e-10
-4.32312e-11
2.86258e-10
-4.26836e-11
3.00968e-10
-4.21037e-11
3.1547e-10
-4.14911e-11
3.29753e-10
-4.08451e-11
3.43805e-10
-4.0165e-11
3.57612e-10
-3.94505e-11
3.71161e-10
-3.87017e-11
3.84442e-10
-3.79186e-11
3.9744e-10
-3.71011e-11
4.10144e-10
-3.62492e-11
4.22541e-10
-3.53627e-11
4.34618e-10
-3.44413e-11
4.46361e-10
-3.3485e-11
4.57759e-10
-3.24936e-11
4.68798e-10
-3.14671e-11
4.79467e-10
-3.04055e-11
4.89752e-10
-2.93087e-11
4.99641e-10
-2.81769e-11
5.0912e-10
-2.70103e-11
5.18175e-10
-2.58093e-11
5.26796e-10
-2.45738e-11
5.3497e-10
-2.33039e-11
5.42687e-10
-2.19995e-11
5.49935e-10
-2.06611e-11
5.56702e-10
-1.92892e-11
5.62976e-10
-1.78842e-11
5.68745e-10
-1.64468e-11
5.74e-10
-1.49775e-11
5.78729e-10
-1.3477e-11
5.82922e-10
-1.19464e-11
5.8657e-10
-1.03871e-11
5.8966e-10
-8.80065e-12
5.92184e-10
-7.18823e-12
5.94134e-10
-5.55094e-12
5.955e-10
-3.88983e-12
5.96276e-10
-2.20638e-12
5.96454e-10
-5.0252e-13
5.96026e-10
1.22034e-12
5.94985e-10
2.95956e-12
5.93327e-10
4.71362e-12
5.91047e-10
6.48112e-12
5.8814e-10
8.26061e-12
5.84605e-10
1.00501e-11
5.80436e-10
1.1847e-11
5.75633e-10
1.36487e-11
5.70194e-10
1.54529e-11
5.6412e-10
1.72574e-11
5.57411e-10
1.90603e-11
5.5007e-10
2.0859e-11
5.42097e-10
2.2651e-11
5.33497e-10
2.44332e-11
5.24273e-10
2.62027e-11
5.14433e-10
2.79564e-11
5.03982e-10
2.96915e-11
4.92927e-10
3.14051e-11
4.81277e-10
3.30947e-11
4.69041e-10
3.47575e-11
4.5623e-10
3.63908e-11
4.42857e-10
3.79917e-11
4.28934e-10
3.9557e-11
4.14473e-10
4.10831e-11
3.99491e-10
4.25669e-11
3.84003e-10
4.40058e-11
3.68025e-10
4.53977e-11
3.51578e-10
4.67399e-11
3.34679e-10
4.80296e-11
3.17346e-10
4.92632e-11
2.99601e-10
5.04377e-11
2.81465e-10
5.15507e-11
2.62959e-10
5.26002e-11
2.44106e-10
5.35844e-11
2.2493e-10
5.45017e-11
2.05455e-10
5.53501e-11
1.85707e-10
5.61279e-11
1.6571e-10
5.68329e-11
1.4549e-10
5.74636e-11
1.25074e-10
5.80181e-11
1.04489e-10
5.8495e-11
8.37631e-11
5.88937e-11
6.29235e-11
5.92143e-11
4.19991e-11
5.94559e-11
2.10177e-11
5.96176e-11
7.20475e-15
5.9699e-11
-2.10031e-11
5.96996e-11
-4.19844e-11
5.96194e-11
-6.29087e-11
5.94586e-11
-8.37479e-11
5.92178e-11
-1.04474e-10
5.88978e-11
-1.25058e-10
5.84991e-11
-1.45473e-10
5.80224e-11
-1.65692e-10
5.7469e-11
-1.8569e-10
5.68402e-11
-2.05437e-10
5.61367e-11
-2.24912e-10
5.53599e-11
-2.44088e-10
5.45127e-11
-2.62939e-10
5.35963e-11
-2.81444e-10
5.26118e-11
-2.99581e-10
5.15618e-11
-3.17325e-10
5.04487e-11
-3.34657e-10
4.92741e-11
-3.51556e-10
4.80406e-11
-3.68003e-10
4.67511e-11
-3.83978e-10
4.54087e-11
-3.99465e-10
4.40167e-11
-4.14446e-10
4.25778e-11
-4.28905e-10
4.10943e-11
-4.42829e-10
3.95691e-11
-4.56202e-10
3.80052e-11
-4.69012e-10
3.64049e-11
-4.81247e-10
3.47711e-11
-4.92899e-10
3.31081e-11
-5.03954e-10
3.14185e-11
-5.14405e-10
2.97048e-11
-5.24246e-10
2.79707e-11
-5.33471e-10
2.62191e-11
-5.42071e-10
2.4452e-11
-5.50044e-10
2.26715e-11
-5.57386e-10
2.08812e-11
-5.64095e-10
1.90844e-11
-5.70168e-10
1.72829e-11
-5.75606e-10
1.54794e-11
-5.80407e-10
1.36768e-11
-5.84573e-10
1.1877e-11
-5.88106e-10
1.00815e-11
-5.91009e-10
8.29216e-12
-5.93286e-10
6.51128e-12
-5.94943e-10
4.74143e-12
-5.95984e-10
2.98479e-12
-5.96413e-10
1.24314e-12
-5.96238e-10
-4.81297e-13
-5.95465e-10
-2.18371e-12
-5.94101e-10
-3.86502e-12
-5.92153e-10
-5.52268e-12
-5.8963e-10
-7.15535e-12
-5.8654e-10
-8.76295e-12
-5.82894e-10
-1.03442e-11
-5.787e-10
-1.18974e-11
-5.73966e-10
-1.34225e-11
-5.68707e-10
-1.49191e-11
-5.62932e-10
-1.63868e-11
-5.56652e-10
-1.78244e-11
-5.4988e-10
-1.92298e-11
-5.42628e-10
-2.06028e-11
-5.34909e-10
-2.19438e-11
-5.26731e-10
-2.32499e-11
-5.18108e-10
-2.45208e-11
-5.09051e-10
-2.57548e-11
-4.99572e-10
-2.69531e-11
-4.89682e-10
-2.81153e-11
-4.79394e-10
-2.92433e-11
-4.68722e-10
-3.03369e-11
-4.57678e-10
-3.13943e-11
-4.46275e-10
-3.24169e-11
-4.34528e-10
-3.34056e-11
-4.22449e-10
-3.43606e-11
-4.10047e-10
-3.52807e-11
-3.97336e-10
-3.61627e-11
-3.84326e-10
-3.70062e-11
-3.71031e-10
-3.78109e-11
-3.57463e-10
-3.85788e-11
-3.43632e-10
-3.93155e-11
-3.29553e-10
-4.00218e-11
-3.1524e-10
-4.06963e-11
-3.00706e-10
-4.13381e-11
-2.85963e-10
-4.19454e-11
-2.7102e-10
-4.25177e-11
-2.5589e-10
-4.30551e-11
-2.40579e-10
-4.35557e-11
-2.25101e-10
-4.40213e-11
-2.09467e-10
-4.44519e-11
-1.93692e-10
-4.48526e-11
-1.77789e-10
-4.52271e-11
-1.61768e-10
-4.5572e-11
-1.45642e-10
-4.58858e-11
-1.29423e-10
-4.61618e-11
-1.13114e-10
-4.64005e-11
-9.67267e-11
-4.66117e-11
-8.02787e-11
-4.6798e-11
-6.37717e-11
-4.6951e-11
-4.72152e-11
-4.70682e-11
-3.06337e-11
-4.71312e-11
-1.41537e-11
-4.68148e-11
-4.03341e-11
1.3748e-11
-6.74166e-11
3.30617e-11
-5.86447e-11
5.06259e-11
-5.88968e-11
6.71817e-11
-6.0268e-11
8.33266e-11
-6.1411e-11
9.93943e-11
-6.20784e-11
1.15415e-10
-6.24027e-11
1.31406e-10
-6.24294e-11
1.47376e-10
-6.22866e-11
1.63306e-10
-6.20269e-11
1.79177e-10
-6.16795e-11
1.94966e-10
-6.12608e-11
2.10654e-10
-6.07813e-11
2.26223e-10
-6.02471e-11
2.41657e-10
-5.9662e-11
2.56941e-10
-5.90285e-11
2.72059e-10
-5.8348e-11
2.86998e-10
-5.76215e-11
3.01744e-10
-5.6849e-11
3.16283e-10
-5.60304e-11
3.30604e-10
-5.51653e-11
3.44693e-10
-5.42533e-11
3.58538e-10
-5.32944e-11
3.72126e-10
-5.22886e-11
3.85444e-10
-5.1236e-11
3.9848e-10
-5.01364e-11
4.11222e-10
-4.89896e-11
4.23657e-10
-4.77954e-11
4.35772e-10
-4.65536e-11
4.47554e-10
-4.52643e-11
4.5899e-10
-4.39273e-11
4.70068e-10
-4.25425e-11
4.80775e-10
-4.111e-11
4.91098e-10
-3.96296e-11
5.01024e-10
-3.81017e-11
5.1054e-10
-3.65264e-11
5.19633e-10
-3.4904e-11
5.2829e-10
-3.32347e-11
5.36501e-10
-3.15185e-11
5.44255e-10
-2.97557e-11
5.51538e-10
-2.79468e-11
5.5834e-10
-2.60924e-11
5.64648e-10
-2.41933e-11
5.7045e-10
-2.22502e-11
5.75737e-10
-2.0264e-11
5.80498e-10
-1.82358e-11
5.84721e-10
-1.61672e-11
5.88396e-10
-1.406e-11
5.91513e-10
-1.19158e-11
5.94063e-10
-9.73619e-12
5.96036e-10
-7.52258e-12
5.97425e-10
-5.27671e-12
5.98222e-10
-3.0008e-12
5.98418e-10
-6.98187e-13
5.98006e-10
1.6314e-12
5.96979e-10
3.98438e-12
5.95333e-10
6.3578e-12
5.93064e-10
8.7501e-12
5.90166e-10
1.11588e-11
5.86636e-10
1.35807e-11
5.8247e-10
1.60125e-11
5.77667e-10
1.84508e-11
5.72225e-10
2.08928e-11
5.66146e-10
2.33359e-11
5.59431e-10
2.5777e-11
5.52079e-10
2.82124e-11
5.44092e-10
3.06383e-11
5.35475e-10
3.30506e-11
5.26231e-10
3.54455e-11
5.16367e-10
3.78193e-11
5.05889e-10
4.01683e-11
4.94805e-10
4.24888e-11
4.83124e-10
4.47769e-11
4.70853e-10
4.70285e-11
4.58005e-10
4.92394e-11
4.44591e-10
5.14057e-11
4.30623e-10
5.35232e-11
4.16115e-10
5.55879e-11
4.01082e-10
5.75961e-11
3.85541e-10
5.95442e-11
3.69509e-10
6.14286e-11
3.53003e-10
6.32455e-11
3.36041e-10
6.49906e-11
3.18643e-10
6.66598e-11
3.0083e-10
6.82494e-11
2.82622e-10
6.97566e-11
2.64044e-10
7.11786e-11
2.45117e-10
7.25126e-11
2.25865e-10
7.37556e-11
2.06311e-10
7.49049e-11
1.86482e-10
7.5958e-11
1.66403e-10
7.69124e-11
1.46099e-10
7.77663e-11
1.25598e-10
7.85178e-11
1.04929e-10
7.91651e-11
8.41168e-11
7.97067e-11
6.31909e-11
8.01415e-11
4.21793e-11
8.04687e-11
2.11103e-11
8.0687e-11
1.2014e-14
8.07961e-11
-2.10865e-11
8.0796e-11
-4.2156e-11
8.06873e-11
-6.31678e-11
8.04698e-11
-8.40939e-11
8.01438e-11
-1.04906e-10
7.97101e-11
-1.25575e-10
7.91697e-11
-1.46074e-10
7.85234e-11
-1.66377e-10
7.77727e-11
-1.86456e-10
7.69198e-11
-2.06284e-10
7.59666e-11
-2.25836e-10
7.49146e-11
-2.45087e-10
7.37667e-11
-2.64014e-10
7.25252e-11
-2.82591e-10
7.11916e-11
-3.00798e-10
6.9769e-11
-3.1861e-10
6.82612e-11
-3.36007e-10
6.6671e-11
-3.52969e-10
6.50019e-11
-3.69475e-10
6.32575e-11
-3.85506e-10
6.14415e-11
-4.01046e-10
5.95579e-11
-4.16077e-10
5.76099e-11
-4.30584e-10
5.56011e-11
-4.44553e-10
5.35353e-11
-4.57968e-10
5.14175e-11
-4.70816e-10
4.92516e-11
-4.83086e-10
4.70407e-11
-4.94769e-10
4.47894e-11
-5.05853e-10
4.25024e-11
-5.16329e-10
4.01828e-11
-5.26192e-10
3.7834e-11
-5.35436e-10
3.54607e-11
-5.44053e-10
3.30674e-11
-5.52039e-10
3.06571e-11
-5.59391e-10
2.82333e-11
-5.66108e-10
2.58004e-11
-5.72185e-10
2.33616e-11
-5.77624e-10
2.092e-11
-5.82424e-10
1.84789e-11
-5.86588e-10
1.60413e-11
-5.90116e-10
1.36105e-11
-5.93012e-10
1.11894e-11
-5.95279e-10
8.78046e-12
-5.96924e-10
6.38651e-12
-5.9795e-10
4.0112e-12
-5.98362e-10
1.65733e-12
-5.98166e-10
-6.7366e-13
-5.97371e-10
-2.97624e-12
-5.95983e-10
-5.25088e-12
-5.9401e-10
-7.49389e-12
-5.9146e-10
-9.70355e-12
-5.88342e-10
-1.18794e-11
-5.84667e-10
-1.40196e-11
-5.80442e-10
-1.61213e-11
-5.75678e-10
-1.81844e-11
-5.70388e-10
-2.02085e-11
-5.6458e-10
-2.21925e-11
-5.58266e-10
-2.41353e-11
-5.5146e-10
-2.60355e-11
-5.44173e-10
-2.78911e-11
-5.36416e-10
-2.97013e-11
-5.28202e-10
-3.14648e-11
-5.1954e-10
-3.31815e-11
-5.10445e-10
-3.48508e-11
-5.00926e-10
-3.64706e-11
-4.90997e-10
-3.80431e-11
-4.80671e-10
-3.95683e-11
-4.69959e-10
-4.10468e-11
-4.58876e-10
-4.2477e-11
-4.47434e-10
-4.38593e-11
-4.35647e-10
-4.5195e-11
-4.23526e-10
-4.64821e-11
-4.11082e-10
-4.77218e-11
-3.98331e-10
-4.89132e-11
-3.85281e-10
-5.0053e-11
-3.71945e-10
-5.11444e-11
-3.5834e-10
-5.2188e-11
-3.44472e-10
-5.31841e-11
-3.30354e-10
-5.4137e-11
-3.16001e-10
-5.50471e-11
-3.01424e-10
-5.59115e-11
-2.86637e-10
-5.67309e-11
-2.71653e-10
-5.75031e-11
-2.56481e-10
-5.82264e-11
-2.41132e-10
-5.89013e-11
-2.25617e-10
-5.95312e-11
-2.09949e-10
-6.01174e-11
-1.9414e-10
-6.06619e-11
-1.78201e-10
-6.11664e-11
-1.62145e-10
-6.1629e-11
-1.45979e-10
-6.2047e-11
-1.29719e-10
-6.24205e-11
-1.13374e-10
-6.27483e-11
-9.69456e-11
-6.3036e-11
-8.04512e-11
-6.32875e-11
-6.39092e-11
-6.34927e-11
-4.73182e-11
-6.36466e-11
-3.0712e-11
-6.37417e-11
-1.42075e-11
-6.33091e-11
-5.45472e-11
1.30349e-11
-8.04525e-11
3.14057e-11
-7.70186e-11
4.90594e-11
-7.65531e-11
6.60699e-11
-7.72805e-11
8.26739e-11
-7.80166e-11
9.90648e-11
-7.84708e-11
1.15304e-10
-7.86442e-11
1.31472e-10
-7.85991e-11
1.47576e-10
-7.83926e-11
1.63611e-10
-7.80634e-11
1.79566e-10
-7.76345e-11
1.95425e-10
-7.71204e-11
2.11175e-10
-7.65307e-11
2.26801e-10
-7.58718e-11
2.42287e-10
-7.51478e-11
2.5762e-10
-7.43615e-11
2.72787e-10
-7.35145e-11
2.87773e-10
-7.2608e-11
3.02566e-10
-7.16422e-11
3.17153e-10
-7.06173e-11
3.31522e-10
-6.95331e-11
3.45658e-10
-6.83894e-11
3.5955e-10
-6.71862e-11
3.73185e-10
-6.59235e-11
3.8655e-10
-6.46013e-11
3.99634e-10
-6.32195e-11
4.12424e-10
-6.17778e-11
4.24907e-10
-6.02761e-11
4.3707e-10
-5.87142e-11
4.48899e-10
-5.7092e-11
4.60383e-10
-5.54095e-11
4.71508e-10
-5.36666e-11
4.82263e-10
-5.1863e-11
4.92634e-10
-4.99989e-11
5.02608e-10
-4.80746e-11
5.12171e-10
-4.60903e-11
5.21311e-10
-4.40462e-11
5.30016e-10
-4.19426e-11
5.38274e-10
-3.97795e-11
5.46073e-10
-3.75575e-11
5.53402e-10
-3.52771e-11
5.60249e-10
-3.29393e-11
5.66601e-10
-3.05449e-11
5.72447e-10
-2.8095e-11
5.77776e-10
-2.5591e-11
5.82576e-10
-2.30343e-11
5.86838e-10
-2.04267e-11
5.9055e-10
-1.77701e-11
5.93703e-10
-1.50666e-11
5.96286e-10
-1.2318e-11
5.98292e-10
-9.52646e-12
5.99711e-10
-6.69425e-12
6.00535e-10
-3.82414e-12
6.00757e-10
-9.20622e-13
6.00368e-10
2.01879e-12
5.99362e-10
4.98822e-12
5.97736e-10
7.98405e-12
5.95483e-10
1.1004e-11
5.92599e-10
1.40445e-11
5.89078e-10
1.71015e-11
5.84919e-10
2.01709e-11
5.80119e-10
2.32492e-11
5.74678e-10
2.63331e-11
5.68597e-10
2.94187e-11
5.61874e-10
3.25017e-11
5.54512e-10
3.55771e-11
5.46511e-10
3.86398e-11
5.37876e-10
4.16854e-11
5.2861e-10
4.47094e-11
5.18721e-10
4.77074e-11
5.08215e-10
5.06748e-11
4.97098e-10
5.36063e-11
4.8538e-10
5.64965e-11
4.73069e-10
5.934e-11
4.60176e-10
6.21319e-11
4.46714e-10
6.48671e-11
4.32693e-10
6.75412e-11
4.1813e-10
7.01492e-11
4.03037e-10
7.26863e-11
3.87432e-10
7.51476e-11
3.71332e-10
7.7528e-11
3.54754e-10
7.98226e-11
3.37716e-10
8.20264e-11
3.20238e-10
8.41347e-11
3.02342e-10
8.61436e-11
2.84049e-10
8.8049e-11
2.65381e-10
8.9847e-11
2.46362e-10
9.15334e-11
2.27016e-10
9.31042e-11
2.07365e-10
9.45563e-11
1.87437e-10
9.58868e-11
1.67257e-10
9.70932e-11
1.46851e-10
9.81729e-11
1.26246e-10
9.91233e-11
1.0547e-10
9.99421e-11
8.45518e-11
1.00627e-10
6.35184e-11
1.01176e-10
4.23982e-11
1.01589e-10
2.12201e-11
1.01864e-10
1.29129e-14
1.02002e-10
-2.11946e-11
1.02002e-10
-4.23732e-11
1.01865e-10
-6.34938e-11
1.0159e-10
-8.45277e-11
1.01178e-10
-1.05447e-10
1.00629e-10
-1.26222e-10
9.99453e-11
-1.46826e-10
9.9128e-11
-1.67231e-10
9.81788e-11
-1.8741e-10
9.71003e-11
-2.07337e-10
9.58954e-11
-2.26985e-10
9.45661e-11
-2.46331e-10
9.31148e-11
-2.6535e-10
9.15448e-11
-2.84016e-10
8.98592e-11
-3.02308e-10
8.80615e-11
-3.20204e-10
8.61563e-11
-3.3768e-10
8.41477e-11
-3.54717e-10
8.20397e-11
-3.71295e-10
7.98367e-11
-3.87394e-10
7.75428e-11
-4.02999e-10
7.51628e-11
-4.18091e-10
7.27014e-11
-4.32656e-10
7.01635e-11
-4.46676e-10
6.75544e-11
-4.6014e-10
6.48796e-11
-4.73034e-10
6.21444e-11
-4.85344e-10
5.93526e-11
-4.97062e-10
5.65088e-11
-5.08179e-10
5.36193e-11
-5.18685e-10
5.06889e-11
-5.28572e-10
4.77221e-11
-5.37836e-10
4.47242e-11
-5.46471e-10
4.17011e-11
-5.5447e-10
3.86575e-11
-5.61832e-10
3.55967e-11
-5.68554e-10
3.25236e-11
-5.74635e-10
2.94434e-11
-5.80073e-10
2.636e-11
-5.8487e-10
2.32772e-11
-5.89026e-10
2.01989e-11
-5.92545e-10
1.71297e-11
-5.95429e-10
1.40736e-11
-5.97681e-10
1.10339e-11
-5.99306e-10
8.01343e-12
-6.00311e-10
5.01646e-12
-6.00699e-10
2.04703e-12
-6.00478e-10
-8.92547e-13
-5.99654e-10
-3.79876e-12
-5.98235e-10
-6.6687e-12
-5.96228e-10
-9.49896e-12
-5.93644e-10
-1.22872e-11
-5.9049e-10
-1.50319e-11
-5.86777e-10
-1.77316e-11
-5.82514e-10
-2.03835e-11
-5.77711e-10
-2.29866e-11
-5.72379e-10
-2.55398e-11
-5.6653e-10
-2.80415e-11
-5.60175e-10
-3.04904e-11
-5.53326e-10
-3.28854e-11
-5.45994e-10
-3.5224e-11
-5.3819e-10
-3.75041e-11
-5.29928e-10
-3.9727e-11
-5.21219e-10
-4.18905e-11
-5.12076e-10
-4.39946e-11
-5.02509e-10
-4.6037e-11
-4.92532e-10
-4.80199e-11
-4.82158e-10
-4.99434e-11
-4.71397e-10
-5.18064e-11
-4.60265e-10
-5.36092e-11
-4.48775e-10
-5.53506e-11
-4.36937e-10
-5.7031e-11
-4.24768e-10
-5.86522e-11
-4.12276e-10
-6.02135e-11
-3.99475e-10
-6.17138e-11
-3.86378e-10
-6.3151e-11
-3.72995e-10
-6.45263e-11
-3.59342e-10
-6.58417e-11
-3.45429e-10
-6.7099e-11
-3.31266e-10
-6.83002e-11
-3.16865e-10
-6.94449e-11
-3.02242e-10
-7.05326e-11
-2.87409e-10
-7.15625e-11
-2.72378e-10
-7.25316e-11
-2.57162e-10
-7.34429e-11
-2.41772e-10
-7.42944e-11
-2.26215e-10
-7.50871e-11
-2.10505e-10
-7.58278e-11
-1.94653e-10
-7.65143e-11
-1.78668e-10
-7.7148e-11
-1.62565e-10
-7.77303e-11
-1.46355e-10
-7.82562e-11
-1.30049e-10
-7.87259e-11
-1.13657e-10
-7.91431e-11
-9.71863e-11
-7.95092e-11
-8.06493e-11
-7.98235e-11
-6.40701e-11
-8.00793e-11
-4.74494e-11
-8.02716e-11
-3.08069e-11
-8.03909e-11
-1.42679e-11
-7.98452e-11
-6.88118e-11
1.2992e-11
-9.34465e-11
3.07473e-11
-9.47764e-11
4.83043e-11
-9.41114e-11
6.54645e-11
-9.44412e-11
8.22826e-11
-9.48353e-11
9.88632e-11
-9.50529e-11
1.15293e-10
-9.50768e-11
1.31618e-10
-9.49264e-11
1.47853e-10
-9.46298e-11
1.63998e-10
-9.421e-11
1.80047e-10
-9.3684e-11
1.9599e-10
-9.30633e-11
2.11815e-10
-9.23557e-11
2.2751e-10
-9.15669e-11
2.43062e-10
-9.07003e-11
2.58459e-10
-8.97585e-11
2.73686e-10
-8.87432e-11
2.88733e-10
-8.76554e-11
3.03587e-10
-8.64956e-11
3.18234e-10
-8.5264e-11
3.32663e-10
-8.39607e-11
3.46859e-10
-8.25854e-11
3.60811e-10
-8.11382e-11
3.74505e-10
-7.96189e-11
3.8793e-10
-7.80275e-11
4.01074e-10
-7.63637e-11
4.13924e-10
-7.46275e-11
4.26467e-10
-7.28185e-11
4.3869e-10
-7.09366e-11
4.5058e-10
-6.89817e-11
4.62125e-10
-6.69537e-11
4.73311e-10
-6.48522e-11
4.84126e-10
-6.26773e-11
4.94558e-10
-6.0429e-11
5.04592e-10
-5.81077e-11
5.14215e-10
-5.57137e-11
5.23415e-10
-5.32473e-11
5.32179e-10
-5.07086e-11
5.40496e-10
-4.80979e-11
5.48354e-10
-4.54158e-11
5.55741e-10
-4.26631e-11
5.62644e-10
-3.98409e-11
5.69051e-10
-3.69505e-11
5.74951e-10
-3.39933e-11
5.80332e-10
-3.09707e-11
5.85184e-10
-2.78844e-11
5.89495e-10
-2.47363e-11
5.93254e-10
-2.15286e-11
5.96451e-10
-1.82638e-11
5.99078e-10
-1.49442e-11
6.01124e-10
-1.15726e-11
6.02582e-10
-8.15157e-12
6.03442e-10
-4.68431e-12
6.03695e-10
-1.17527e-12
6.03336e-10
2.37717e-12
6.02358e-10
5.96626e-12
6.00756e-10
9.588e-12
5.98524e-10
1.32388e-11
5.95657e-10
1.69142e-11
5.92149e-10
2.06096e-11
5.87998e-10
2.43207e-11
5.83203e-10
2.80436e-11
5.77763e-10
3.17737e-11
5.71679e-10
3.5506e-11
5.64948e-10
3.92347e-11
5.57573e-10
4.29537e-11
5.49555e-10
4.66576e-11
5.40897e-10
5.03413e-11
5.31606e-10
5.39998e-11
5.21686e-10
5.76275e-11
5.11144e-10
6.12181e-11
4.99986e-10
6.4765e-11
4.88222e-10
6.82615e-11
4.7586e-10
7.17016e-11
4.62911e-10
7.50795e-11
4.49388e-10
7.83896e-11
4.35302e-10
8.1626e-11
4.20667e-10
8.47829e-11
4.05499e-10
8.78538e-11
3.89814e-10
9.08326e-11
3.73627e-10
9.37132e-11
3.56958e-10
9.64899e-11
3.39824e-10
9.91572e-11
3.22246e-10
1.0171e-10
3.04246e-10
1.04143e-10
2.85845e-10
1.0645e-10
2.67065e-10
1.08627e-10
2.47931e-10
1.10669e-10
2.28466e-10
1.12571e-10
2.08694e-10
1.14329e-10
1.88642e-10
1.15941e-10
1.68335e-10
1.17402e-10
1.47801e-10
1.1871e-10
1.27064e-10
1.19861e-10
1.06155e-10
1.20852e-10
8.51012e-11
1.2168e-10
6.39313e-11
1.22345e-10
4.26737e-11
1.22844e-10
2.13581e-11
1.23178e-10
1.37357e-14
1.23345e-10
-2.13308e-11
1.23346e-10
-4.26466e-11
1.2318e-10
-6.39045e-11
1.22847e-10
-8.50751e-11
1.22348e-10
-1.06129e-10
1.21683e-10
-1.27039e-10
1.20854e-10
-1.47774e-10
1.19864e-10
-1.68308e-10
1.18715e-10
-1.88614e-10
1.17409e-10
-2.08666e-10
1.15949e-10
-2.28436e-10
1.14339e-10
-2.479e-10
1.12581e-10
-2.67035e-10
1.1068e-10
-2.85814e-10
1.08639e-10
-3.04214e-10
1.06463e-10
-3.22212e-10
1.04156e-10
-3.39788e-10
1.01725e-10
-3.5692e-10
9.91728e-11
-3.73588e-10
9.65057e-11
-3.89774e-10
9.37288e-11
-4.0546e-10
9.08478e-11
-4.20629e-10
8.78686e-11
-4.35265e-10
8.47977e-11
-4.49351e-10
8.16411e-11
-4.62875e-10
7.84044e-11
-4.75825e-10
7.50937e-11
-4.88187e-10
7.17151e-11
-4.99951e-10
6.82738e-11
-5.11108e-10
6.47767e-11
-5.2165e-10
6.12307e-11
-5.31569e-10
5.76415e-11
-5.40858e-10
5.40151e-11
-5.49513e-10
5.03576e-11
-5.5753e-10
4.6675e-11
-5.64904e-10
4.29721e-11
-5.71633e-10
3.92542e-11
-5.77717e-10
3.55278e-11
-5.83155e-10
3.1798e-11
-5.87947e-10
2.80696e-11
-5.92095e-10
2.43475e-11
-5.956e-10
2.06365e-11
-5.98467e-10
1.69414e-11
-6.007e-10
1.32664e-11
-6.02302e-10
9.61569e-12
-6.03279e-10
5.99358e-12
-6.03638e-10
2.40485e-12
-6.03384e-10
-1.14677e-12
-6.02523e-10
-4.6584e-12
-6.01065e-10
-8.12548e-12
-5.99017e-10
-1.15453e-11
-5.9639e-10
-1.49146e-11
-5.93191e-10
-1.82305e-11
-5.8943e-10
-2.14916e-11
-5.85119e-10
-2.4696e-11
-5.80266e-10
-2.78409e-11
-5.74883e-10
-3.09242e-11
-5.68981e-10
-3.39445e-11
-5.62572e-10
-3.69014e-11
-5.55667e-10
-3.9792e-11
-5.48277e-10
-4.26142e-11
-5.40414e-10
-4.53658e-11
-5.32093e-10
-4.80485e-11
-5.23325e-10
-5.06606e-11
-5.1412e-10
-5.32003e-11
-5.04494e-10
-5.56669e-11
-4.94456e-10
-5.80595e-11
-4.84019e-10
-6.03791e-11
-4.73198e-10
-6.26267e-11
-4.62005e-10
-6.48019e-11
-4.50453e-10
-6.69032e-11
-4.38555e-10
-6.89297e-11
-4.26324e-10
-7.08844e-11
-4.13772e-10
-7.27671e-11
-4.0091e-10
-7.45765e-11
-3.87753e-10