/*--------------------------------*- C++ -*----------------------------------*\
| =========                 |                                                 |
| \\      /  F ield         | OpenFOAM: The Open Source CFD Toolbox           |
|  \\    /   O peration     | Version:  2412                                  |
|   \\  /    A nd           | Website:  www.openfoam.com                      |
|    \\/     M anipulation  |                                                 |
\*---------------------------------------------------------------------------*/
FoamFile
{
    version     2.0;
    format      ascii;
    arch        "LSB;label=32;scalar=64";
    class       volVectorField;
    location    "1.04";
    object      U;
}
// * * * * * * * * * * * * * * * * * * * * * * * * * * * * * * * * * * * * * //

dimensions      [0 1 -1 0 0 0 0];

internalField   nonuniform List<vector> 
40000
(
(1.38724e-05 1.89035e-06 0)
(9.53744e-06 5.83556e-06 0)
(2.1981e-05 -3.898e-06 0)
(3.25731e-05 -5.98201e-06 0)
(4.90249e-05 -6.77968e-06 0)
(6.42347e-05 -6.87188e-06 0)
(7.96164e-05 -6.76591e-06 0)
(9.46694e-05 -6.64776e-06 0)
(0.000109478 -6.51146e-06 0)
(0.000124078 -6.40826e-06 0)
(0.000138442 -6.32565e-06 0)
(0.0001526 -6.24691e-06 0)
(0.000166575 -6.17363e-06 0)
(0.000180369 -6.10327e-06 0)
(0.000193986 -6.03394e-06 0)
(0.000207427 -5.9632e-06 0)
(0.000220689 -5.8887e-06 0)
(0.000233772 -5.81093e-06 0)
(0.000246666 -5.7297e-06 0)
(0.000259364 -5.64472e-06 0)
(0.000271859 -5.55566e-06 0)
(0.000284142 -5.4623e-06 0)
(0.000296204 -5.36427e-06 0)
(0.000308036 -5.2612e-06 0)
(0.000319629 -5.15312e-06 0)
(0.000330973 -5.04016e-06 0)
(0.000342058 -4.92249e-06 0)
(0.000352875 -4.80039e-06 0)
(0.000363414 -4.67398e-06 0)
(0.000373665 -4.54323e-06 0)
(0.00038362 -4.40802e-06 0)
(0.000393267 -4.26823e-06 0)
(0.000402599 -4.1237e-06 0)
(0.000411604 -3.97438e-06 0)
(0.000420274 -3.82039e-06 0)
(0.000428597 -3.6619e-06 0)
(0.000436562 -3.49902e-06 0)
(0.00044416 -3.33177e-06 0)
(0.00045138 -3.16013e-06 0)
(0.000458212 -2.98392e-06 0)
(0.000464648 -2.80281e-06 0)
(0.000470676 -2.6168e-06 0)
(0.000476286 -2.4261e-06 0)
(0.000481467 -2.23087e-06 0)
(0.000486209 -2.03126e-06 0)
(0.000490502 -1.82745e-06 0)
(0.000494338 -1.61947e-06 0)
(0.000497708 -1.40737e-06 0)
(0.000500604 -1.19147e-06 0)
(0.000503017 -9.72239e-07 0)
(0.000504941 -7.50033e-07 0)
(0.000506367 -5.25049e-07 0)
(0.00050729 -2.97504e-07 0)
(0.000507704 -6.75345e-08 0)
(0.000507601 1.65589e-07 0)
(0.00050698 4.01815e-07 0)
(0.000505835 6.40005e-07 0)
(0.000504163 8.79811e-07 0)
(0.00050196 1.12076e-06 0)
(0.000499222 1.36288e-06 0)
(0.000495948 1.60627e-06 0)
(0.000492135 1.8507e-06 0)
(0.000487782 2.0957e-06 0)
(0.000482886 2.34091e-06 0)
(0.00047745 2.58602e-06 0)
(0.000471473 2.8306e-06 0)
(0.000464956 3.07411e-06 0)
(0.000457903 3.31604e-06 0)
(0.000450318 3.55599e-06 0)
(0.000442204 3.79369e-06 0)
(0.000433569 4.02879e-06 0)
(0.000424418 4.26086e-06 0)
(0.000414757 4.48942e-06 0)
(0.000404594 4.71407e-06 0)
(0.000393935 4.93455e-06 0)
(0.000382791 5.15078e-06 0)
(0.000371172 5.36256e-06 0)
(0.000359088 5.56954e-06 0)
(0.000346553 5.77117e-06 0)
(0.000333577 5.96686e-06 0)
(0.000320173 6.15614e-06 0)
(0.000306358 6.33864e-06 0)
(0.000292147 6.51409e-06 0)
(0.000277557 6.68224e-06 0)
(0.000262606 6.8427e-06 0)
(0.000247312 6.99499e-06 0)
(0.000231692 7.13853e-06 0)
(0.000215766 7.2728e-06 0)
(0.000199554 7.39743e-06 0)
(0.000183078 7.51223e-06 0)
(0.000166357 7.61718e-06 0)
(0.000149415 7.71222e-06 0)
(0.000132274 7.79709e-06 0)
(0.000114957 7.8714e-06 0)
(9.74859e-05 7.93508e-06 0)
(7.98837e-05 7.98825e-06 0)
(6.21737e-05 8.03099e-06 0)
(4.43794e-05 8.06335e-06 0)
(2.65245e-05 8.08524e-06 0)
(8.63369e-06 8.09617e-06 0)
(-9.26929e-06 8.0957e-06 0)
(-2.71595e-05 8.08405e-06 0)
(-4.50137e-05 8.06167e-06 0)
(-6.28074e-05 8.02877e-06 0)
(-8.05171e-05 7.98525e-06 0)
(-9.81197e-05 7.9311e-06 0)
(-0.000115592 7.86649e-06 0)
(-0.00013291 7.79157e-06 0)
(-0.000150051 7.70636e-06 0)
(-0.000166993 7.61122e-06 0)
(-0.000183713 7.50656e-06 0)
(-0.000200191 7.39219e-06 0)
(-0.000216405 7.26808e-06 0)
(-0.000232334 7.13494e-06 0)
(-0.000247959 6.99308e-06 0)
(-0.000263258 6.84242e-06 0)
(-0.000278214 6.68349e-06 0)
(-0.000292807 6.51677e-06 0)
(-0.000307021 6.34218e-06 0)
(-0.00032084 6.15995e-06 0)
(-0.000334249 5.9705e-06 0)
(-0.000347231 5.77453e-06 0)
(-0.000359775 5.57287e-06 0)
(-0.000371867 5.36595e-06 0)
(-0.000383496 5.15389e-06 0)
(-0.000394649 4.93716e-06 0)
(-0.000405319 4.71639e-06 0)
(-0.000415495 4.49137e-06 0)
(-0.00042517 4.26204e-06 0)
(-0.000434337 4.02957e-06 0)
(-0.000442989 3.79456e-06 0)
(-0.000451118 3.55694e-06 0)
(-0.000458719 3.31719e-06 0)
(-0.00046579 3.07601e-06 0)
(-0.000472327 2.83376e-06 0)
(-0.000478327 2.59022e-06 0)
(-0.00048379 2.3458e-06 0)
(-0.000488715 2.10136e-06 0)
(-0.000493101 1.85727e-06 0)
(-0.000496948 1.6138e-06 0)
(-0.000500256 1.37119e-06 0)
(-0.000503026 1.12964e-06 0)
(-0.000505261 8.89072e-07 0)
(-0.00050696 6.49364e-07 0)
(-0.000508128 4.10316e-07 0)
(-0.00050877 1.7216e-07 0)
(-0.00050889 -6.36812e-08 0)
(-0.000508492 -2.959e-07 0)
(-0.000507583 -5.24808e-07 0)
(-0.000506173 -7.5025e-07 0)
(-0.00050427 -9.72016e-07 0)
(-0.000501884 -1.18944e-06 0)
(-0.000499021 -1.40239e-06 0)
(-0.000495692 -1.61161e-06 0)
(-0.000491903 -1.81697e-06 0)
(-0.000487663 -2.0183e-06 0)
(-0.000482977 -2.21599e-06 0)
(-0.000477854 -2.40975e-06 0)
(-0.000472303 -2.59938e-06 0)
(-0.000466333 -2.78505e-06 0)
(-0.000459953 -2.96684e-06 0)
(-0.000453174 -3.14472e-06 0)
(-0.000446008 -3.31775e-06 0)
(-0.000438465 -3.48526e-06 0)
(-0.000430557 -3.64793e-06 0)
(-0.000422295 -3.80645e-06 0)
(-0.000413691 -3.96023e-06 0)
(-0.000404754 -4.10836e-06 0)
(-0.000395494 -4.25112e-06 0)
(-0.000385922 -4.38894e-06 0)
(-0.000376045 -4.52357e-06 0)
(-0.000365872 -4.65536e-06 0)
(-0.000355416 -4.78321e-06 0)
(-0.000344688 -4.90509e-06 0)
(-0.000333703 -5.01942e-06 0)
(-0.000322474 -5.12784e-06 0)
(-0.000311011 -5.23157e-06 0)
(-0.000299326 -5.33038e-06 0)
(-0.000287423 -5.42585e-06 0)
(-0.000275312 -5.51825e-06 0)
(-0.000262998 -5.60804e-06 0)
(-0.000250492 -5.69649e-06 0)
(-0.000237808 -5.78118e-06 0)
(-0.000224956 -5.85818e-06 0)
(-0.00021195 -5.92557e-06 0)
(-0.000198802 -5.98229e-06 0)
(-0.00018552 -6.03158e-06 0)
(-0.000172118 -6.07769e-06 0)
(-0.000158603 -6.12236e-06 0)
(-0.000144977 -6.16876e-06 0)
(-0.000131248 -6.21518e-06 0)
(-0.000117424 -6.25641e-06 0)
(-0.000103516 -6.29128e-06 0)
(-8.95425e-05 -6.31859e-06 0)
(-7.55187e-05 -6.3419e-06 0)
(-6.14492e-05 -6.36738e-06 0)
(-4.73411e-05 -6.3874e-06 0)
(-3.32092e-05 -6.38417e-06 0)
(-1.92376e-05 -6.32376e-06 0)
(-5.76978e-06 -5.77088e-06 0)
(1.90229e-05 -2.87432e-05 0)
(3.37192e-05 -1.10428e-05 0)
(4.89076e-05 -1.9726e-05 0)
(6.08111e-05 -2.21835e-05 0)
(7.50556e-05 -2.37257e-05 0)
(8.97406e-05 -2.38668e-05 0)
(0.000105046 -2.36946e-05 0)
(0.000120658 -2.34109e-05 0)
(0.000136425 -2.30774e-05 0)
(0.000152248 -2.27733e-05 0)
(0.000168047 -2.24919e-05 0)
(0.00018378 -2.2219e-05 0)
(0.000199419 -2.19547e-05 0)
(0.000214942 -2.16933e-05 0)
(0.000230331 -2.14307e-05 0)
(0.00024557 -2.11625e-05 0)
(0.000260646 -2.08846e-05 0)
(0.000275546 -2.0597e-05 0)
(0.000290255 -2.02982e-05 0)
(0.000304761 -1.99873e-05 0)
(0.000319051 -1.96632e-05 0)
(0.000333113 -1.93247e-05 0)
(0.000346936 -1.89711e-05 0)
(0.000360508 -1.86018e-05 0)
(0.000373818 -1.82168e-05 0)
(0.000386852 -1.78161e-05 0)
(0.000399598 -1.73998e-05 0)
(0.000412044 -1.69681e-05 0)
(0.000424177 -1.65208e-05 0)
(0.000435985 -1.60578e-05 0)
(0.000447455 -1.55789e-05 0)
(0.000458575 -1.5084e-05 0)
(0.000469332 -1.45727e-05 0)
(0.000479715 -1.4045e-05 0)
(0.000489711 -1.35009e-05 0)
(0.000499306 -1.29407e-05 0)
(0.000508488 -1.23647e-05 0)
(0.000517245 -1.17729e-05 0)
(0.000525563 -1.11652e-05 0)
(0.000533433 -1.05411e-05 0)
(0.000540843 -9.90047e-06 0)
(0.000547782 -9.24331e-06 0)
(0.000554238 -8.57008e-06 0)
(0.000560199 -7.88122e-06 0)
(0.000565655 -7.17718e-06 0)
(0.000570595 -6.45836e-06 0)
(0.000575009 -5.72509e-06 0)
(0.000578887 -4.97787e-06 0)
(0.000582218 -4.21761e-06 0)
(0.000584992 -3.44535e-06 0)
(0.0005872 -2.66188e-06 0)
(0.000588835 -1.86771e-06 0)
(0.000589888 -1.06341e-06 0)
(0.000590353 -2.49675e-07 0)
(0.000590223 5.7317e-07 0)
(0.000589491 1.40459e-06 0)
(0.000588149 2.24258e-06 0)
(0.000586194 3.08635e-06 0)
(0.00058362 3.93519e-06 0)
(0.000580424 4.78867e-06 0)
(0.000576604 5.64613e-06 0)
(0.000572157 6.50645e-06 0)
(0.000567082 7.3683e-06 0)
(0.000561378 8.23049e-06 0)
(0.000555045 9.09193e-06 0)
(0.000548086 9.9514e-06 0)
(0.000540501 1.08075e-05 0)
(0.000532294 1.16588e-05 0)
(0.000523468 1.25039e-05 0)
(0.000514029 1.33415e-05 0)
(0.000503983 1.41702e-05 0)
(0.000493336 1.49887e-05 0)
(0.000482096 1.57954e-05 0)
(0.000470271 1.6589e-05 0)
(0.000457872 1.73685e-05 0)
(0.00044491 1.81329e-05 0)
(0.000431397 1.8881e-05 0)
(0.000417348 1.9611e-05 0)
(0.000402775 2.03212e-05 0)
(0.000387694 2.10097e-05 0)
(0.000372119 2.16753e-05 0)
(0.00035607 2.2317e-05 0)
(0.000339564 2.29337e-05 0)
(0.000322621 2.35241e-05 0)
(0.000305261 2.40866e-05 0)
(0.000287502 2.46198e-05 0)
(0.000269368 2.51223e-05 0)
(0.000250879 2.5593e-05 0)
(0.000232058 2.60309e-05 0)
(0.00021293 2.64355e-05 0)
(0.000193518 2.68061e-05 0)
(0.000173848 2.71423e-05 0)
(0.000153946 2.74431e-05 0)
(0.000133838 2.77073e-05 0)
(0.000113549 2.79342e-05 0)
(9.31066e-05 2.81235e-05 0)
(7.25374e-05 2.82754e-05 0)
(5.18699e-05 2.83897e-05 0)
(3.11323e-05 2.84665e-05 0)
(1.03531e-05 2.85053e-05 0)
(-1.04406e-05 2.85053e-05 0)
(-3.12188e-05 2.84667e-05 0)
(-5.19554e-05 2.83899e-05 0)
(-7.26219e-05 2.82752e-05 0)
(-9.31904e-05 2.81225e-05 0)
(-0.000113633 2.79321e-05 0)
(-0.000133923 2.77049e-05 0)
(-0.000154032 2.74415e-05 0)
(-0.000173935 2.71422e-05 0)
(-0.000193604 2.68071e-05 0)
(-0.000213015 2.64374e-05 0)
(-0.000232143 2.60338e-05 0)
(-0.000250963 2.55963e-05 0)
(-0.000269452 2.51264e-05 0)
(-0.000287588 2.46257e-05 0)
(-0.000305347 2.40943e-05 0)
(-0.000322708 2.35334e-05 0)
(-0.00033965 2.29445e-05 0)
(-0.000356155 2.23283e-05 0)
(-0.000372203 2.16861e-05 0)
(-0.000387777 2.10198e-05 0)
(-0.000402859 2.03311e-05 0)
(-0.000417434 1.9622e-05 0)
(-0.000431485 1.8894e-05 0)
(-0.000444998 1.81477e-05 0)
(-0.00045796 1.73841e-05 0)
(-0.000470359 1.66052e-05 0)
(-0.000482185 1.58121e-05 0)
(-0.000493428 1.5005e-05 0)
(-0.000504079 1.41867e-05 0)
(-0.00051413 1.33597e-05 0)
(-0.000523573 1.25243e-05 0)
(-0.000532402 1.16813e-05 0)
(-0.000540612 1.08325e-05 0)
(-0.000548202 9.97966e-06 0)
(-0.000555165 9.12323e-06 0)
(-0.000561501 8.26398e-06 0)
(-0.000567209 7.40397e-06 0)
(-0.000572288 6.54464e-06 0)
(-0.000576736 5.68666e-06 0)
(-0.000580557 4.83039e-06 0)
(-0.000583752 3.97654e-06 0)
(-0.000586325 3.12602e-06 0)
(-0.000588281 2.27958e-06 0)
(-0.000589625 1.43768e-06 0)
(-0.000590363 6.01628e-07 0)
(-0.000590499 -2.25473e-07 0)
(-0.000590043 -1.04107e-06 0)
(-0.000588998 -1.84507e-06 0)
(-0.000587371 -2.63672e-06 0)
(-0.00058517 -3.41549e-06 0)
(-0.000582402 -4.18078e-06 0)
(-0.000579078 -4.93246e-06 0)
(-0.000575206 -5.67175e-06 0)
(-0.000570795 -6.3984e-06 0)
(-0.000565857 -7.11161e-06 0)
(-0.000560401 -7.812e-06 0)
(-0.000554441 -8.4989e-06 0)
(-0.000547988 -9.17093e-06 0)
(-0.000541052 -9.82798e-06 0)
(-0.000533647 -1.04698e-05 0)
(-0.000525784 -1.10953e-05 0)
(-0.000517474 -1.17029e-05 0)
(-0.000508728 -1.22914e-05 0)
(-0.000499558 -1.28628e-05 0)
(-0.000489972 -1.34173e-05 0)
(-0.000479985 -1.39555e-05 0)
(-0.000469608 -1.44766e-05 0)
(-0.000458856 -1.4982e-05 0)
(-0.000447741 -1.54714e-05 0)
(-0.000436276 -1.59463e-05 0)
(-0.000424476 -1.64077e-05 0)
(-0.000412357 -1.68519e-05 0)
(-0.00039993 -1.7276e-05 0)
(-0.000387204 -1.76783e-05 0)
(-0.000374184 -1.80597e-05 0)
(-0.000360877 -1.84245e-05 0)
(-0.000347299 -1.87753e-05 0)
(-0.000333466 -1.91138e-05 0)
(-0.000319399 -1.94404e-05 0)
(-0.000305114 -1.9754e-05 0)
(-0.00029062 -2.00535e-05 0)
(-0.000275926 -2.03345e-05 0)
(-0.000261038 -2.05922e-05 0)
(-0.000245964 -2.08256e-05 0)
(-0.000230711 -2.10364e-05 0)
(-0.000215293 -2.1231e-05 0)
(-0.000199726 -2.14164e-05 0)
(-0.000184029 -2.1593e-05 0)
(-0.000168216 -2.17604e-05 0)
(-0.000152293 -2.19152e-05 0)
(-0.000136269 -2.20519e-05 0)
(-0.000120149 -2.21704e-05 0)
(-0.000103947 -2.22721e-05 0)
(-8.76888e-05 -2.2358e-05 0)
(-7.13765e-05 -2.24319e-05 0)
(-5.49974e-05 -2.24854e-05 0)
(-3.85597e-05 -2.24898e-05 0)
(-2.23185e-05 -2.22976e-05 0)
(-6.32349e-06 -1.9247e-05 0)
(9.00348e-06 -4.36153e-05 0)
(2.50579e-05 -2.81562e-05 0)
(4.61993e-05 -3.13381e-05 0)
(6.08233e-05 -3.46855e-05 0)
(7.62905e-05 -3.68104e-05 0)
(9.17331e-05 -3.78212e-05 0)
(0.000107385 -3.82444e-05 0)
(0.000123171 -3.83464e-05 0)
(0.000139025 -3.82644e-05 0)
(0.000154897 -3.80846e-05 0)
(0.000170744 -3.78435e-05 0)
(0.000186533 -3.75578e-05 0)
(0.000202237 -3.72382e-05 0)
(0.000217834 -3.68893e-05 0)
(0.000233305 -3.65133e-05 0)
(0.000248634 -3.61104e-05 0)
(0.000263804 -3.56809e-05 0)
(0.000278801 -3.52252e-05 0)
(0.000293611 -3.47433e-05 0)
(0.00030822 -3.42347e-05 0)
(0.000322615 -3.36987e-05 0)
(0.000336784 -3.31345e-05 0)
(0.000350714 -3.25419e-05 0)
(0.000364394 -3.19209e-05 0)
(0.000377811 -3.12717e-05 0)
(0.000390952 -3.05943e-05 0)
(0.000403805 -2.98888e-05 0)
(0.000416358 -2.9155e-05 0)
(0.000428597 -2.83929e-05 0)
(0.000440508 -2.76024e-05 0)
(0.00045208 -2.67835e-05 0)
(0.0004633 -2.5936e-05 0)
(0.000474156 -2.50599e-05 0)
(0.000484635 -2.4155e-05 0)
(0.000494723 -2.32214e-05 0)
(0.000504409 -2.22594e-05 0)
(0.000513677 -2.12691e-05 0)
(0.000522517 -2.02506e-05 0)
(0.000530915 -1.92038e-05 0)
(0.000538861 -1.81287e-05 0)
(0.000546343 -1.70254e-05 0)
(0.000553351 -1.58943e-05 0)
(0.000559871 -1.47359e-05 0)
(0.000565893 -1.35507e-05 0)
(0.000571406 -1.23392e-05 0)
(0.000576399 -1.1102e-05 0)
(0.000580861 -9.84008e-06 0)
(0.000584782 -8.55452e-06 0)
(0.000588152 -7.24669e-06 0)
(0.00059096 -5.9178e-06 0)
(0.000593198 -4.5688e-06 0)
(0.000594857 -3.20046e-06 0)
(0.000595929 -1.81378e-06 0)
(0.000596407 -4.10214e-07 0)
(0.000596283 1.00859e-06 0)
(0.00059555 2.44107e-06 0)
(0.000594201 3.88564e-06 0)
(0.000592233 5.3412e-06 0)
(0.00058964 6.80685e-06 0)
(0.000586419 8.28117e-06 0)
(0.000582567 9.76216e-06 0)
(0.00057808 1.12476e-05 0)
(0.000572959 1.27353e-05 0)
(0.000567202 1.42234e-05 0)
(0.00056081 1.57099e-05 0)
(0.000553785 1.71929e-05 0)
(0.000546128 1.86701e-05 0)
(0.000537841 2.01388e-05 0)
(0.000528929 2.15966e-05 0)
(0.000519397 2.30411e-05 0)
(0.00050925 2.44697e-05 0)
(0.000498496 2.58801e-05 0)
(0.000487143 2.72703e-05 0)
(0.000475199 2.86382e-05 0)
(0.000462674 2.9982e-05 0)
(0.000449581 3.12996e-05 0)
(0.000435931 3.25885e-05 0)
(0.000421738 3.38458e-05 0)
(0.000407016 3.50688e-05 0)
(0.000391779 3.62552e-05 0)
(0.000376045 3.74031e-05 0)
(0.000359832 3.85105e-05 0)
(0.000343157 3.95749e-05 0)
(0.00032604 4.05934e-05 0)
(0.000308501 4.15634e-05 0)
(0.000290559 4.24823e-05 0)
(0.000272236 4.33483e-05 0)
(0.000253555 4.41598e-05 0)
(0.000234539 4.49152e-05 0)
(0.000215212 4.56134e-05 0)
(0.000195599 4.62528e-05 0)
(0.000175724 4.68321e-05 0)
(0.000155614 4.73498e-05 0)
(0.000135295 4.78044e-05 0)
(0.000114793 4.81948e-05 0)
(9.41356e-05 4.8521e-05 0)
(7.33507e-05 4.8783e-05 0)
(5.24665e-05 4.89805e-05 0)
(3.15114e-05 4.91129e-05 0)
(1.05137e-05 4.91796e-05 0)
(-1.04992e-05 4.918e-05 0)
(-3.14965e-05 4.91138e-05 0)
(-5.24514e-05 4.89812e-05 0)
(-7.33353e-05 4.87827e-05 0)
(-9.412e-05 4.8519e-05 0)
(-0.000114777 4.81904e-05 0)
(-0.000135279 4.77979e-05 0)
(-0.000155598 4.73427e-05 0)
(-0.000175708 4.68255e-05 0)
(-0.000195582 4.62466e-05 0)
(-0.000215195 4.56075e-05 0)
(-0.000234522 4.49104e-05 0)
(-0.000253536 4.4156e-05 0)
(-0.000272216 4.33458e-05 0)
(-0.000290538 4.24819e-05 0)
(-0.000308479 4.15659e-05 0)
(-0.000326018 4.0599e-05 0)
(-0.000343135 3.95834e-05 0)
(-0.000359809 3.85213e-05 0)
(-0.000376022 3.74151e-05 0)
(-0.000391754 3.62679e-05 0)
(-0.00040699 3.50822e-05 0)
(-0.000421711 3.38601e-05 0)
(-0.000435905 3.26041e-05 0)
(-0.000449555 3.1316e-05 0)
(-0.000462647 2.99977e-05 0)
(-0.000475171 2.86518e-05 0)
(-0.000487115 2.72816e-05 0)
(-0.000498469 2.5889e-05 0)
(-0.000509223 2.44765e-05 0)
(-0.00051937 2.30478e-05 0)
(-0.000528904 2.16048e-05 0)
(-0.000537817 2.01487e-05 0)
(-0.000546104 1.86815e-05 0)
(-0.000553762 1.72066e-05 0)
(-0.000560789 1.57263e-05 0)
(-0.00056718 1.42418e-05 0)
(-0.000572936 1.2756e-05 0)
(-0.000578054 1.12715e-05 0)
(-0.000582537 9.78961e-06 0)
(-0.000586385 8.31122e-06 0)
(-0.000589601 6.83761e-06 0)
(-0.000592189 5.37079e-06 0)
(-0.000594155 3.91267e-06 0)
(-0.000595502 2.46471e-06 0)
(-0.000596237 1.02866e-06 0)
(-0.000596365 -3.92609e-07 0)
(-0.000595892 -1.79684e-06 0)
(-0.000594825 -3.18262e-06 0)
(-0.000593171 -4.54835e-06 0)
(-0.000590937 -5.89283e-06 0)
(-0.00058813 -7.21573e-06 0)
(-0.000584761 -8.51607e-06 0)
(-0.000580839 -9.79334e-06 0)
(-0.000576373 -1.10474e-05 0)
(-0.000571374 -1.22778e-05 0)
(-0.000565853 -1.34845e-05 0)
(-0.000559822 -1.46668e-05 0)
(-0.000553295 -1.58229e-05 0)
(-0.000546283 -1.69532e-05 0)
(-0.000538797 -1.80578e-05 0)
(-0.000530849 -1.91345e-05 0)
(-0.00052245 -2.01822e-05 0)
(-0.000513612 -2.11999e-05 0)
(-0.000504347 -2.21894e-05 0)
(-0.000494663 -2.31496e-05 0)
(-0.000484571 -2.40816e-05 0)
(-0.000474086 -2.49841e-05 0)
(-0.000463223 -2.58567e-05 0)
(-0.000451995 -2.66999e-05 0)
(-0.000440416 -2.75154e-05 0)
(-0.000428502 -2.83043e-05 0)
(-0.000416263 -2.9064e-05 0)
(-0.000403714 -2.97921e-05 0)
(-0.000390862 -3.04884e-05 0)
(-0.000377714 -3.11521e-05 0)
(-0.000364279 -3.17869e-05 0)
(-0.000350568 -3.23972e-05 0)
(-0.000336601 -3.29825e-05 0)
(-0.000322398 -3.35423e-05 0)
(-0.000307976 -3.40756e-05 0)
(-0.000293345 -3.458e-05 0)
(-0.000278511 -3.50527e-05 0)
(-0.000263478 -3.54915e-05 0)
(-0.000248254 -3.58943e-05 0)
(-0.000232852 -3.62647e-05 0)
(-0.00021729 -3.6608e-05 0)
(-0.000201582 -3.69328e-05 0)
(-0.000185744 -3.72425e-05 0)
(-0.000169786 -3.7533e-05 0)
(-0.000153715 -3.77998e-05 0)
(-0.000137541 -3.80349e-05 0)
(-0.000121272 -3.82364e-05 0)
(-0.00010492 -3.84112e-05 0)
(-8.85096e-05 -3.8561e-05 0)
(-7.20423e-05 -3.86823e-05 0)
(-5.55e-05 -3.87726e-05 0)
(-3.89085e-05 -3.88143e-05 0)
(-2.25437e-05 -3.85503e-05 0)
(-6.3807e-06 -3.32333e-05 0)
(6.32617e-06 -6.23374e-05 0)
(2.21667e-05 -4.9786e-05 0)
(4.29914e-05 -5.03114e-05 0)
(5.92894e-05 -5.1995e-05 0)
(7.54769e-05 -5.32527e-05 0)
(9.14298e-05 -5.39178e-05 0)
(0.000107386 -5.42024e-05 0)
(0.000123357 -5.426e-05 0)
(0.00013933 -5.41621e-05 0)
(0.000155284 -5.39534e-05 0)
(0.000171193 -5.36613e-05 0)
(0.000187031 -5.33024e-05 0)
(0.000202778 -5.28879e-05 0)
(0.000218414 -5.24242e-05 0)
(0.000233922 -5.19154e-05 0)
(0.000249286 -5.13638e-05 0)
(0.000264492 -5.07708e-05 0)
(0.000279525 -5.01373e-05 0)
(0.00029437 -4.94639e-05 0)
(0.000309016 -4.87501e-05 0)
(0.000323448 -4.79956e-05 0)
(0.000337655 -4.72001e-05 0)
(0.000351623 -4.63635e-05 0)
(0.00036534 -4.5486e-05 0)
(0.000378795 -4.45678e-05 0)
(0.000391974 -4.36089e-05 0)
(0.000404865 -4.26093e-05 0)
(0.000417456 -4.15688e-05 0)
(0.000429732 -4.04872e-05 0)
(0.000441682 -3.93645e-05 0)
(0.000453292 -3.82007e-05 0)
(0.000464551 -3.69956e-05 0)
(0.000475444 -3.57493e-05 0)
(0.000485961 -3.44615e-05 0)
(0.000496088 -3.31325e-05 0)
(0.000505811 -3.17623e-05 0)
(0.000515116 -3.03513e-05 0)
(0.000523993 -2.88994e-05 0)
(0.000532428 -2.74067e-05 0)
(0.00054041 -2.58733e-05 0)
(0.000547929 -2.42997e-05 0)
(0.000554972 -2.26864e-05 0)
(0.000561527 -2.10342e-05 0)
(0.000567583 -1.93437e-05 0)
(0.000573128 -1.76156e-05 0)
(0.000578153 -1.58511e-05 0)
(0.000582645 -1.40514e-05 0)
(0.000586595 -1.22182e-05 0)
(0.000589992 -1.03532e-05 0)
(0.000592826 -8.45779e-06 0)
(0.000595088 -6.53313e-06 0)
(0.000596771 -4.58056e-06 0)
(0.000597864 -2.60181e-06 0)
(0.000598362 -5.98932e-07 0)
(0.000598255 1.42618e-06 0)
(0.000597537 3.47103e-06 0)
(0.000596202 5.53409e-06 0)
(0.000594245 7.61374e-06 0)
(0.000591662 9.70809e-06 0)
(0.000588448 1.18145e-05 0)
(0.0005846 1.393e-05 0)
(0.000580115 1.60513e-05 0)
(0.000574993 1.81758e-05 0)
(0.000569232 2.03009e-05 0)
(0.000562834 2.24237e-05 0)
(0.0005558 2.45413e-05 0)
(0.00054813 2.665e-05 0)
(0.000539828 2.87465e-05 0)
(0.000530897 3.08271e-05 0)
(0.000521342 3.28887e-05 0)
(0.000511171 3.49281e-05 0)
(0.000500389 3.69422e-05 0)
(0.000489005 3.8928e-05 0)
(0.000477028 4.08823e-05 0)
(0.000464468 4.28019e-05 0)
(0.000451335 4.46836e-05 0)
(0.000437643 4.65237e-05 0)
(0.000423404 4.83188e-05 0)
(0.000408633 5.00652e-05 0)
(0.000393345 5.17598e-05 0)
(0.000377557 5.33997e-05 0)
(0.000361287 5.49813e-05 0)
(0.000344552 5.65009e-05 0)
(0.000327371 5.79543e-05 0)
(0.000309764 5.93381e-05 0)
(0.000291752 6.06494e-05 0)
(0.000273357 6.18859e-05 0)
(0.000254603 6.30451e-05 0)
(0.000235512 6.41246e-05 0)
(0.000216107 6.51221e-05 0)
(0.000196414 6.60355e-05 0)
(0.000176458 6.68629e-05 0)
(0.000156265 6.76025e-05 0)
(0.000135861 6.82528e-05 0)
(0.000115274 6.88123e-05 0)
(9.45318e-05 6.92802e-05 0)
(7.36613e-05 6.96563e-05 0)
(5.26906e-05 6.99397e-05 0)
(3.16482e-05 7.01293e-05 0)
(1.05627e-05 7.02246e-05 0)
(-1.05384e-05 7.02253e-05 0)
(-3.16241e-05 7.01312e-05 0)
(-5.26669e-05 6.99423e-05 0)
(-7.3638e-05 6.96592e-05 0)
(-9.45093e-05 6.92827e-05 0)
(-0.000115252 6.88135e-05 0)
(-0.000135838 6.82525e-05 0)
(-0.000156241 6.76011e-05 0)
(-0.000176433 6.6861e-05 0)
(-0.000196389 6.60335e-05 0)
(-0.00021608 6.51201e-05 0)
(-0.000235484 6.41236e-05 0)
(-0.000254574 6.30458e-05 0)
(-0.000273327 6.1888e-05 0)
(-0.00029172 6.06528e-05 0)
(-0.00030973 5.93432e-05 0)
(-0.000327336 5.79615e-05 0)
(-0.000344517 5.65107e-05 0)
(-0.000361252 5.49941e-05 0)
(-0.000377522 5.34152e-05 0)
(-0.000393309 5.17777e-05 0)
(-0.000408596 5.00846e-05 0)
(-0.000423367 4.83387e-05 0)
(-0.000437606 4.65434e-05 0)
(-0.0004513 4.47026e-05 0)
(-0.000464433 4.28196e-05 0)
(-0.000476993 4.08972e-05 0)
(-0.00048897 3.894e-05 0)
(-0.000500354 3.69518e-05 0)
(-0.000511135 3.49351e-05 0)
(-0.000521305 3.28935e-05 0)
(-0.000530859 3.08308e-05 0)
(-0.000539791 2.87503e-05 0)
(-0.000548093 2.66546e-05 0)
(-0.000555763 2.45474e-05 0)
(-0.000562798 2.24325e-05 0)
(-0.000569195 2.03127e-05 0)
(-0.000574953 1.81906e-05 0)
(-0.000580072 1.60695e-05 0)
(-0.000584553 1.39518e-05 0)
(-0.000588397 1.18396e-05 0)
(-0.000591607 9.73543e-06 0)
(-0.000594187 7.64149e-06 0)
(-0.000596142 5.56045e-06 0)
(-0.000597476 3.49526e-06 0)
(-0.000598195 1.44842e-06 0)
(-0.000598304 -5.77722e-07 0)
(-0.00059781 -2.58107e-06 0)
(-0.00059672 -4.55863e-06 0)
(-0.000595041 -6.50817e-06 0)
(-0.00059278 -8.42817e-06 0)
(-0.000589946 -1.03183e-05 0)
(-0.000586549 -1.21769e-05 0)
(-0.000582597 -1.40021e-05 0)
(-0.0005781 -1.57937e-05 0)
(-0.00057307 -1.75519e-05 0)
(-0.000567517 -1.92759e-05 0)
(-0.000561453 -2.09644e-05 0)
(-0.000554892 -2.26161e-05 0)
(-0.000547846 -2.42303e-05 0)
(-0.000540324 -2.58066e-05 0)
(-0.000532339 -2.7343e-05 0)
(-0.000523902 -2.88389e-05 0)
(-0.000515026 -3.0293e-05 0)
(-0.000505722 -3.1705e-05 0)
(-0.000495998 -3.30753e-05 0)
(-0.000485868 -3.44047e-05 0)
(-0.000475343 -3.56924e-05 0)
(-0.00046444 -3.69368e-05 0)
(-0.000453172 -3.8139e-05 0)
(-0.000441555 -3.93005e-05 0)
(-0.0004296 -4.04204e-05 0)
(-0.000417321 -4.1499e-05 0)
(-0.000404729 -4.25342e-05 0)
(-0.000391836 -4.35244e-05 0)
(-0.000378646 -4.44715e-05 0)
(-0.000365173 -4.53772e-05 0)
(-0.000351426 -4.62446e-05 0)
(-0.000337422 -4.7076e-05 0)
(-0.000323181 -4.78702e-05 0)
(-0.000308719 -4.86244e-05 0)
(-0.000294045 -4.9337e-05 0)
(-0.000279165 -5.0006e-05 0)
(-0.000264087 -5.06304e-05 0)
(-0.00024882 -5.12111e-05 0)
(-0.000233379 -5.17532e-05 0)
(-0.000217784 -5.22599e-05 0)
(-0.000202048 -5.27361e-05 0)
(-0.000186181 -5.31842e-05 0)
(-0.00017019 -5.35989e-05 0)
(-0.000154078 -5.39743e-05 0)
(-0.000137856 -5.43027e-05 0)
(-0.000121542 -5.45817e-05 0)
(-0.000105154 -5.48214e-05 0)
(-8.87057e-05 -5.50303e-05 0)
(-7.2198e-05 -5.52029e-05 0)
(-5.56168e-05 -5.53366e-05 0)
(-3.89978e-05 -5.5421e-05 0)
(-2.26172e-05 -5.50554e-05 0)
(-6.41897e-06 -4.74407e-05 0)
(5.84054e-06 -7.45047e-05 0)
(2.11045e-05 -6.81417e-05 0)
(4.09962e-05 -6.77597e-05 0)
(5.7927e-05 -6.87819e-05 0)
(7.46306e-05 -6.96558e-05 0)
(9.10202e-05 -7.01468e-05 0)
(0.000107253 -7.03567e-05 0)
(0.000123404 -7.03627e-05 0)
(0.000139513 -7.02132e-05 0)
(0.000155572 -6.99432e-05 0)
(0.000171564 -6.95756e-05 0)
(0.000187473 -6.91257e-05 0)
(0.000203281 -6.8604e-05 0)
(0.000218972 -6.80176e-05 0)
(0.000234532 -6.7371e-05 0)
(0.000249945 -6.66674e-05 0)
(0.000265199 -6.59085e-05 0)
(0.000280279 -6.50957e-05 0)
(0.000295171 -6.42296e-05 0)
(0.000309864 -6.331e-05 0)
(0.000324344 -6.2337e-05 0)
(0.000338597 -6.13105e-05 0)
(0.000352613 -6.02304e-05 0)
(0.000366378 -5.90969e-05 0)
(0.000379879 -5.79101e-05 0)
(0.000393105 -5.66699e-05 0)
(0.000406044 -5.53763e-05 0)
(0.000418682 -5.40291e-05 0)
(0.000431006 -5.26282e-05 0)
(0.000443003 -5.11735e-05 0)
(0.000454661 -4.9665e-05 0)
(0.000465967 -4.81023e-05 0)
(0.000476909 -4.64855e-05 0)
(0.000487473 -4.48145e-05 0)
(0.000497648 -4.30895e-05 0)
(0.000507418 -4.13107e-05 0)
(0.000516771 -3.94782e-05 0)
(0.000525695 -3.75922e-05 0)
(0.000534177 -3.56528e-05 0)
(0.000542206 -3.36605e-05 0)
(0.00054977 -3.16157e-05 0)
(0.000556858 -2.95192e-05 0)
(0.000563458 -2.7372e-05 0)
(0.000569558 -2.5175e-05 0)
(0.000575146 -2.29294e-05 0)
(0.000580211 -2.06366e-05 0)
(0.000584743 -1.82982e-05 0)
(0.000588731 -1.59161e-05 0)
(0.000592164 -1.34924e-05 0)
(0.000595032 -1.10286e-05 0)
(0.000597328 -8.5264e-06 0)
(0.000599041 -5.98774e-06 0)
(0.000600164 -3.41487e-06 0)
(0.000600688 -8.10251e-07 0)
(0.000600605 1.8231e-06 0)
(0.000599909 4.48291e-06 0)
(0.000598595 7.16732e-06 0)
(0.000596656 9.87379e-06 0)
(0.000594088 1.25991e-05 0)
(0.000590886 1.53396e-05 0)
(0.000587046 1.80914e-05 0)
(0.000582566 2.08508e-05 0)
(0.000577446 2.36147e-05 0)
(0.000571684 2.63796e-05 0)
(0.000565282 2.91416e-05 0)
(0.000558239 3.18964e-05 0)
(0.000550557 3.46395e-05 0)
(0.000542238 3.73665e-05 0)
(0.000533287 4.00735e-05 0)
(0.000523709 4.27566e-05 0)
(0.00051351 4.54117e-05 0)
(0.000502698 4.80348e-05 0)
(0.000491279 5.06212e-05 0)
(0.000479264 5.31665e-05 0)
(0.000466661 5.56662e-05 0)
(0.000453483 5.81161e-05 0)
(0.00043974 6.05118e-05 0)
(0.000425447 6.28488e-05 0)
(0.000410618 6.51226e-05 0)
(0.000395269 6.73288e-05 0)
(0.000379416 6.9463e-05 0)
(0.000363075 7.15204e-05 0)
(0.000346266 7.34962e-05 0)
(0.000329007 7.53858e-05 0)
(0.000311318 7.71851e-05 0)
(0.000293222 7.88909e-05 0)
(0.000274739 8.04999e-05 0)
(0.000255894 8.20088e-05 0)
(0.00023671 8.3414e-05 0)
(0.000217209 8.47128e-05 0)
(0.000197419 8.59027e-05 0)
(0.000177363 8.69814e-05 0)
(0.000157068 8.79467e-05 0)
(0.00013656 8.87965e-05 0)
(0.000115868 8.95286e-05 0)
(9.50199e-05 9.01411e-05 0)
(7.40426e-05 9.06326e-05 0)
(5.29641e-05 9.10023e-05 0)
(3.1813e-05 9.12493e-05 0)
(1.06183e-05 9.13732e-05 0)
(-1.05919e-05 9.13739e-05 0)
(-3.17867e-05 9.12519e-05 0)
(-5.29386e-05 9.10067e-05 0)
(-7.40181e-05 9.06386e-05 0)
(-9.49967e-05 9.01482e-05 0)
(-0.000115846 8.95368e-05 0)
(-0.000136538 8.88056e-05 0)
(-0.000157044 8.79563e-05 0)
(-0.000177338 8.69913e-05 0)
(-0.000197393 8.59131e-05 0)
(-0.000217182 8.47235e-05 0)
(-0.00023668 8.34249e-05 0)
(-0.000255863 8.202e-05 0)
(-0.000274707 8.05112e-05 0)
(-0.000293188 7.89014e-05 0)
(-0.000311283 7.7195e-05 0)
(-0.00032897 7.53955e-05 0)
(-0.000346228 7.35068e-05 0)
(-0.000363037 7.1533e-05 0)
(-0.000379377 6.9478e-05 0)
(-0.00039523 6.7346e-05 0)
(-0.00041058 6.51412e-05 0)
(-0.00042541 6.28678e-05 0)
(-0.000439704 6.05304e-05 0)
(-0.000453448 5.81342e-05 0)
(-0.000466628 5.56839e-05 0)
(-0.00047923 5.3183e-05 0)
(-0.000491246 5.0636e-05 0)
(-0.000502664 4.80483e-05 0)
(-0.000513476 4.54238e-05 0)
(-0.000523674 4.27664e-05 0)
(-0.00053325 4.00812e-05 0)
(-0.0005422 3.73733e-05 0)
(-0.000550518 3.46467e-05 0)
(-0.000558199 3.19048e-05 0)
(-0.000565242 2.91524e-05 0)
(-0.000571643 2.63937e-05 0)
(-0.000577402 2.36321e-05 0)
(-0.000582519 2.08711e-05 0)
(-0.000586995 1.81143e-05 0)
(-0.000590831 1.53654e-05 0)
(-0.00059403 1.26279e-05 0)
(-0.000596597 9.90457e-06 0)
(-0.000598534 7.1982e-06 0)
(-0.000599849 4.51285e-06 0)
(-0.000600545 1.852e-06 0)
(-0.00060063 -7.82115e-07 0)
(-0.000600108 -3.38701e-06 0)
(-0.000598987 -5.95892e-06 0)
(-0.000597275 -8.49494e-06 0)
(-0.000594981 -1.09932e-05 0)
(-0.000592112 -1.34528e-05 0)
(-0.000588677 -1.5872e-05 0)
(-0.000584686 -1.8248e-05 0)
(-0.000580151 -2.05806e-05 0)
(-0.000575082 -2.28694e-05 0)
(-0.000569489 -2.5113e-05 0)
(-0.000563383 -2.73101e-05 0)
(-0.000556779 -2.94592e-05 0)
(-0.000549689 -3.15583e-05 0)
(-0.000542122 -3.36062e-05 0)
(-0.000534091 -3.56026e-05 0)
(-0.000525606 -3.75457e-05 0)
(-0.000516681 -3.94346e-05 0)
(-0.000507328 -4.12672e-05 0)
(-0.000497558 -4.30461e-05 0)
(-0.000487379 -4.47712e-05 0)
(-0.000476805 -4.6442e-05 0)
(-0.000465852 -4.80575e-05 0)
(-0.000454536 -4.96173e-05 0)
(-0.000442871 -5.11232e-05 0)
(-0.000430869 -5.25755e-05 0)
(-0.000418541 -5.39745e-05 0)
(-0.000405899 -5.53183e-05 0)
(-0.000392954 -5.66039e-05 0)
(-0.000379717 -5.78335e-05 0)
(-0.000366196 -5.90092e-05 0)
(-0.000352405 -6.01327e-05 0)
(-0.000338359 -6.12075e-05 0)
(-0.000324073 -6.22334e-05 0)
(-0.000309564 -6.3208e-05 0)
(-0.000294842 -6.41316e-05 0)
(-0.000279914 -6.50017e-05 0)
(-0.000264787 -6.58195e-05 0)
(-0.000249475 -6.65849e-05 0)
(-0.000233993 -6.73003e-05 0)
(-0.000218359 -6.79701e-05 0)
(-0.000202586 -6.8594e-05 0)
(-0.00018668 -6.91725e-05 0)
(-0.000170642 -6.97024e-05 0)
(-0.000154479 -7.01759e-05 0)
(-0.000138203 -7.05906e-05 0)
(-0.000121838 -7.09497e-05 0)
(-0.000105411 -7.12629e-05 0)
(-8.89263e-05 -7.15387e-05 0)
(-7.23783e-05 -7.17705e-05 0)
(-5.57622e-05 -7.19515e-05 0)
(-3.91138e-05 -7.20697e-05 0)
(-2.27031e-05 -7.15889e-05 0)
(-6.45847e-06 -6.16887e-05 0)
(5.77106e-06 -8.73118e-05 0)
(2.10343e-05 -8.61375e-05 0)
(4.00045e-05 -8.54343e-05 0)
(5.71914e-05 -8.58623e-05 0)
(7.41154e-05 -8.6334e-05 0)
(9.07423e-05 -8.66212e-05 0)
(0.000107182 -8.67171e-05 0)
(0.000123511 -8.66323e-05 0)
(0.000139759 -8.63983e-05 0)
(0.000155931 -8.60414e-05 0)